
                                 *****************
                                 * O   R   C   A *
                                 *****************

           --- An Ab Initio, DFT and Semiempirical electronic structure package ---

                  #######################################################
                  #                        -***-                        #
                  #          Department of theory and spectroscopy      #
                  #               Directorship: Frank Neese             #
                  #        Max Planck Institute fuer Kohlenforschung    #
                  #                Kaiser Wilhelm Platz 1               #
                  #                 D-45470 Muelheim/Ruhr               #
                  #                      Germany                        #
                  #                                                     #
                  #                  All rights reserved                #
                  #                        -***-                        #
                  #######################################################


                         Program Version 4.2.0 -  RELEASE  -


 With contributions from (in alphabetic order):
   Daniel Aravena         : Magnetic Suceptibility
   Michael Atanasov       : Ab Initio Ligand Field Theory (pilot matlab implementation)
   Alexander A. Auer      : GIAO ZORA, VPT2
   Ute Becker             : Parallelization
   Giovanni Bistoni       : ED, misc. LED, open-shell LED, HFLED
   Martin Brehm           : Molecular dynamics
   Dmytro Bykov           : SCF Hessian
   Vijay G. Chilkuri      : MRCI spin determinant printing, contributions to CSF-ICE
   Dipayan Datta          : RHF DLPNO-CCSD density
   Achintya Kumar Dutta   : EOM-CC, STEOM-CC
   Dmitry Ganyushin       : Spin-Orbit,Spin-Spin,Magnetic field MRCI
   Miquel Garcia          : C-PCM Hessian, Gaussian charge scheme
   Yang Guo               : DLPNO-NEVPT2, CIM, IAO-localization
   Andreas Hansen         : Spin unrestricted coupled pair/coupled cluster methods
   Benjamin Helmich-Paris : CASSCF linear response (MC-RPA)
   Lee Huntington         : MR-EOM, pCC
   Robert Izsak           : Overlap fitted RIJCOSX, COSX-SCS-MP3, EOM
   Christian Kollmar      : KDIIS, OOCD, Brueckner-CCSD(T), CCSD density
   Simone Kossmann        : Meta GGA functionals, TD-DFT gradient, OOMP2, MP2 Hessian
   Martin Krupicka        : AUTO-CI
   Lucas Lang             : DCDCAS
   Dagmar Lenk            : GEPOL surface, SMD
   Dimitrios Liakos       : Extrapolation schemes; Compound Job, initial MDCI parallelization
   Dimitrios Manganas     : Further ROCIS development; embedding schemes
   Dimitrios Pantazis     : SARC Basis sets
   Taras Petrenko         : DFT Hessian,TD-DFT gradient, ASA, ECA, R-Raman, ABS, FL, XAS/XES, NRVS
   Peter Pinski           : DLPNO-MP2, DLPNO-MP2 Gradient
   Christoph Reimann      : Effective Core Potentials
   Marius Retegan         : Local ZFS, SOC
   Christoph Riplinger    : Optimizer, TS searches, QM/MM, DLPNO-CCSD(T), (RO)-DLPNO pert. Triples
   Tobias Risthaus        : Range-separated hybrids, TD-DFT gradient, RPA, STAB
   Michael Roemelt        : Original ROCIS implementation
   Masaaki Saitow         : Open-shell DLPNO-CCSD energy and density
   Barbara Sandhoefer     : DKH picture change effects
   Avijit Sen             : IP-ROCIS
   Kantharuban Sivalingam : CASSCF convergence, NEVPT2, FIC-MRCI
   Bernardo de Souza      : ESD, SOC TD-DFT
   Georgi Stoychev        : AutoAux, RI-MP2 NMR
   Willem Van den Heuvel  : Paramagnetic NMR
   Boris Wezisla          : Elementary symmetry handling
   Frank Wennmohs         : Technical directorship


 We gratefully acknowledge several colleagues who have allowed us to
 interface, adapt or use parts of their codes:
   Stefan Grimme, W. Hujo, H. Kruse,             : VdW corrections, initial TS optimization,
                  C. Bannwarth                     DFT functionals, gCP, sTDA/sTD-DF
   Ed Valeev, F. Pavosevic, A. Kumar             : LibInt (2-el integral package), F12 methods
   Garnet Chan, S. Sharma, J. Yang, R. Olivares  : DMRG
   Ulf Ekstrom                                   : XCFun DFT Library
   Mihaly Kallay                                 : mrcc  (arbitrary order and MRCC methods)
   Andreas Klamt, Michael Diedenhofen            : otool_cosmo (COSMO solvation model)
   Jiri Pittner, Ondrej Demel                    : Mk-CCSD
   Frank Weinhold                                : gennbo (NPA and NBO analysis)
   Christopher J. Cramer and Donald G. Truhlar   : smd solvation model
   Lars Goerigk                                  : TD-DFT with DH, B97 family of functionals
   V. Asgeirsson, H. Jonsson                     : NEB implementation
   FAccTs GmbH                                   : IRC, NEB, NEB-TS, Multilevel, MM, QM/MM, CI optimization
   S Lehtola, MJT Oliveira, MAL Marques          : LibXC Library


 Your calculation uses the libint2 library for the computation of 2-el integrals
 For citations please refer to: http://libint.valeyev.net

 Your ORCA version has been built with support for libXC version: 4.2.3
 For citations please refer to: https://tddft.org/programs/libxc/

 This ORCA versions uses:
   CBLAS   interface :  Fast vector & matrix operations
   LAPACKE interface :  Fast linear algebra routines
   SCALAPACK package :  Parallel linear algebra routines


Your calculation utilizes the atom-pairwise dispersion correction
with the zero-damping scheme (D30)
Cite in your paper:
S.Grimme, J.Antony, S.Ehrlich and H.Krieg, J.Chem.Phys., 132, (2010), 154104 
   

XCFun DFT library Copyright 2009-2010 Ulf Ekstrom and contributors.
See http://admol.org/xcfun for more information. This is free soft-
ware; see the source code for copying conditions. There is ABSOLUTELY
NO WARRANTY; not even for MERCHANTABILITY or FITNESS FOR A PARTICULAR
PURPOSE. For details see the documentation. Scientific users of this 
library should cite U. Ekstrom, L. Visscher, R. Bast, A. J. Thorvald-
sen and K. Ruud; J.Chem.Theor.Comp. 2010, DOI: 10.1021/ct100117s
XCFun Version 0.99 
----- Orbital basis set information -----
Your calculation utilizes the basis: def2-TZVPPD
   F. Weigend and R. Ahlrichs, Phys. Chem. Chem. Phys. 7, 3297 (2005).
   D. Rappoport and F. Furche, J. Chem. Phys. 133 134105 (2010).

----- AuxJK basis set information -----
Your calculation utilizes the auxiliary basis: def2/JK
   H-Ba, Hf-Rn: F. Weigend, J. Comput. Chem. 29, 167 (2008).

================================================================================
                                        WARNINGS
                       Please study these warnings very carefully!
================================================================================


WARNING: Minnesota functionals are quite sensitive to the integration grid.
         see SE Wheeler, KN Houk, JCTC 2010, 6, 395,
             N Mardirossian, M Head-Gordon, JCTC 2016, 12, 4303.
         Grid6 seems to be a minimum grid for reliable results with these functionals!
  ===> : Please increase the integration grid!


INFO   : the flag for use of LIBINT has been found!

================================================================================
                                       INPUT FILE
================================================================================
NAME = MOR03_c2h4.in
|  1> #
|  2> # MOR03_c2h4 M06-D3/Def2-TZVPPD
|  3> #
|  4> ! m06 d3zero def2-tzvppd def2/jk grid4 nofinalgrid
|  5> 
|  6> *xyz 0 1
|  7> C        0.000000    0.665348   -0.000001 
|  8> C        0.000000   -0.665348   -0.000001 
|  9> H       -0.924311    1.237390    0.000003 
| 10> H        0.924311    1.237390    0.000003 
| 11> H        0.924311   -1.237390    0.000003 
| 12> H       -0.924311   -1.237390    0.000003 
| 13> *
| 14> 
| 15> %maxcore 5000
| 16> 
| 17> %pal
| 18> nprocs = 24
| 19> end
| 20> 
| 21> 
| 22>                          ****END OF INPUT****
================================================================================

                       ****************************
                       * Single Point Calculation *
                       ****************************

---------------------------------
CARTESIAN COORDINATES (ANGSTROEM)
---------------------------------
  C      0.000000    0.665348   -0.000001
  C      0.000000   -0.665348   -0.000001
  H     -0.924311    1.237390    0.000003
  H      0.924311    1.237390    0.000003
  H      0.924311   -1.237390    0.000003
  H     -0.924311   -1.237390    0.000003

----------------------------
CARTESIAN COORDINATES (A.U.)
----------------------------
  NO LB      ZA    FRAG     MASS         X           Y           Z
   0 C     6.0000    0    12.011    0.000000    1.257326   -0.000002
   1 C     6.0000    0    12.011    0.000000   -1.257326   -0.000002
   2 H     1.0000    0     1.008   -1.746695    2.338328    0.000006
   3 H     1.0000    0     1.008    1.746695    2.338328    0.000006
   4 H     1.0000    0     1.008    1.746695   -2.338328    0.000006
   5 H     1.0000    0     1.008   -1.746695   -2.338328    0.000006

--------------------------------
INTERNAL COORDINATES (ANGSTROEM)
--------------------------------
 C      0   0   0     0.000000000000     0.00000000     0.00000000
 C      1   0   0     1.330696000000     0.00000000     0.00000000
 H      1   2   0     1.087006381996   121.75273403     0.00000000
 H      1   2   3     1.087006381996   121.75273403   179.99950410
 H      2   1   3     1.087006381996   121.75273403   180.00049590
 H      2   1   3     1.087006381996   121.75273403     0.00000000

---------------------------
INTERNAL COORDINATES (A.U.)
---------------------------
 C      0   0   0     0.000000000000     0.00000000     0.00000000
 C      1   0   0     2.514651007504     0.00000000     0.00000000
 H      1   2   0     2.054144367798   121.75273403     0.00000000
 H      1   2   3     2.054144367798   121.75273403   179.99950410
 H      2   1   3     2.054144367798   121.75273403   180.00049590
 H      2   1   3     2.054144367798   121.75273403     0.00000000

---------------------
BASIS SET INFORMATION
---------------------
There are 2 groups of distinct atoms

 Group   1 Type C   : 12s6p3d1f contracted to 6s3p3d1f pattern {621111/411/111/1}
 Group   2 Type H   : 5s3p1d contracted to 3s3p1d pattern {311/111/1}

Atom   0C    basis set group =>   1
Atom   1C    basis set group =>   1
Atom   2H    basis set group =>   2
Atom   3H    basis set group =>   2
Atom   4H    basis set group =>   2
Atom   5H    basis set group =>   2
----------------------------------
AUXILIARY/JK BASIS SET INFORMATION
----------------------------------
There are 2 groups of distinct atoms

 Group   1 Type C   : 14s10p6d2f1g contracted to 10s8p5d1f1g pattern {5111111111/31111111/21111/2/1}
 Group   2 Type H   : 4s2p2d contracted to 2s2p2d pattern {31/11/11}

Atom   0C    basis set group =>   1
Atom   1C    basis set group =>   1
Atom   2H    basis set group =>   2
Atom   3H    basis set group =>   2
Atom   4H    basis set group =>   2
Atom   5H    basis set group =>   2


           ************************************************************
           *        Program running with 24 parallel MPI-processes    *
           *              working on a common directory               *
           ************************************************************
------------------------------------------------------------------------------
                           ORCA GTO INTEGRAL CALCULATION
------------------------------------------------------------------------------

                         BASIS SET STATISTICS AND STARTUP INFO

 # of primitive gaussian shells          ...   80
 # of primitive gaussian functions       ...  180
 # of contracted shells                  ...   54
 # of contracted basis functions         ...  142
 Highest angular momentum                ...    3
 Maximum contraction depth               ...    6
 Integral package used                   ... LIBINT
 Integral threshhold            Thresh   ...  1.000e-10
 Primitive cut-off              TCut     ...  1.000e-11


------------------------------ INTEGRAL EVALUATION ----------------------------


 * One electron integrals 
 Pre-screening matrix                    ... done
 Shell pair data                         ... done (   0.000 sec)



           ************************************************************
           *        Program running with 24 parallel MPI-processes    *
           *              working on a common directory               *
           ************************************************************
-------------------------------------------------------------------------------
                                 ORCA SCF
-------------------------------------------------------------------------------

------------
SCF SETTINGS
------------
Hamiltonian:
 Density Functional     Method          .... DFT(GTOs)
 Exchange Functional    Exchange        .... M06
 Correlation Functional Correlation     .... M06
 Gradients option       PostSCFGGA      .... off
 Hybrid DFT is turned on
   Fraction HF Exchange ScalHFX         ....  0.270000
   Scaling of DF-GGA-X  ScalDFX         ....  0.730000
   Scaling of DF-GGA-C  ScalDFC         ....  1.000000
   Scaling of DF-LDA-C  ScalLDAC        ....  1.000000
   Perturbative correction              ....  0.000000
   Density functional embedding theory  .... OFF


General Settings:
 Integral files         IntName         .... MOR03_c2h4
 Hartree-Fock type      HFTyp           .... RHF
 Total Charge           Charge          ....    0
 Multiplicity           Mult            ....    1
 Number of Electrons    NEL             ....   16
 Basis Dimension        Dim             ....  142
 Nuclear Repulsion      ENuc            ....     33.3464005296 Eh

Convergence Acceleration:
 DIIS                   CNVDIIS         .... on
   Start iteration      DIISMaxIt       ....    12
   Startup error        DIISStart       ....  0.200000
   # of expansion vecs  DIISMaxEq       ....     5
   Bias factor          DIISBfac        ....   1.050
   Max. coefficient     DIISMaxC        ....  10.000
 Newton-Raphson         CNVNR           .... off
 SOSCF                  CNVSOSCF        .... on
   Start iteration      SOSCFMaxIt      ....   150
   Startup grad/error   SOSCFStart      ....  0.003300
 Level Shifting         CNVShift        .... on
   Level shift para.    LevelShift      ....    0.2500
   Turn off err/grad.   ShiftErr        ....    0.0010
 Zerner damping         CNVZerner       .... off
 Static damping         CNVDamp         .... on
   Fraction old density DampFac         ....    0.7000
   Max. Damping (<1)    DampMax         ....    0.9800
   Min. Damping (>=0)   DampMin         ....    0.0000
   Turn off err/grad.   DampErr         ....    0.1000
 Fernandez-Rico         CNVRico         .... off

SCF Procedure:
 Maximum # iterations   MaxIter         ....   125
 SCF integral mode      SCFMode         .... Direct
   Integral package                     .... LIBINT
 Reset frequency        DirectResetFreq ....    20
 Integral Threshold     Thresh          ....  1.000e-10 Eh
 Primitive CutOff       TCut            ....  1.000e-11 Eh

Convergence Tolerance:
 Convergence Check Mode ConvCheckMode   .... Total+1el-Energy
 Convergence forced     ConvForced      .... 0
 Energy Change          TolE            ....  1.000e-06 Eh
 1-El. energy change                    ....  1.000e-03 Eh
 Orbital Gradient       TolG            ....  5.000e-05
 Orbital Rotation angle TolX            ....  5.000e-05
 DIIS Error             TolErr          ....  1.000e-06


Diagonalization of the overlap matrix:
Smallest eigenvalue                        ... 1.182e-05
Time for diagonalization                   ...    0.006 sec
Threshold for overlap eigenvalues          ... 1.000e-08
Number of eigenvalues below threshold      ... 0
Time for construction of square roots      ...    0.003 sec
Total time needed                          ...    0.008 sec

-------------------
DFT GRID GENERATION
-------------------

General Integration Accuracy     IntAcc      ...  4.670
Radial Grid Type                 RadialGrid  ... Gauss-Chebyshev
Angular Grid (max. acc.)         AngularGrid ... Lebedev-302
Angular grid pruning method      GridPruning ... 3 (G Style)
Weight generation scheme         WeightScheme... Becke
Basis function cutoff            BFCut       ...    1.0000e-10
Integration weight cutoff        WCut        ...    1.0000e-14
Grids for H and He will be reduced by one unit

# of grid points (after initial pruning)     ...  26000 (   0.0 sec)
# of grid points (after weights+screening)   ...  25158 (   0.0 sec)
nearest neighbour list constructed           ...    0.0 sec
Grid point re-assignment to atoms done       ...    0.0 sec
Grid point division into batches done        ...    0.1 sec
Reduced shell lists constructed in    0.1 sec

Total number of grid points                  ...    25158
Total number of batches                      ...      396
Average number of points per batch           ...       63
Average number of grid points per atom       ...     4193
Average number of shells per batch           ...    47.06 (87.14%)
Average number of basis functions per batch  ...   127.06 (89.48%)
Average number of large shells per batch     ...    43.17 (91.74%)
Average number of large basis fcns per batch ...   116.94 (92.04%)
Maximum spatial batch extension              ...   3.19,  3.11, 18.71 au
Average spatial batch extension              ...   0.08,  0.07,  0.16 au

Time for grid setup =    0.145 sec

------------------------------
INITIAL GUESS: MODEL POTENTIAL
------------------------------
Loading Hartree-Fock densities                     ... done
Calculating cut-offs                               ... done
Setting up the integral package                    ... done
Initializing the effective Hamiltonian             ... done
Starting the Coulomb interaction                   ... done (   0.0 sec)
Reading the grid                                   ... done
Mapping shells                                     ... done
Starting the XC term evaluation                    ... done (   0.0 sec)
  promolecular density results
     # of electrons  =     15.998056115
     EX              =    -11.351991243
     EC              =     -0.488320883
     EX+EC           =    -11.840312126
Transforming the Hamiltonian                       ... done (   0.0 sec)
Diagonalizing the Hamiltonian                      ... done (   0.0 sec)
Back transforming the eigenvectors                 ... done (   0.0 sec)
Now organizing SCF variables                       ... done
                      ------------------
                      INITIAL GUESS DONE (   0.2 sec)
                      ------------------
--------------
SCF ITERATIONS
--------------
ITER       Energy         Delta-E        Max-DP      RMS-DP      [F,P]     Damp
               ***  Starting incremental Fock matrix formation  ***
  0    -78.4708319673   0.000000000000 0.08341989  0.00281858  0.1626099 0.7000
  1    -78.5063448095  -0.035512842162 0.09981978  0.00283520  0.0879765 0.7000
                               ***Turning on DIIS***
  2    -78.5216596841  -0.015314874677 0.28091679  0.00707649  0.0353698 0.0000
  3    -78.5421890863  -0.020529402182 0.03492093  0.00102752  0.0476066 0.0000
  4    -78.5486003130  -0.006411226667 0.02290971  0.00051563  0.0092328 0.0000
                      *** Initiating the SOSCF procedure ***
                           *** Shutting down DIIS ***
                      *** Re-Reading the Fockian *** 
                      *** Removing any level shift *** 
ITER      Energy       Delta-E        Grad      Rot      Max-DP    RMS-DP
  5    -78.54887104  -0.0002707288  0.000864  0.000864  0.010924  0.000202
               *** Restarting incremental Fock matrix formation ***
  6    -78.54888461  -0.0000135686  0.000377  0.000903  0.005063  0.000127
  7    -78.54888513  -0.0000005211  0.000218  0.000159  0.000416  0.000017
                 **** Energy Check signals convergence ****
              ***Rediagonalizing the Fockian in SOSCF/NRSCF***

               *****************************************************
               *                     SUCCESS                       *
               *           SCF CONVERGED AFTER   8 CYCLES          *
               *****************************************************


----------------
TOTAL SCF ENERGY
----------------

Total Energy       :          -78.54888586 Eh           -2137.42385 eV

Components:
Nuclear Repulsion  :           33.34640053 Eh             907.40169 eV
Electronic Energy  :         -111.89528639 Eh           -3044.82554 eV
One Electron Energy:         -170.32439729 Eh           -4634.76248 eV
Two Electron Energy:           58.42911090 Eh            1589.93694 eV

Virial components:
Potential Energy   :         -156.64295059 Eh           -4262.47139 eV
Kinetic Energy     :           78.09406472 Eh            2125.04754 eV
Virial Ratio       :            2.00582402


DFT components:
N(Alpha)           :        8.000025261284 electrons
N(Beta)            :        8.000025261284 electrons
N(Total)           :       16.000050522567 electrons
E(XC)              :       -9.063392410138 Eh       
DFET-embed. en.    :        0.000000000000 Eh       

---------------
SCF CONVERGENCE
---------------

  Last Energy change         ...   -7.3102e-07  Tolerance :   1.0000e-06
  Last MAX-Density change    ...    4.4906e-04  Tolerance :   1.0000e-05
  Last RMS-Density change    ...    1.3720e-05  Tolerance :   1.0000e-06
  Last Orbital Gradient      ...    2.2510e-05  Tolerance :   5.0000e-05
  Last Orbital Rotation      ...    4.0898e-05  Tolerance :   5.0000e-05

             **** THE GBW FILE WAS UPDATED (MOR03_c2h4.gbw) ****
             **** DENSITY FILE WAS UPDATED (MOR03_c2h4.scfp) ****
             **** ENERGY FILE WAS UPDATED (MOR03_c2h4.en.tmp) ****
             **** THE GBW FILE WAS UPDATED (MOR03_c2h4.gbw) ****
             **** DENSITY FILE WAS UPDATED (MOR03_c2h4.scfp) ****
----------------
ORBITAL ENERGIES
----------------

  NO   OCC          E(Eh)            E(eV) 
   0   2.0000     -10.236437      -278.5476 
   1   2.0000     -10.235516      -278.5225 
   2   2.0000      -0.771020       -20.9805 
   3   2.0000      -0.589420       -16.0389 
   4   2.0000      -0.480719       -13.0810 
   5   2.0000      -0.432670       -11.7736 
   6   2.0000      -0.365398        -9.9430 
   7   2.0000      -0.288574        -7.8525 
   8   0.0000      -0.011498        -0.3129 
   9   0.0000      -0.000030        -0.0008 
  10   0.0000       0.000039         0.0011 
  11   0.0000       0.032354         0.8804 
  12   0.0000       0.065873         1.7925 
  13   0.0000       0.080616         2.1937 
  14   0.0000       0.103117         2.8060 
  15   0.0000       0.125727         3.4212 
  16   0.0000       0.128060         3.4847 
  17   0.0000       0.142002         3.8641 
  18   0.0000       0.155048         4.2191 
  19   0.0000       0.166841         4.5400 
  20   0.0000       0.168076         4.5736 
  21   0.0000       0.194297         5.2871 
  22   0.0000       0.215158         5.8547 
  23   0.0000       0.223801         6.0899 
  24   0.0000       0.225495         6.1360 
  25   0.0000       0.260953         7.1009 
  26   0.0000       0.264219         7.1898 
  27   0.0000       0.269606         7.3363 
  28   0.0000       0.321141         8.7387 
  29   0.0000       0.323499         8.8029 
  30   0.0000       0.325896         8.8681 
  31   0.0000       0.327283         8.9058 
  32   0.0000       0.341275         9.2866 
  33   0.0000       0.345760         9.4086 
  34   0.0000       0.352740         9.5985 
  35   0.0000       0.376763        10.2522 
  36   0.0000       0.380439        10.3523 
  37   0.0000       0.399021        10.8579 
  38   0.0000       0.421432        11.4677 
  39   0.0000       0.433319        11.7912 
  40   0.0000       0.441426        12.0118 
  41   0.0000       0.505696        13.7607 
  42   0.0000       0.514292        13.9946 
  43   0.0000       0.605819        16.4852 
  44   0.0000       0.639293        17.3960 
  45   0.0000       0.651990        17.7415 
  46   0.0000       0.677514        18.4361 
  47   0.0000       0.687747        18.7145 
  48   0.0000       0.707298        19.2466 
  49   0.0000       0.718482        19.5509 
  50   0.0000       0.744838        20.2681 
  51   0.0000       0.765294        20.8247 
  52   0.0000       0.848918        23.1002 
  53   0.0000       0.871186        23.7062 
  54   0.0000       0.912800        24.8385 
  55   0.0000       0.967678        26.3319 
  56   0.0000       0.999777        27.2053 
  57   0.0000       1.027968        27.9724 
  58   0.0000       1.065902        29.0047 
  59   0.0000       1.097371        29.8610 
  60   0.0000       1.105052        30.0700 
  61   0.0000       1.195821        32.5399 
  62   0.0000       1.239183        33.7199 
  63   0.0000       1.307977        35.5919 
  64   0.0000       1.336102        36.3572 
  65   0.0000       1.343149        36.5489 
  66   0.0000       1.397160        38.0187 
  67   0.0000       1.427508        38.8445 
  68   0.0000       1.429321        38.8938 
  69   0.0000       1.475565        40.1522 
  70   0.0000       1.563836        42.5541 
  71   0.0000       1.694771        46.1171 
  72   0.0000       1.696671        46.1688 
  73   0.0000       1.698324        46.2138 
  74   0.0000       1.742047        47.4035 
  75   0.0000       1.797477        48.9118 
  76   0.0000       2.044088        55.6225 
  77   0.0000       2.059974        56.0547 
  78   0.0000       2.094607        56.9971 
  79   0.0000       2.207160        60.0599 
  80   0.0000       2.467778        67.1517 
  81   0.0000       2.497346        67.9562 
  82   0.0000       2.617434        71.2240 
  83   0.0000       2.725410        74.1622 
  84   0.0000       2.737018        74.4781 
  85   0.0000       2.741479        74.5994 
  86   0.0000       2.744318        74.6767 
  87   0.0000       2.763754        75.2056 
  88   0.0000       2.763895        75.2094 
  89   0.0000       2.793083        76.0037 
  90   0.0000       2.853412        77.6453 
  91   0.0000       2.879048        78.3429 
  92   0.0000       2.951272        80.3082 
  93   0.0000       2.970730        80.8377 
  94   0.0000       3.103137        84.4407 
  95   0.0000       3.138306        85.3976 
  96   0.0000       3.167806        86.2004 
  97   0.0000       3.227415        87.8224 
  98   0.0000       3.297206        89.7215 
  99   0.0000       3.312973        90.1506 
 100   0.0000       3.352144        91.2165 
 101   0.0000       3.368388        91.6585 
 102   0.0000       3.417542        92.9961 
 103   0.0000       3.455256        94.0223 
 104   0.0000       3.603148        98.0467 
 105   0.0000       3.661246        99.6276 
 106   0.0000       3.669683        99.8572 
 107   0.0000       3.684304       100.2550 
 108   0.0000       3.696274       100.5807 
 109   0.0000       3.722626       101.2978 
 110   0.0000       3.806809       103.5885 
 111   0.0000       3.821000       103.9747 
 112   0.0000       3.916439       106.5717 
 113   0.0000       3.946828       107.3987 
 114   0.0000       3.981768       108.3494 
 115   0.0000       3.985115       108.4405 
 116   0.0000       4.039712       109.9262 
 117   0.0000       4.153656       113.0267 
 118   0.0000       4.184741       113.8726 
 119   0.0000       4.245800       115.5341 
 120   0.0000       4.292743       116.8115 
 121   0.0000       4.338667       118.0611 
 122   0.0000       4.413751       120.1043 
 123   0.0000       4.487395       122.1082 
 124   0.0000       4.544224       123.6546 
 125   0.0000       4.587430       124.8303 
 126   0.0000       4.615555       125.5956 
 127   0.0000       4.760200       129.5316 
 128   0.0000       4.877113       132.7130 
 129   0.0000       4.898607       133.2979 
 130   0.0000       4.917710       133.8177 
 131   0.0000       5.039218       137.1241 
 132   0.0000       5.050504       137.4312 
 133   0.0000       5.153338       140.2295 
 134   0.0000       5.308735       144.4580 
 135   0.0000       5.390676       146.6878 
 136   0.0000       5.399854       146.9375 
 137   0.0000       5.638635       153.4351 
 138   0.0000       5.814784       158.2283 
 139   0.0000       6.322618       172.0472 
 140   0.0000      23.146083       629.8369 
 141   0.0000      23.735132       645.8658 

                    ********************************
                    * MULLIKEN POPULATION ANALYSIS *
                    ********************************

-----------------------
MULLIKEN ATOMIC CHARGES
-----------------------
   0 C :   -0.935263
   1 C :   -0.935273
   2 H :    0.467634
   3 H :    0.467633
   4 H :    0.467633
   5 H :    0.467635
Sum of atomic charges:    0.0000000

--------------------------------
MULLIKEN REDUCED ORBITAL CHARGES
--------------------------------
  0 C s       :     3.690287  s :     3.690287
      pz      :     0.944877  p :     3.275688
      px      :     1.297143
      py      :     1.033669
      dz2     :     0.000714  d :    -0.034196
      dxz     :     0.000000
      dyz     :     0.014883
      dx2y2   :     0.022537
      dxy     :    -0.072330
      f0      :     0.001008  f :     0.003484
      f+1     :     0.000173
      f-1     :     0.000291
      f+2     :     0.000735
      f-2     :    -0.000000
      f+3     :     0.001297
      f-3     :    -0.000021
  1 C s       :     3.690294  s :     3.690294
      pz      :     0.944877  p :     3.275692
      px      :     1.297143
      py      :     1.033672
      dz2     :     0.000714  d :    -0.034197
      dxz     :     0.000000
      dyz     :     0.014883
      dx2y2   :     0.022537
      dxy     :    -0.072330
      f0      :     0.001008  f :     0.003484
      f+1     :     0.000173
      f-1     :     0.000291
      f+2     :     0.000735
      f-2     :    -0.000000
      f+3     :     0.001297
      f-3     :    -0.000021
  2 H s       :     0.483244  s :     0.483244
      pz      :     0.018252  p :     0.047610
      px      :     0.005056
      py      :     0.024301
      dz2     :    -0.000162  d :     0.001512
      dxz     :     0.000636
      dyz     :     0.000360
      dx2y2   :     0.000738
      dxy     :    -0.000061
  3 H s       :     0.483245  s :     0.483245
      pz      :     0.018252  p :     0.047610
      px      :     0.005057
      py      :     0.024301
      dz2     :    -0.000162  d :     0.001512
      dxz     :     0.000636
      dyz     :     0.000360
      dx2y2   :     0.000738
      dxy     :    -0.000061
  4 H s       :     0.483246  s :     0.483246
      pz      :     0.018252  p :     0.047610
      px      :     0.005057
      py      :     0.024301
      dz2     :    -0.000162  d :     0.001512
      dxz     :     0.000636
      dyz     :     0.000360
      dx2y2   :     0.000738
      dxy     :    -0.000061
  5 H s       :     0.483243  s :     0.483243
      pz      :     0.018252  p :     0.047610
      px      :     0.005056
      py      :     0.024301
      dz2     :    -0.000162  d :     0.001512
      dxz     :     0.000636
      dyz     :     0.000360
      dx2y2   :     0.000738
      dxy     :    -0.000061


                     *******************************
                     * LOEWDIN POPULATION ANALYSIS *
                     *******************************

----------------------
LOEWDIN ATOMIC CHARGES
----------------------
   0 C :    0.091981
   1 C :    0.091981
   2 H :   -0.045990
   3 H :   -0.045990
   4 H :   -0.045990
   5 H :   -0.045990

-------------------------------
LOEWDIN REDUCED ORBITAL CHARGES
-------------------------------
  0 C s       :     2.722740  s :     2.722740
      pz      :     0.756559  p :     2.715059
      px      :     0.946446
      py      :     1.012054
      dz2     :     0.040674  d :     0.441576
      dxz     :     0.000000
      dyz     :     0.057229
      dx2y2   :     0.107105
      dxy     :     0.236569
      f0      :     0.001150  f :     0.028644
      f+1     :     0.002194
      f-1     :     0.003645
      f+2     :     0.004953
      f-2     :     0.000000
      f+3     :     0.009307
      f-3     :     0.007394
  1 C s       :     2.722740  s :     2.722740
      pz      :     0.756559  p :     2.715059
      px      :     0.946446
      py      :     1.012054
      dz2     :     0.040674  d :     0.441576
      dxz     :     0.000000
      dyz     :     0.057229
      dx2y2   :     0.107105
      dxy     :     0.236569
      f0      :     0.001150  f :     0.028644
      f+1     :     0.002194
      f-1     :     0.003645
      f+2     :     0.004953
      f-2     :     0.000000
      f+3     :     0.009307
      f-3     :     0.007394
  2 H s       :     0.729249  s :     0.729249
      pz      :     0.081662  p :     0.287737
      px      :     0.122496
      py      :     0.083579
      dz2     :     0.002673  d :     0.029005
      dxz     :     0.005806
      dyz     :     0.002587
      dx2y2   :     0.009448
      dxy     :     0.008492
  3 H s       :     0.729249  s :     0.729249
      pz      :     0.081662  p :     0.287737
      px      :     0.122496
      py      :     0.083579
      dz2     :     0.002673  d :     0.029005
      dxz     :     0.005806
      dyz     :     0.002587
      dx2y2   :     0.009448
      dxy     :     0.008492
  4 H s       :     0.729249  s :     0.729249
      pz      :     0.081662  p :     0.287737
      px      :     0.122496
      py      :     0.083579
      dz2     :     0.002673  d :     0.029005
      dxz     :     0.005806
      dyz     :     0.002587
      dx2y2   :     0.009448
      dxy     :     0.008492
  5 H s       :     0.729249  s :     0.729249
      pz      :     0.081662  p :     0.287737
      px      :     0.122496
      py      :     0.083579
      dz2     :     0.002673  d :     0.029005
      dxz     :     0.005806
      dyz     :     0.002587
      dx2y2   :     0.009448
      dxy     :     0.008492


                      *****************************
                      * MAYER POPULATION ANALYSIS *
                      *****************************

  NA   - Mulliken gross atomic population
  ZA   - Total nuclear charge
  QA   - Mulliken gross atomic charge
  VA   - Mayer's total valence
  BVA  - Mayer's bonded valence
  FA   - Mayer's free valence

  ATOM       NA         ZA         QA         VA         BVA        FA
  0 C      6.9353     6.0000    -0.9353     2.7528     2.7528     0.0000
  1 C      6.9353     6.0000    -0.9353     2.7528     2.7528     0.0000
  2 H      0.5324     1.0000     0.4676     0.7806     0.7806     0.0000
  3 H      0.5324     1.0000     0.4676     0.7806     0.7806     0.0000
  4 H      0.5324     1.0000     0.4676     0.7806     0.7806     0.0000
  5 H      0.5324     1.0000     0.4676     0.7806     0.7806     0.0000

  Mayer bond orders larger than 0.100000
B(  0-C ,  1-C ) :   1.2946 B(  0-C ,  2-H ) :   0.7661 B(  0-C ,  3-H ) :   0.7661 
B(  1-C ,  4-H ) :   0.7661 B(  1-C ,  5-H ) :   0.7661 

-------
TIMINGS
-------

Total SCF time: 0 days 0 hours 0 min 2 sec 

Total time                  ....       2.171 sec
Sum of individual times     ....       1.984 sec  ( 91.4%)

Fock matrix formation       ....       1.713 sec  ( 78.9%)
  XC integration            ....       0.360 sec  ( 21.0% of F)
    Basis function eval.    ....       0.030 sec  (  8.2% of XC)
    Density eval.           ....       0.048 sec  ( 13.3% of XC)
    XC-Functional eval.     ....       0.063 sec  ( 17.4% of XC)
    XC-Potential eval.      ....       0.110 sec  ( 30.6% of XC)
Diagonalization             ....       0.016 sec  (  0.8%)
Density matrix formation    ....       0.003 sec  (  0.2%)
Population analysis         ....       0.004 sec  (  0.2%)
Initial guess               ....       0.092 sec  (  4.2%)
Orbital Transformation      ....       0.000 sec  (  0.0%)
Orbital Orthonormalization  ....       0.000 sec  (  0.0%)
DIIS solution               ....       0.005 sec  (  0.2%)
SOSCF solution              ....       0.005 sec  (  0.2%)
Grid generation             ....       0.145 sec  (  6.7%)


-------------------------------------------------------------------------------
                          DFT DISPERSION CORRECTION                            
                                                                               
                              DFTD3 V3.1  Rev 1                                
                              USING zero damping                               
-------------------------------------------------------------------------------
The M06 functional is recognized
Active option DFTDOPT                   ...         3   

molecular C6(AA) [au] = 294.501244 


            DFT-D V3
 parameters
 s6 scaling factor         :     1.0000 
 rs6 scaling factor        :     1.3250 
 s8 scaling factor         :     0.0000 
 rs8 scaling factor        :     1.0000 
 Damping factor alpha6     :    14.0000 
 Damping factor alpha8     :    16.0000 
 ad hoc parameters k1-k3   :    16.0000     1.3333    -4.0000 

 Edisp/kcal,au: -0.038847731867  -0.000061907795 
 E6   /kcal   :  -0.038847732 
 E8   /kcal   :  -0.000000000 
 % E8         :   0.000000000 

-------------------------   ----------------
Dispersion correction           -0.000061908
-------------------------   ----------------


-------------------------   --------------------
FINAL SINGLE POINT ENERGY       -78.548947770217
-------------------------   --------------------


                            ***************************************
                            *     ORCA property calculations      *
                            ***************************************

                                    ---------------------
                                    Active property flags
                                    ---------------------
   (+) Dipole Moment


------------------------------------------------------------------------------
                       ORCA ELECTRIC PROPERTIES CALCULATION
------------------------------------------------------------------------------

Dipole Moment Calculation                       ... on
Quadrupole Moment Calculation                   ... off
Polarizability Calculation                      ... off
GBWName                                         ... MOR03_c2h4.gbw
Electron density file                           ... MOR03_c2h4.scfp
The origin for moment calculation is the CENTER OF MASS  = ( 0.000000,  0.000000 -0.000001)

-------------
DIPOLE MOMENT
-------------
                                X             Y             Z
Electronic contribution:      0.00000       0.00000      -0.00001
Nuclear contribution   :      0.00000       0.00000       0.00001
                        -----------------------------------------
Total Dipole Moment    :      0.00000       0.00000       0.00000
                        -----------------------------------------
Magnitude (a.u.)       :      0.00000
Magnitude (Debye)      :      0.00001



--------------------
Rotational spectrum 
--------------------
 
Rotational constants in cm-1:     4.893731     1.002967     0.832372 
Rotational constants in MHz : 146710.378489 30068.182911 24953.899728 

 Dipole components along the rotational axes: 
x,y,z [a.u.] :     0.000000     0.000000     0.000004 
x,y,z [Debye]:     0.000000     0.000000     0.000011 

 

Timings for individual modules:

Sum of individual times         ...        3.163 sec (=   0.053 min)
GTO integral calculation        ...        0.634 sec (=   0.011 min)  20.0 %
SCF iterations                  ...        2.529 sec (=   0.042 min)  80.0 %
                             ****ORCA TERMINATED NORMALLY****
TOTAL RUN TIME: 0 days 0 hours 0 minutes 3 seconds 651 msec
