
                                 *****************
                                 * O   R   C   A *
                                 *****************

           --- An Ab Initio, DFT and Semiempirical electronic structure package ---

                  #######################################################
                  #                        -***-                        #
                  #          Department of theory and spectroscopy      #
                  #               Directorship: Frank Neese             #
                  #        Max Planck Institute fuer Kohlenforschung    #
                  #                Kaiser Wilhelm Platz 1               #
                  #                 D-45470 Muelheim/Ruhr               #
                  #                      Germany                        #
                  #                                                     #
                  #                  All rights reserved                #
                  #                        -***-                        #
                  #######################################################


                         Program Version 4.2.0 -  RELEASE  -


 With contributions from (in alphabetic order):
   Daniel Aravena         : Magnetic Suceptibility
   Michael Atanasov       : Ab Initio Ligand Field Theory (pilot matlab implementation)
   Alexander A. Auer      : GIAO ZORA, VPT2
   Ute Becker             : Parallelization
   Giovanni Bistoni       : ED, misc. LED, open-shell LED, HFLED
   Martin Brehm           : Molecular dynamics
   Dmytro Bykov           : SCF Hessian
   Vijay G. Chilkuri      : MRCI spin determinant printing, contributions to CSF-ICE
   Dipayan Datta          : RHF DLPNO-CCSD density
   Achintya Kumar Dutta   : EOM-CC, STEOM-CC
   Dmitry Ganyushin       : Spin-Orbit,Spin-Spin,Magnetic field MRCI
   Miquel Garcia          : C-PCM Hessian, Gaussian charge scheme
   Yang Guo               : DLPNO-NEVPT2, CIM, IAO-localization
   Andreas Hansen         : Spin unrestricted coupled pair/coupled cluster methods
   Benjamin Helmich-Paris : CASSCF linear response (MC-RPA)
   Lee Huntington         : MR-EOM, pCC
   Robert Izsak           : Overlap fitted RIJCOSX, COSX-SCS-MP3, EOM
   Christian Kollmar      : KDIIS, OOCD, Brueckner-CCSD(T), CCSD density
   Simone Kossmann        : Meta GGA functionals, TD-DFT gradient, OOMP2, MP2 Hessian
   Martin Krupicka        : AUTO-CI
   Lucas Lang             : DCDCAS
   Dagmar Lenk            : GEPOL surface, SMD
   Dimitrios Liakos       : Extrapolation schemes; Compound Job, initial MDCI parallelization
   Dimitrios Manganas     : Further ROCIS development; embedding schemes
   Dimitrios Pantazis     : SARC Basis sets
   Taras Petrenko         : DFT Hessian,TD-DFT gradient, ASA, ECA, R-Raman, ABS, FL, XAS/XES, NRVS
   Peter Pinski           : DLPNO-MP2, DLPNO-MP2 Gradient
   Christoph Reimann      : Effective Core Potentials
   Marius Retegan         : Local ZFS, SOC
   Christoph Riplinger    : Optimizer, TS searches, QM/MM, DLPNO-CCSD(T), (RO)-DLPNO pert. Triples
   Tobias Risthaus        : Range-separated hybrids, TD-DFT gradient, RPA, STAB
   Michael Roemelt        : Original ROCIS implementation
   Masaaki Saitow         : Open-shell DLPNO-CCSD energy and density
   Barbara Sandhoefer     : DKH picture change effects
   Avijit Sen             : IP-ROCIS
   Kantharuban Sivalingam : CASSCF convergence, NEVPT2, FIC-MRCI
   Bernardo de Souza      : ESD, SOC TD-DFT
   Georgi Stoychev        : AutoAux, RI-MP2 NMR
   Willem Van den Heuvel  : Paramagnetic NMR
   Boris Wezisla          : Elementary symmetry handling
   Frank Wennmohs         : Technical directorship


 We gratefully acknowledge several colleagues who have allowed us to
 interface, adapt or use parts of their codes:
   Stefan Grimme, W. Hujo, H. Kruse,             : VdW corrections, initial TS optimization,
                  C. Bannwarth                     DFT functionals, gCP, sTDA/sTD-DF
   Ed Valeev, F. Pavosevic, A. Kumar             : LibInt (2-el integral package), F12 methods
   Garnet Chan, S. Sharma, J. Yang, R. Olivares  : DMRG
   Ulf Ekstrom                                   : XCFun DFT Library
   Mihaly Kallay                                 : mrcc  (arbitrary order and MRCC methods)
   Andreas Klamt, Michael Diedenhofen            : otool_cosmo (COSMO solvation model)
   Jiri Pittner, Ondrej Demel                    : Mk-CCSD
   Frank Weinhold                                : gennbo (NPA and NBO analysis)
   Christopher J. Cramer and Donald G. Truhlar   : smd solvation model
   Lars Goerigk                                  : TD-DFT with DH, B97 family of functionals
   V. Asgeirsson, H. Jonsson                     : NEB implementation
   FAccTs GmbH                                   : IRC, NEB, NEB-TS, Multilevel, MM, QM/MM, CI optimization
   S Lehtola, MJT Oliveira, MAL Marques          : LibXC Library


 Your calculation uses the libint2 library for the computation of 2-el integrals
 For citations please refer to: http://libint.valeyev.net

 Your ORCA version has been built with support for libXC version: 4.2.3
 For citations please refer to: https://tddft.org/programs/libxc/

 This ORCA versions uses:
   CBLAS   interface :  Fast vector & matrix operations
   LAPACKE interface :  Fast linear algebra routines
   SCALAPACK package :  Parallel linear algebra routines


Your calculation utilizes the atom-pairwise dispersion correction
with the zero-damping scheme (D30)
Cite in your paper:
S.Grimme, J.Antony, S.Ehrlich and H.Krieg, J.Chem.Phys., 132, (2010), 154104 
   

XCFun DFT library Copyright 2009-2010 Ulf Ekstrom and contributors.
See http://admol.org/xcfun for more information. This is free soft-
ware; see the source code for copying conditions. There is ABSOLUTELY
NO WARRANTY; not even for MERCHANTABILITY or FITNESS FOR A PARTICULAR
PURPOSE. For details see the documentation. Scientific users of this 
library should cite U. Ekstrom, L. Visscher, R. Bast, A. J. Thorvald-
sen and K. Ruud; J.Chem.Theor.Comp. 2010, DOI: 10.1021/ct100117s
XCFun Version 0.99 
----- Orbital basis set information -----
Your calculation utilizes the basis: def2-TZVPPD
   F. Weigend and R. Ahlrichs, Phys. Chem. Chem. Phys. 7, 3297 (2005).
   D. Rappoport and F. Furche, J. Chem. Phys. 133 134105 (2010).

----- AuxJK basis set information -----
Your calculation utilizes the auxiliary basis: def2/JK
   H-Ba, Hf-Rn: F. Weigend, J. Comput. Chem. 29, 167 (2008).

================================================================================
                                        WARNINGS
                       Please study these warnings very carefully!
================================================================================


WARNING: Minnesota functionals are quite sensitive to the integration grid.
         see SE Wheeler, KN Houk, JCTC 2010, 6, 395,
             N Mardirossian, M Head-Gordon, JCTC 2016, 12, 4303.
         Grid6 seems to be a minimum grid for reliable results with these functionals!
  ===> : Please increase the integration grid!


INFO   : the flag for use of LIBINT has been found!

================================================================================
                                       INPUT FILE
================================================================================
NAME = MOR05_co.in
|  1> #
|  2> # MOR05_co M06-D3/Def2-TZVPPD
|  3> #
|  4> ! m06 d3zero def2-tzvppd def2/jk grid4 nofinalgrid
|  5> 
|  6> *xyz 0 1
|  7> O        0.000000    0.000000    0.486237 
|  8> C        0.000000    0.000000   -0.648315 
|  9> *
| 10> 
| 11> %maxcore 5000
| 12> 
| 13> %pal
| 14> nprocs = 24
| 15> end
| 16> 
| 17> 
| 18>                          ****END OF INPUT****
================================================================================

                       ****************************
                       * Single Point Calculation *
                       ****************************

---------------------------------
CARTESIAN COORDINATES (ANGSTROEM)
---------------------------------
  O      0.000000    0.000000    0.486237
  C      0.000000    0.000000   -0.648315

----------------------------
CARTESIAN COORDINATES (A.U.)
----------------------------
  NO LB      ZA    FRAG     MASS         X           Y           Z
   0 O     8.0000    0    15.999    0.000000    0.000000    0.918855
   1 C     6.0000    0    12.011    0.000000    0.000000   -1.225138

--------------------------------
INTERNAL COORDINATES (ANGSTROEM)
--------------------------------
 O      0   0   0     0.000000000000     0.00000000     0.00000000
 C      1   0   0     1.134552000000     0.00000000     0.00000000

---------------------------
INTERNAL COORDINATES (A.U.)
---------------------------
 O      0   0   0     0.000000000000     0.00000000     0.00000000
 C      1   0   0     2.143992564693     0.00000000     0.00000000

---------------------
BASIS SET INFORMATION
---------------------
There are 2 groups of distinct atoms

 Group   1 Type O   : 12s7p3d1f contracted to 6s4p3d1f pattern {621111/4111/111/1}
 Group   2 Type C   : 12s6p3d1f contracted to 6s3p3d1f pattern {621111/411/111/1}

Atom   0O    basis set group =>   1
Atom   1C    basis set group =>   2
----------------------------------
AUXILIARY/JK BASIS SET INFORMATION
----------------------------------
There are 2 groups of distinct atoms

 Group   1 Type O   : 14s10p6d2f1g contracted to 10s8p4d2f1g pattern {5111111111/31111111/3111/11/1}
 Group   2 Type C   : 14s10p6d2f1g contracted to 10s8p5d1f1g pattern {5111111111/31111111/21111/2/1}

Atom   0O    basis set group =>   1
Atom   1C    basis set group =>   2


           ************************************************************
           *        Program running with 24 parallel MPI-processes    *
           *              working on a common directory               *
           ************************************************************
------------------------------------------------------------------------------
                           ORCA GTO INTEGRAL CALCULATION
------------------------------------------------------------------------------

                         BASIS SET STATISTICS AND STARTUP INFO

 # of primitive gaussian shells          ...   45
 # of primitive gaussian functions       ...  107
 # of contracted shells                  ...   27
 # of contracted basis functions         ...   77
 Highest angular momentum                ...    3
 Maximum contraction depth               ...    6
 Integral package used                   ... LIBINT
 Integral threshhold            Thresh   ...  1.000e-10
 Primitive cut-off              TCut     ...  1.000e-11


------------------------------ INTEGRAL EVALUATION ----------------------------


 * One electron integrals 
 Pre-screening matrix                    ... done
 Shell pair data                         ... done (   0.000 sec)



           ************************************************************
           *        Program running with 24 parallel MPI-processes    *
           *              working on a common directory               *
           ************************************************************
-------------------------------------------------------------------------------
                                 ORCA SCF
-------------------------------------------------------------------------------

------------
SCF SETTINGS
------------
Hamiltonian:
 Density Functional     Method          .... DFT(GTOs)
 Exchange Functional    Exchange        .... M06
 Correlation Functional Correlation     .... M06
 Gradients option       PostSCFGGA      .... off
 Hybrid DFT is turned on
   Fraction HF Exchange ScalHFX         ....  0.270000
   Scaling of DF-GGA-X  ScalDFX         ....  0.730000
   Scaling of DF-GGA-C  ScalDFC         ....  1.000000
   Scaling of DF-LDA-C  ScalLDAC        ....  1.000000
   Perturbative correction              ....  0.000000
   Density functional embedding theory  .... OFF


General Settings:
 Integral files         IntName         .... MOR05_co
 Hartree-Fock type      HFTyp           .... RHF
 Total Charge           Charge          ....    0
 Multiplicity           Mult            ....    1
 Number of Electrons    NEL             ....   14
 Basis Dimension        Dim             ....   77
 Nuclear Repulsion      ENuc            ....     22.3881373427 Eh

Convergence Acceleration:
 DIIS                   CNVDIIS         .... on
   Start iteration      DIISMaxIt       ....    12
   Startup error        DIISStart       ....  0.200000
   # of expansion vecs  DIISMaxEq       ....     5
   Bias factor          DIISBfac        ....   1.050
   Max. coefficient     DIISMaxC        ....  10.000
 Newton-Raphson         CNVNR           .... off
 SOSCF                  CNVSOSCF        .... on
   Start iteration      SOSCFMaxIt      ....   150
   Startup grad/error   SOSCFStart      ....  0.003300
 Level Shifting         CNVShift        .... on
   Level shift para.    LevelShift      ....    0.2500
   Turn off err/grad.   ShiftErr        ....    0.0010
 Zerner damping         CNVZerner       .... off
 Static damping         CNVDamp         .... on
   Fraction old density DampFac         ....    0.7000
   Max. Damping (<1)    DampMax         ....    0.9800
   Min. Damping (>=0)   DampMin         ....    0.0000
   Turn off err/grad.   DampErr         ....    0.1000
 Fernandez-Rico         CNVRico         .... off

SCF Procedure:
 Maximum # iterations   MaxIter         ....   125
 SCF integral mode      SCFMode         .... Direct
   Integral package                     .... LIBINT
 Reset frequency        DirectResetFreq ....    20
 Integral Threshold     Thresh          ....  1.000e-10 Eh
 Primitive CutOff       TCut            ....  1.000e-11 Eh

Convergence Tolerance:
 Convergence Check Mode ConvCheckMode   .... Total+1el-Energy
 Convergence forced     ConvForced      .... 0
 Energy Change          TolE            ....  1.000e-06 Eh
 1-El. energy change                    ....  1.000e-03 Eh
 Orbital Gradient       TolG            ....  5.000e-05
 Orbital Rotation angle TolX            ....  5.000e-05
 DIIS Error             TolErr          ....  1.000e-06


Diagonalization of the overlap matrix:
Smallest eigenvalue                        ... 2.208e-04
Time for diagonalization                   ...    0.003 sec
Threshold for overlap eigenvalues          ... 1.000e-08
Number of eigenvalues below threshold      ... 0
Time for construction of square roots      ...    0.001 sec
Total time needed                          ...    0.004 sec

-------------------
DFT GRID GENERATION
-------------------

General Integration Accuracy     IntAcc      ...  4.670
Radial Grid Type                 RadialGrid  ... Gauss-Chebyshev
Angular Grid (max. acc.)         AngularGrid ... Lebedev-302
Angular grid pruning method      GridPruning ... 3 (G Style)
Weight generation scheme         WeightScheme... Becke
Basis function cutoff            BFCut       ...    1.0000e-10
Integration weight cutoff        WCut        ...    1.0000e-14
Grids for H and He will be reduced by one unit

# of grid points (after initial pruning)     ...  12424 (   0.0 sec)
# of grid points (after weights+screening)   ...  12393 (   0.0 sec)
nearest neighbour list constructed           ...    0.0 sec
Grid point re-assignment to atoms done       ...    0.0 sec
Grid point division into batches done        ...    0.1 sec
Reduced shell lists constructed in    0.1 sec

Total number of grid points                  ...    12393
Total number of batches                      ...      195
Average number of points per batch           ...       63
Average number of grid points per atom       ...     6196
Average number of shells per batch           ...     8.00 (29.63%)
Average number of basis functions per batch  ...    20.60 (26.75%)
Average number of large shells per batch     ...     6.00 (75.00%)
Average number of large basis fcns per batch ...    16.20 (78.64%)
Maximum spatial batch extension              ...  16.88, 16.88, 11.98 au
Average spatial batch extension              ...   0.69,  0.69,  0.47 au

Time for grid setup =    0.101 sec

------------------------------
INITIAL GUESS: MODEL POTENTIAL
------------------------------
Loading Hartree-Fock densities                     ... done
Calculating cut-offs                               ... done
Setting up the integral package                    ... done
Initializing the effective Hamiltonian             ... done
Starting the Coulomb interaction                   ... done (   0.0 sec)
Reading the grid                                   ... done
Mapping shells                                     ... done
Starting the XC term evaluation                    ... done (   0.0 sec)
  promolecular density results
     # of electrons  =     13.999992420
     EX              =    -13.170971927
     EC              =     -0.445101461
     EX+EC           =    -13.616073389
Transforming the Hamiltonian                       ... done (   0.0 sec)
Diagonalizing the Hamiltonian                      ... done (   0.0 sec)
Back transforming the eigenvectors                 ... done (   0.0 sec)
Now organizing SCF variables                       ... done
                      ------------------
                      INITIAL GUESS DONE (   0.2 sec)
                      ------------------
--------------
SCF ITERATIONS
--------------
ITER       Energy         Delta-E        Max-DP      RMS-DP      [F,P]     Damp
               ***  Starting incremental Fock matrix formation  ***
  0   -113.2707961828   0.000000000000 0.06013262  0.00184305  0.1793415 0.7000
  1   -113.2860474277  -0.015251244929 0.03813117  0.00113096  0.0620346 0.7000
                               ***Turning on DIIS***
  2   -113.2900730547  -0.004025627010 0.06087228  0.00191698  0.0290721 0.0000
  3   -113.3003480950  -0.010275040301 0.01202814  0.00051984  0.0278233 0.0000
  4   -113.3006404927  -0.000292397696 0.00491773  0.00021280  0.0214088 0.0000
  5   -113.3010389337  -0.000398440963 0.00270842  0.00007436  0.0040796 0.0000
                      *** Initiating the SOSCF procedure ***
                           *** Shutting down DIIS ***
                      *** Re-Reading the Fockian *** 
                      *** Removing any level shift *** 
ITER      Energy       Delta-E        Grad      Rot      Max-DP    RMS-DP
  6   -113.30105450  -0.0000155684  0.000107  0.000107  0.000863  0.000030
               *** Restarting incremental Fock matrix formation ***
                 **** Energy Check signals convergence ****
              ***Rediagonalizing the Fockian in SOSCF/NRSCF***

               *****************************************************
               *                     SUCCESS                       *
               *           SCF CONVERGED AFTER   7 CYCLES          *
               *****************************************************


----------------
TOTAL SCF ENERGY
----------------

Total Energy       :         -113.30105542 Eh           -3083.07846 eV

Components:
Nuclear Repulsion  :           22.38813734 Eh             609.21219 eV
Electronic Energy  :         -135.68919277 Eh           -3692.29065 eV
One Electron Energy:         -198.24917354 Eh           -5394.63427 eV
Two Electron Energy:           62.55998077 Eh            1702.34362 eV

Virial components:
Potential Energy   :         -226.16245905 Eh           -6154.19338 eV
Kinetic Energy     :          112.86140362 Eh            3071.11493 eV
Virial Ratio       :            2.00389550


DFT components:
N(Alpha)           :        6.999997263658 electrons
N(Beta)            :        6.999997263658 electrons
N(Total)           :       13.999994527316 electrons
E(XC)              :      -10.250066229004 Eh       
DFET-embed. en.    :        0.000000000000 Eh       

---------------
SCF CONVERGENCE
---------------

  Last Energy change         ...   -9.2209e-07  Tolerance :   1.0000e-06
  Last MAX-Density change    ...    4.6000e-05  Tolerance :   1.0000e-05
  Last RMS-Density change    ...    2.1931e-06  Tolerance :   1.0000e-06
  Last Orbital Gradient      ...    2.3759e-05  Tolerance :   5.0000e-05
  Last Orbital Rotation      ...    5.0913e-05  Tolerance :   5.0000e-05

             **** THE GBW FILE WAS UPDATED (MOR05_co.gbw) ****
             **** DENSITY FILE WAS UPDATED (MOR05_co.scfp) ****
             **** ENERGY FILE WAS UPDATED (MOR05_co.en.tmp) ****
             **** THE GBW FILE WAS UPDATED (MOR05_co.gbw) ****
             **** DENSITY FILE WAS UPDATED (MOR05_co.scfp) ****
----------------
ORBITAL ENERGIES
----------------

  NO   OCC          E(Eh)            E(eV) 
   0   2.0000     -19.313538      -525.5481 
   1   2.0000     -10.357989      -281.8552 
   2   2.0000      -1.179212       -32.0880 
   3   2.0000      -0.589453       -16.0398 
   4   2.0000      -0.494040       -13.4435 
   5   2.0000      -0.494040       -13.4435 
   6   2.0000      -0.390583       -10.6283 
   7   0.0000      -0.027346        -0.7441 
   8   0.0000      -0.027346        -0.7441 
   9   0.0000      -0.010112        -0.2752 
  10   0.0000       0.024593         0.6692 
  11   0.0000       0.024593         0.6692 
  12   0.0000       0.025626         0.6973 
  13   0.0000       0.093185         2.5357 
  14   0.0000       0.168901         4.5960 
  15   0.0000       0.168901         4.5960 
  16   0.0000       0.211447         5.7538 
  17   0.0000       0.211447         5.7538 
  18   0.0000       0.244058         6.6412 
  19   0.0000       0.314959         8.5705 
  20   0.0000       0.314959         8.5705 
  21   0.0000       0.329075         8.9546 
  22   0.0000       0.349642         9.5142 
  23   0.0000       0.411990        11.2108 
  24   0.0000       0.426670        11.6103 
  25   0.0000       0.426670        11.6103 
  26   0.0000       0.459090        12.4925 
  27   0.0000       0.459090        12.4925 
  28   0.0000       0.706519        19.2254 
  29   0.0000       0.737859        20.0782 
  30   0.0000       0.765752        20.8372 
  31   0.0000       0.765752        20.8372 
  32   0.0000       0.800835        21.7918 
  33   0.0000       0.800839        21.7919 
  34   0.0000       0.933836        25.4110 
  35   0.0000       0.979460        26.6525 
  36   0.0000       0.979460        26.6525 
  37   0.0000       1.214892        33.0589 
  38   0.0000       1.461881        39.7798 
  39   0.0000       1.531018        41.6611 
  40   0.0000       1.531018        41.6611 
  41   0.0000       1.697413        46.1889 
  42   0.0000       1.697420        46.1891 
  43   0.0000       1.814117        49.3646 
  44   0.0000       1.909673        51.9648 
  45   0.0000       1.909673        51.9648 
  46   0.0000       2.285848        62.2011 
  47   0.0000       2.620442        71.3059 
  48   0.0000       2.620442        71.3059 
  49   0.0000       2.783853        75.7525 
  50   0.0000       2.783853        75.7525 
  51   0.0000       2.814243        76.5795 
  52   0.0000       2.814244        76.5795 
  53   0.0000       2.998346        81.5891 
  54   0.0000       2.998367        81.5897 
  55   0.0000       3.031113        82.4808 
  56   0.0000       3.147459        85.6467 
  57   0.0000       3.147459        85.6467 
  58   0.0000       3.189204        86.7827 
  59   0.0000       3.629598        98.7664 
  60   0.0000       3.629598        98.7664 
  61   0.0000       4.098845       111.5352 
  62   0.0000       4.230083       115.1064 
  63   0.0000       5.100469       138.7908 
  64   0.0000       5.100469       138.7908 
  65   0.0000       5.495835       149.5493 
  66   0.0000       5.495903       149.5511 
  67   0.0000       6.198398       168.6670 
  68   0.0000       6.198398       168.6670 
  69   0.0000       6.411287       174.4600 
  70   0.0000       6.411462       174.4647 
  71   0.0000       6.471723       176.1045 
  72   0.0000       6.725389       183.0071 
  73   0.0000       6.725389       183.0071 
  74   0.0000       7.119704       193.7370 
  75   0.0000      22.052408       600.0765 
  76   0.0000      43.713245      1189.4979 

                    ********************************
                    * MULLIKEN POPULATION ANALYSIS *
                    ********************************

-----------------------
MULLIKEN ATOMIC CHARGES
-----------------------
   0 O :   -0.318462
   1 C :    0.318462
Sum of atomic charges:   -0.0000000

--------------------------------
MULLIKEN REDUCED ORBITAL CHARGES
--------------------------------
  0 O s       :     4.033809  s :     4.033809
      pz      :     1.298267  p :     4.237889
      px      :     1.469811
      py      :     1.469811
      dz2     :     0.008327  d :     0.045105
      dxz     :     0.018389
      dyz     :     0.018389
      dx2y2   :    -0.000000
      dxy     :     0.000000
      f0      :    -0.000134  f :     0.001659
      f+1     :     0.000896
      f-1     :     0.000896
      f+2     :    -0.000000
      f-2     :    -0.000000
      f+3     :     0.000000
      f-3     :     0.000000
  1 C s       :     3.695383  s :     3.695383
      pz      :     0.957034  p :     1.902992
      px      :     0.472979
      py      :     0.472979
      dz2     :     0.005758  d :     0.069349
      dxz     :     0.031796
      dyz     :     0.031796
      dx2y2   :     0.000000
      dxy     :     0.000000
      f0      :     0.001556  f :     0.013814
      f+1     :     0.006129
      f-1     :     0.006129
      f+2     :     0.000000
      f-2     :     0.000000
      f+3     :     0.000000
      f-3     :     0.000000


                     *******************************
                     * LOEWDIN POPULATION ANALYSIS *
                     *******************************

----------------------
LOEWDIN ATOMIC CHARGES
----------------------
   0 O :   -0.005744
   1 C :    0.005744

-------------------------------
LOEWDIN REDUCED ORBITAL CHARGES
-------------------------------
  0 O s       :     3.479462  s :     3.479462
      pz      :     1.682888  p :     4.336614
      px      :     1.326863
      py      :     1.326863
      dz2     :     0.138929  d :     0.183877
      dxz     :     0.022474
      dyz     :     0.022474
      dx2y2   :     0.000000
      dxy     :     0.000000
      f0      :     0.003347  f :     0.005791
      f+1     :     0.001222
      f-1     :     0.001222
      f+2     :     0.000000
      f-2     :     0.000000
      f+3     :     0.000000
      f-3     :     0.000000
  1 C s       :     3.297575  s :     3.297575
      pz      :     1.188759  p :     2.223341
      px      :     0.517291
      py      :     0.517291
      dz2     :     0.183640  d :     0.384735
      dxz     :     0.100547
      dyz     :     0.100547
      dx2y2   :     0.000000
      dxy     :     0.000000
      f0      :     0.025400  f :     0.088606
      f+1     :     0.031603
      f-1     :     0.031603
      f+2     :     0.000000
      f-2     :     0.000000
      f+3     :     0.000000
      f-3     :     0.000000


                      *****************************
                      * MAYER POPULATION ANALYSIS *
                      *****************************

  NA   - Mulliken gross atomic population
  ZA   - Total nuclear charge
  QA   - Mulliken gross atomic charge
  VA   - Mayer's total valence
  BVA  - Mayer's bonded valence
  FA   - Mayer's free valence

  ATOM       NA         ZA         QA         VA         BVA        FA
  0 O      8.3185     8.0000    -0.3185     2.1980     2.1980    -0.0000
  1 C      5.6815     6.0000     0.3185     2.1980     2.1980    -0.0000

  Mayer bond orders larger than 0.100000
B(  0-O ,  1-C ) :   2.1980 

-------
TIMINGS
-------

Total SCF time: 0 days 0 hours 0 min 1 sec 

Total time                  ....       1.283 sec
Sum of individual times     ....       1.103 sec  ( 86.0%)

Fock matrix formation       ....       0.866 sec  ( 67.5%)
  XC integration            ....       0.116 sec  ( 13.4% of F)
    Basis function eval.    ....       0.008 sec  (  6.5% of XC)
    Density eval.           ....       0.010 sec  (  8.8% of XC)
    XC-Functional eval.     ....       0.028 sec  ( 24.1% of XC)
    XC-Potential eval.      ....       0.019 sec  ( 16.8% of XC)
Diagonalization             ....       0.006 sec  (  0.5%)
Density matrix formation    ....       0.002 sec  (  0.2%)
Population analysis         ....       0.002 sec  (  0.2%)
Initial guess               ....       0.121 sec  (  9.4%)
Orbital Transformation      ....       0.000 sec  (  0.0%)
Orbital Orthonormalization  ....       0.000 sec  (  0.0%)
DIIS solution               ....       0.004 sec  (  0.3%)
SOSCF solution              ....       0.001 sec  (  0.1%)
Grid generation             ....       0.101 sec  (  7.9%)


-------------------------------------------------------------------------------
                          DFT DISPERSION CORRECTION                            
                                                                               
                              DFTD3 V3.1  Rev 1                                
                              USING zero damping                               
-------------------------------------------------------------------------------
The M06 functional is recognized
Active option DFTDOPT                   ...         3   

molecular C6(AA) [au] = 100.821916 


            DFT-D V3
 parameters
 s6 scaling factor         :     1.0000 
 rs6 scaling factor        :     1.3250 
 s8 scaling factor         :     0.0000 
 rs8 scaling factor        :     1.0000 
 Damping factor alpha6     :    14.0000 
 Damping factor alpha8     :    16.0000 
 ad hoc parameters k1-k3   :    16.0000     1.3333    -4.0000 

 Edisp/kcal,au: -0.000005034165  -0.000000008022 
 E6   /kcal   :  -0.000005034 
 E8   /kcal   :  -0.000000000 
 % E8         :   0.000000000 

-------------------------   ----------------
Dispersion correction           -0.000000008
-------------------------   ----------------


-------------------------   --------------------
FINAL SINGLE POINT ENERGY      -113.301055432217
-------------------------   --------------------


                            ***************************************
                            *     ORCA property calculations      *
                            ***************************************

                                    ---------------------
                                    Active property flags
                                    ---------------------
   (+) Dipole Moment


------------------------------------------------------------------------------
                       ORCA ELECTRIC PROPERTIES CALCULATION
------------------------------------------------------------------------------

Dipole Moment Calculation                       ... on
Quadrupole Moment Calculation                   ... off
Polarizability Calculation                      ... off
GBWName                                         ... MOR05_co.gbw
Electron density file                           ... MOR05_co.scfp
The origin for moment calculation is the CENTER OF MASS  = ( 0.000000,  0.000000 -0.000513)

-------------
DIPOLE MOMENT
-------------
                                X             Y             Z
Electronic contribution:      0.00000      -0.00000       0.00707
Nuclear contribution   :      0.00000       0.00000       0.00720
                        -----------------------------------------
Total Dipole Moment    :      0.00000      -0.00000       0.01426
                        -----------------------------------------
Magnitude (a.u.)       :      0.01426
Magnitude (Debye)      :      0.03625



--------------------
Rotational spectrum 
--------------------
 
Rotational constants in cm-1:     0.000000     1.908926     1.908926 
Rotational constants in MHz :     0.000000 57228.174924 57228.174924 

 Dipole components along the rotational axes: 
x,y,z [a.u.] :     0.014261    -0.000000     0.000000 
x,y,z [Debye]:     0.036248    -0.000000     0.000000 

 

Timings for individual modules:

Sum of individual times         ...        2.328 sec (=   0.039 min)
GTO integral calculation        ...        0.679 sec (=   0.011 min)  29.2 %
SCF iterations                  ...        1.649 sec (=   0.027 min)  70.8 %
                             ****ORCA TERMINATED NORMALLY****
TOTAL RUN TIME: 0 days 0 hours 0 minutes 2 seconds 826 msec
