
                                 *****************
                                 * O   R   C   A *
                                 *****************

           --- An Ab Initio, DFT and Semiempirical electronic structure package ---

                  #######################################################
                  #                        -***-                        #
                  #          Department of theory and spectroscopy      #
                  #               Directorship: Frank Neese             #
                  #        Max Planck Institute fuer Kohlenforschung    #
                  #                Kaiser Wilhelm Platz 1               #
                  #                 D-45470 Muelheim/Ruhr               #
                  #                      Germany                        #
                  #                                                     #
                  #                  All rights reserved                #
                  #                        -***-                        #
                  #######################################################


                         Program Version 4.2.0 -  RELEASE  -


 With contributions from (in alphabetic order):
   Daniel Aravena         : Magnetic Suceptibility
   Michael Atanasov       : Ab Initio Ligand Field Theory (pilot matlab implementation)
   Alexander A. Auer      : GIAO ZORA, VPT2
   Ute Becker             : Parallelization
   Giovanni Bistoni       : ED, misc. LED, open-shell LED, HFLED
   Martin Brehm           : Molecular dynamics
   Dmytro Bykov           : SCF Hessian
   Vijay G. Chilkuri      : MRCI spin determinant printing, contributions to CSF-ICE
   Dipayan Datta          : RHF DLPNO-CCSD density
   Achintya Kumar Dutta   : EOM-CC, STEOM-CC
   Dmitry Ganyushin       : Spin-Orbit,Spin-Spin,Magnetic field MRCI
   Miquel Garcia          : C-PCM Hessian, Gaussian charge scheme
   Yang Guo               : DLPNO-NEVPT2, CIM, IAO-localization
   Andreas Hansen         : Spin unrestricted coupled pair/coupled cluster methods
   Benjamin Helmich-Paris : CASSCF linear response (MC-RPA)
   Lee Huntington         : MR-EOM, pCC
   Robert Izsak           : Overlap fitted RIJCOSX, COSX-SCS-MP3, EOM
   Christian Kollmar      : KDIIS, OOCD, Brueckner-CCSD(T), CCSD density
   Simone Kossmann        : Meta GGA functionals, TD-DFT gradient, OOMP2, MP2 Hessian
   Martin Krupicka        : AUTO-CI
   Lucas Lang             : DCDCAS
   Dagmar Lenk            : GEPOL surface, SMD
   Dimitrios Liakos       : Extrapolation schemes; Compound Job, initial MDCI parallelization
   Dimitrios Manganas     : Further ROCIS development; embedding schemes
   Dimitrios Pantazis     : SARC Basis sets
   Taras Petrenko         : DFT Hessian,TD-DFT gradient, ASA, ECA, R-Raman, ABS, FL, XAS/XES, NRVS
   Peter Pinski           : DLPNO-MP2, DLPNO-MP2 Gradient
   Christoph Reimann      : Effective Core Potentials
   Marius Retegan         : Local ZFS, SOC
   Christoph Riplinger    : Optimizer, TS searches, QM/MM, DLPNO-CCSD(T), (RO)-DLPNO pert. Triples
   Tobias Risthaus        : Range-separated hybrids, TD-DFT gradient, RPA, STAB
   Michael Roemelt        : Original ROCIS implementation
   Masaaki Saitow         : Open-shell DLPNO-CCSD energy and density
   Barbara Sandhoefer     : DKH picture change effects
   Avijit Sen             : IP-ROCIS
   Kantharuban Sivalingam : CASSCF convergence, NEVPT2, FIC-MRCI
   Bernardo de Souza      : ESD, SOC TD-DFT
   Georgi Stoychev        : AutoAux, RI-MP2 NMR
   Willem Van den Heuvel  : Paramagnetic NMR
   Boris Wezisla          : Elementary symmetry handling
   Frank Wennmohs         : Technical directorship


 We gratefully acknowledge several colleagues who have allowed us to
 interface, adapt or use parts of their codes:
   Stefan Grimme, W. Hujo, H. Kruse,             : VdW corrections, initial TS optimization,
                  C. Bannwarth                     DFT functionals, gCP, sTDA/sTD-DF
   Ed Valeev, F. Pavosevic, A. Kumar             : LibInt (2-el integral package), F12 methods
   Garnet Chan, S. Sharma, J. Yang, R. Olivares  : DMRG
   Ulf Ekstrom                                   : XCFun DFT Library
   Mihaly Kallay                                 : mrcc  (arbitrary order and MRCC methods)
   Andreas Klamt, Michael Diedenhofen            : otool_cosmo (COSMO solvation model)
   Jiri Pittner, Ondrej Demel                    : Mk-CCSD
   Frank Weinhold                                : gennbo (NPA and NBO analysis)
   Christopher J. Cramer and Donald G. Truhlar   : smd solvation model
   Lars Goerigk                                  : TD-DFT with DH, B97 family of functionals
   V. Asgeirsson, H. Jonsson                     : NEB implementation
   FAccTs GmbH                                   : IRC, NEB, NEB-TS, Multilevel, MM, QM/MM, CI optimization
   S Lehtola, MJT Oliveira, MAL Marques          : LibXC Library


 Your calculation uses the libint2 library for the computation of 2-el integrals
 For citations please refer to: http://libint.valeyev.net

 Your ORCA version has been built with support for libXC version: 4.2.3
 For citations please refer to: https://tddft.org/programs/libxc/

 This ORCA versions uses:
   CBLAS   interface :  Fast vector & matrix operations
   LAPACKE interface :  Fast linear algebra routines
   SCALAPACK package :  Parallel linear algebra routines


Your calculation utilizes the atom-pairwise dispersion correction
with the zero-damping scheme (D30)
Cite in your paper:
S.Grimme, J.Antony, S.Ehrlich and H.Krieg, J.Chem.Phys., 132, (2010), 154104 
   

XCFun DFT library Copyright 2009-2010 Ulf Ekstrom and contributors.
See http://admol.org/xcfun for more information. This is free soft-
ware; see the source code for copying conditions. There is ABSOLUTELY
NO WARRANTY; not even for MERCHANTABILITY or FITNESS FOR A PARTICULAR
PURPOSE. For details see the documentation. Scientific users of this 
library should cite U. Ekstrom, L. Visscher, R. Bast, A. J. Thorvald-
sen and K. Ruud; J.Chem.Theor.Comp. 2010, DOI: 10.1021/ct100117s
XCFun Version 0.99 
----- Orbital basis set information -----
Your calculation utilizes the basis: def2-TZVPPD
   F. Weigend and R. Ahlrichs, Phys. Chem. Chem. Phys. 7, 3297 (2005).
   D. Rappoport and F. Furche, J. Chem. Phys. 133 134105 (2010).

----- AuxJK basis set information -----
Your calculation utilizes the auxiliary basis: def2/JK
   H-Ba, Hf-Rn: F. Weigend, J. Comput. Chem. 29, 167 (2008).

================================================================================
                                        WARNINGS
                       Please study these warnings very carefully!
================================================================================


WARNING: Minnesota functionals are quite sensitive to the integration grid.
         see SE Wheeler, KN Houk, JCTC 2010, 6, 395,
             N Mardirossian, M Head-Gordon, JCTC 2016, 12, 4303.
         Grid6 seems to be a minimum grid for reliable results with these functionals!
  ===> : Please increase the integration grid!


INFO   : the flag for use of LIBINT has been found!

================================================================================
                                       INPUT FILE
================================================================================
NAME = MOR02_bz.in
|  1> #
|  2> # MOR02_bz M06-D3/Def2-TZVPPD
|  3> #
|  4> ! m06 d3zero def2-tzvppd def2/jk grid4 nofinalgrid
|  5> 
|  6> *xyz 0 1
|  7> C        1.391947    0.103893   -0.000005 
|  8> C        0.785946   -1.153510   -0.000002 
|  9> C       -0.605997   -1.257403   -0.000005 
| 10> C       -1.391947   -0.103892   -0.000002 
| 11> C       -0.785947    1.153509   -0.000006 
| 12> C        0.605998    1.257403   -0.000002 
| 13> H        2.475503    0.184769    0.000018 
| 14> H        1.397775   -2.051448    0.000027 
| 15> H       -1.077745   -2.236217    0.000018 
| 16> H       -2.475502   -0.184774    0.000031 
| 17> H       -1.397773    2.051449    0.000014 
| 18> H        1.077742    2.236219    0.000031 
| 19> *
| 20> 
| 21> %maxcore 5000
| 22> 
| 23> %pal
| 24> nprocs = 24
| 25> end
| 26> 
| 27> 
| 28>                          ****END OF INPUT****
================================================================================

                       ****************************
                       * Single Point Calculation *
                       ****************************

---------------------------------
CARTESIAN COORDINATES (ANGSTROEM)
---------------------------------
  C      1.391947    0.103893   -0.000005
  C      0.785946   -1.153510   -0.000002
  C     -0.605997   -1.257403   -0.000005
  C     -1.391947   -0.103892   -0.000002
  C     -0.785947    1.153509   -0.000006
  C      0.605998    1.257403   -0.000002
  H      2.475503    0.184769    0.000018
  H      1.397775   -2.051448    0.000027
  H     -1.077745   -2.236217    0.000018
  H     -2.475502   -0.184774    0.000031
  H     -1.397773    2.051449    0.000014
  H      1.077742    2.236219    0.000031

----------------------------
CARTESIAN COORDINATES (A.U.)
----------------------------
  NO LB      ZA    FRAG     MASS         X           Y           Z
   0 C     6.0000    0    12.011    2.630399    0.196329   -0.000009
   1 C     6.0000    0    12.011    1.485223   -2.179818   -0.000004
   2 C     6.0000    0    12.011   -1.145168   -2.376147   -0.000009
   3 C     6.0000    0    12.011   -2.630399   -0.196327   -0.000004
   4 C     6.0000    0    12.011   -1.485225    2.179816   -0.000011
   5 C     6.0000    0    12.011    1.145170    2.376147   -0.000004
   6 H     1.0000    0     1.008    4.678023    0.349163    0.000034
   7 H     1.0000    0     1.008    2.641412   -3.876675    0.000051
   8 H     1.0000    0     1.008   -2.036643   -4.225838    0.000034
   9 H     1.0000    0     1.008   -4.678021   -0.349172    0.000059
  10 H     1.0000    0     1.008   -2.641408    3.876677    0.000026
  11 H     1.0000    0     1.008    2.036637    4.225841    0.000059

--------------------------------
INTERNAL COORDINATES (ANGSTROEM)
--------------------------------
 C      0   0   0     0.000000000000     0.00000000     0.00000000
 C      1   0   0     1.395815000786     0.00000000     0.00000000
 C      2   1   0     1.395814841126   120.00015529     0.00000000
 C      3   2   1     1.395816975692   120.00016495     0.00000000
 C      4   3   2     1.395812764957   119.99968110     0.00000000
 C      1   2   3     1.395815586211   119.99969057     0.00000000
 H      1   2   3     1.086570077372   120.00018922   179.99874176
 H      2   1   3     1.086566784844   119.99903336   180.00148136
 H      3   2   1     1.086564780687   120.00072526   180.00125825
 H      4   3   2     1.086569527015   119.99981156   180.00215151
 H      5   4   3     1.086566748192   119.99922480   180.00107556
 H      6   1   2     1.086564845962   119.99935638   179.99784849

---------------------------
INTERNAL COORDINATES (A.U.)
---------------------------
 C      0   0   0     0.000000000000     0.00000000     0.00000000
 C      1   0   0     2.637708085104     0.00000000     0.00000000
 C      2   1   0     2.637707783391   120.00015529     0.00000000
 C      3   2   1     2.637711817136   120.00016495     0.00000000
 C      4   3   2     2.637703860000   119.99968110     0.00000000
 C      1   2   3     2.637709191398   119.99969057     0.00000000
 H      1   2   3     2.053319871547   120.00018922   179.99874176
 H      2   1   3     2.053313649570   119.99903336   180.00148136
 H      3   2   1     2.053309862262   120.00072526   180.00125825
 H      4   3   2     2.053318831523   119.99981156   180.00215151
 H      5   4   3     2.053313580308   119.99922480   180.00107556
 H      6   1   2     2.053309985615   119.99935638   179.99784849

---------------------
BASIS SET INFORMATION
---------------------
There are 2 groups of distinct atoms

 Group   1 Type C   : 12s6p3d1f contracted to 6s3p3d1f pattern {621111/411/111/1}
 Group   2 Type H   : 5s3p1d contracted to 3s3p1d pattern {311/111/1}

Atom   0C    basis set group =>   1
Atom   1C    basis set group =>   1
Atom   2C    basis set group =>   1
Atom   3C    basis set group =>   1
Atom   4C    basis set group =>   1
Atom   5C    basis set group =>   1
Atom   6H    basis set group =>   2
Atom   7H    basis set group =>   2
Atom   8H    basis set group =>   2
Atom   9H    basis set group =>   2
Atom  10H    basis set group =>   2
Atom  11H    basis set group =>   2
----------------------------------
AUXILIARY/JK BASIS SET INFORMATION
----------------------------------
There are 2 groups of distinct atoms

 Group   1 Type C   : 14s10p6d2f1g contracted to 10s8p5d1f1g pattern {5111111111/31111111/21111/2/1}
 Group   2 Type H   : 4s2p2d contracted to 2s2p2d pattern {31/11/11}

Atom   0C    basis set group =>   1
Atom   1C    basis set group =>   1
Atom   2C    basis set group =>   1
Atom   3C    basis set group =>   1
Atom   4C    basis set group =>   1
Atom   5C    basis set group =>   1
Atom   6H    basis set group =>   2
Atom   7H    basis set group =>   2
Atom   8H    basis set group =>   2
Atom   9H    basis set group =>   2
Atom  10H    basis set group =>   2
Atom  11H    basis set group =>   2


           ************************************************************
           *        Program running with 24 parallel MPI-processes    *
           *              working on a common directory               *
           ************************************************************
------------------------------------------------------------------------------
                           ORCA GTO INTEGRAL CALCULATION
------------------------------------------------------------------------------

                         BASIS SET STATISTICS AND STARTUP INFO

 # of primitive gaussian shells          ...  186
 # of primitive gaussian functions       ...  426
 # of contracted shells                  ...  120
 # of contracted basis functions         ...  324
 Highest angular momentum                ...    3
 Maximum contraction depth               ...    6
 Integral package used                   ... LIBINT
 Integral threshhold            Thresh   ...  1.000e-10
 Primitive cut-off              TCut     ...  1.000e-11


------------------------------ INTEGRAL EVALUATION ----------------------------


 * One electron integrals 
 Pre-screening matrix                    ... done
 Shell pair data                         ... done (   0.002 sec)



           ************************************************************
           *        Program running with 24 parallel MPI-processes    *
           *              working on a common directory               *
           ************************************************************
-------------------------------------------------------------------------------
                                 ORCA SCF
-------------------------------------------------------------------------------

------------
SCF SETTINGS
------------
Hamiltonian:
 Density Functional     Method          .... DFT(GTOs)
 Exchange Functional    Exchange        .... M06
 Correlation Functional Correlation     .... M06
 Gradients option       PostSCFGGA      .... off
 Hybrid DFT is turned on
   Fraction HF Exchange ScalHFX         ....  0.270000
   Scaling of DF-GGA-X  ScalDFX         ....  0.730000
   Scaling of DF-GGA-C  ScalDFC         ....  1.000000
   Scaling of DF-LDA-C  ScalLDAC        ....  1.000000
   Perturbative correction              ....  0.000000
   Density functional embedding theory  .... OFF


General Settings:
 Integral files         IntName         .... MOR02_bz
 Hartree-Fock type      HFTyp           .... RHF
 Total Charge           Charge          ....    0
 Multiplicity           Mult            ....    1
 Number of Electrons    NEL             ....   42
 Basis Dimension        Dim             ....  324
 Nuclear Repulsion      ENuc            ....    203.2982348504 Eh

Convergence Acceleration:
 DIIS                   CNVDIIS         .... on
   Start iteration      DIISMaxIt       ....    12
   Startup error        DIISStart       ....  0.200000
   # of expansion vecs  DIISMaxEq       ....     5
   Bias factor          DIISBfac        ....   1.050
   Max. coefficient     DIISMaxC        ....  10.000
 Newton-Raphson         CNVNR           .... off
 SOSCF                  CNVSOSCF        .... on
   Start iteration      SOSCFMaxIt      ....   150
   Startup grad/error   SOSCFStart      ....  0.003300
 Level Shifting         CNVShift        .... on
   Level shift para.    LevelShift      ....    0.2500
   Turn off err/grad.   ShiftErr        ....    0.0010
 Zerner damping         CNVZerner       .... off
 Static damping         CNVDamp         .... on
   Fraction old density DampFac         ....    0.7000
   Max. Damping (<1)    DampMax         ....    0.9800
   Min. Damping (>=0)   DampMin         ....    0.0000
   Turn off err/grad.   DampErr         ....    0.1000
 Fernandez-Rico         CNVRico         .... off

SCF Procedure:
 Maximum # iterations   MaxIter         ....   125
 SCF integral mode      SCFMode         .... Direct
   Integral package                     .... LIBINT
 Reset frequency        DirectResetFreq ....    20
 Integral Threshold     Thresh          ....  1.000e-10 Eh
 Primitive CutOff       TCut            ....  1.000e-11 Eh

Convergence Tolerance:
 Convergence Check Mode ConvCheckMode   .... Total+1el-Energy
 Convergence forced     ConvForced      .... 0
 Energy Change          TolE            ....  1.000e-06 Eh
 1-El. energy change                    ....  1.000e-03 Eh
 Orbital Gradient       TolG            ....  5.000e-05
 Orbital Rotation angle TolX            ....  5.000e-05
 DIIS Error             TolErr          ....  1.000e-06


Diagonalization of the overlap matrix:
Smallest eigenvalue                        ... 6.317e-07
Time for diagonalization                   ...    0.016 sec
Threshold for overlap eigenvalues          ... 1.000e-08
Number of eigenvalues below threshold      ... 0
Time for construction of square roots      ...    0.013 sec
Total time needed                          ...    0.030 sec

-------------------
DFT GRID GENERATION
-------------------

General Integration Accuracy     IntAcc      ...  4.670
Radial Grid Type                 RadialGrid  ... Gauss-Chebyshev
Angular Grid (max. acc.)         AngularGrid ... Lebedev-302
Angular grid pruning method      GridPruning ... 3 (G Style)
Weight generation scheme         WeightScheme... Becke
Basis function cutoff            BFCut       ...    1.0000e-10
Integration weight cutoff        WCut        ...    1.0000e-14
Grids for H and He will be reduced by one unit

# of grid points (after initial pruning)     ...  57636 (   0.0 sec)
# of grid points (after weights+screening)   ...  53399 (   0.0 sec)
nearest neighbour list constructed           ...    0.0 sec
Grid point re-assignment to atoms done       ...    0.0 sec
Grid point division into batches done        ...    0.2 sec
Reduced shell lists constructed in    0.2 sec

Total number of grid points                  ...    53399
Total number of batches                      ...      838
Average number of points per batch           ...       63
Average number of grid points per atom       ...     4450
Average number of shells per batch           ...    95.08 (79.24%)
Average number of basis functions per batch  ...   266.97 (82.40%)
Average number of large shells per batch     ...    82.03 (86.27%)
Average number of large basis fcns per batch ...   228.47 (85.58%)
Maximum spatial batch extension              ...   3.14,  3.03, 16.53 au
Average spatial batch extension              ...   0.06,  0.07,  0.10 au

Time for grid setup =    0.254 sec

------------------------------
INITIAL GUESS: MODEL POTENTIAL
------------------------------
Loading Hartree-Fock densities                     ... done
Calculating cut-offs                               ... done
Setting up the integral package                    ... done
Initializing the effective Hamiltonian             ... done
Starting the Coulomb interaction                   ... done (   0.0 sec)
Reading the grid                                   ... done
Mapping shells                                     ... done
Starting the XC term evaluation                    ... done (   0.1 sec)
  promolecular density results
     # of electrons  =     41.996931039
     EX              =    -32.422098931
     EC              =     -1.367913847
     EX+EC           =    -33.790012778
Transforming the Hamiltonian                       ... done (   0.0 sec)
Diagonalizing the Hamiltonian                      ... done (   0.0 sec)
Back transforming the eigenvectors                 ... done (   0.0 sec)
Now organizing SCF variables                       ... done
                      ------------------
                      INITIAL GUESS DONE (   0.4 sec)
                      ------------------
--------------
SCF ITERATIONS
--------------
ITER       Energy         Delta-E        Max-DP      RMS-DP      [F,P]     Damp
               ***  Starting incremental Fock matrix formation  ***
  0   -232.0023130810   0.000000000000 0.17306859  0.00352168  0.1355037 0.7000
  1   -232.0648457681  -0.062532687064 0.22159840  0.00345613  0.0721047 0.7000
                               ***Turning on DIIS***
  2   -232.0918195082  -0.026973740085 0.60468608  0.00842910  0.0306641 0.0000
  3   -232.1302058526  -0.038386344480 0.14738866  0.00213216  0.0401340 0.0000
  4   -232.1409677273  -0.010761874713 0.05145271  0.00085714  0.0060558 0.0000
                      *** Initiating the SOSCF procedure ***
                           *** Shutting down DIIS ***
                      *** Re-Reading the Fockian *** 
                      *** Removing any level shift *** 
ITER      Energy       Delta-E        Grad      Rot      Max-DP    RMS-DP
  5   -232.14131807  -0.0003503475  0.000449  0.000449  0.046643  0.000610
               *** Restarting incremental Fock matrix formation ***
  6   -232.14133205  -0.0000139750  0.000081  0.000157  0.016768  0.000240
  7   -232.14133208  -0.0000000308  0.000087  0.000061  0.002726  0.000037
                 **** Energy Check signals convergence ****
              ***Rediagonalizing the Fockian in SOSCF/NRSCF***

               *****************************************************
               *                     SUCCESS                       *
               *           SCF CONVERGED AFTER   8 CYCLES          *
               *****************************************************


----------------
TOTAL SCF ENERGY
----------------

Total Energy       :         -232.14133234 Eh           -6316.88680 eV

Components:
Nuclear Repulsion  :          203.29823485 Eh            5532.02621 eV
Electronic Energy  :         -435.43956719 Eh          -11848.91301 eV
One Electron Energy:         -714.01259944 Eh          -19429.27060 eV
Two Electron Energy:          278.57303225 Eh            7580.35759 eV

Virial components:
Potential Energy   :         -462.98408607 Eh          -12598.43747 eV
Kinetic Energy     :          230.84275374 Eh            6281.55068 eV
Virial Ratio       :            2.00562538


DFT components:
N(Alpha)           :       20.999988989098 electrons
N(Beta)            :       20.999988989098 electrons
N(Total)           :       41.999977978196 electrons
E(XC)              :      -25.645923741012 Eh       
DFET-embed. en.    :        0.000000000000 Eh       

---------------
SCF CONVERGENCE
---------------

  Last Energy change         ...   -2.5538e-07  Tolerance :   1.0000e-06
  Last MAX-Density change    ...    5.5349e-03  Tolerance :   1.0000e-05
  Last RMS-Density change    ...    7.5921e-05  Tolerance :   1.0000e-06
  Last Orbital Gradient      ...    6.7113e-06  Tolerance :   5.0000e-05
  Last Orbital Rotation      ...    9.6182e-06  Tolerance :   5.0000e-05

             **** THE GBW FILE WAS UPDATED (MOR02_bz.gbw) ****
             **** DENSITY FILE WAS UPDATED (MOR02_bz.scfp) ****
             **** ENERGY FILE WAS UPDATED (MOR02_bz.en.tmp) ****
             **** THE GBW FILE WAS UPDATED (MOR02_bz.gbw) ****
             **** DENSITY FILE WAS UPDATED (MOR02_bz.scfp) ****
----------------
ORBITAL ENERGIES
----------------

  NO   OCC          E(Eh)            E(eV) 
   0   2.0000     -10.241861      -278.6952 
   1   2.0000     -10.241592      -278.6879 
   2   2.0000     -10.241586      -278.6877 
   3   2.0000     -10.240975      -278.6711 
   4   2.0000     -10.240969      -278.6709 
   5   2.0000     -10.240713      -278.6640 
   6   2.0000      -0.865573       -23.5534 
   7   2.0000      -0.756847       -20.5948 
   8   2.0000      -0.756833       -20.5945 
   9   2.0000      -0.613542       -16.6953 
  10   2.0000      -0.613519       -16.6947 
  11   2.0000      -0.535353       -14.5677 
  12   2.0000      -0.470363       -12.7992 
  13   2.0000      -0.460870       -12.5409 
  14   2.0000      -0.432874       -11.7791 
  15   2.0000      -0.432832       -11.7780 
  16   2.0000      -0.381599       -10.3838 
  17   2.0000      -0.356008        -9.6875 
  18   2.0000      -0.355953        -9.6860 
  19   2.0000      -0.266898        -7.2627 
  20   2.0000      -0.266871        -7.2619 
  21   0.0000      -0.018926        -0.5150 
  22   0.0000      -0.009913        -0.2697 
  23   0.0000      -0.009865        -0.2684 
  24   0.0000      -0.005702        -0.1552 
  25   0.0000      -0.005468        -0.1488 
  26   0.0000       0.015155         0.4124 
  27   0.0000       0.015237         0.4146 
  28   0.0000       0.048230         1.3124 
  29   0.0000       0.057728         1.5708 
  30   0.0000       0.104176         2.8348 
  31   0.0000       0.104627         2.8470 
  32   0.0000       0.105834         2.8799 
  33   0.0000       0.107287         2.9194 
  34   0.0000       0.114093         3.1046 
  35   0.0000       0.114273         3.1095 
  36   0.0000       0.133792         3.6407 
  37   0.0000       0.133977         3.6457 
  38   0.0000       0.135284         3.6813 
  39   0.0000       0.169820         4.6210 
  40   0.0000       0.176365         4.7991 
  41   0.0000       0.176585         4.8051 
  42   0.0000       0.183885         5.0038 
  43   0.0000       0.183950         5.0055 
  44   0.0000       0.198012         5.3882 
  45   0.0000       0.206213         5.6113 
  46   0.0000       0.206374         5.6157 
  47   0.0000       0.222846         6.0640 
  48   0.0000       0.222904         6.0655 
  49   0.0000       0.230479         6.2717 
  50   0.0000       0.230862         6.2821 
  51   0.0000       0.230979         6.2853 
  52   0.0000       0.243452         6.6247 
  53   0.0000       0.259380         7.0581 
  54   0.0000       0.267567         7.2809 
  55   0.0000       0.280532         7.6337 
  56   0.0000       0.280574         7.6348 
  57   0.0000       0.290085         7.8936 
  58   0.0000       0.308041         8.3822 
  59   0.0000       0.308252         8.3880 
  60   0.0000       0.309019         8.4088 
  61   0.0000       0.311600         8.4791 
  62   0.0000       0.316709         8.6181 
  63   0.0000       0.316961         8.6249 
  64   0.0000       0.325547         8.8586 
  65   0.0000       0.325663         8.8617 
  66   0.0000       0.332172         9.0389 
  67   0.0000       0.332256         9.0412 
  68   0.0000       0.345821         9.4103 
  69   0.0000       0.356673         9.7056 
  70   0.0000       0.356693         9.7061 
  71   0.0000       0.383687        10.4406 
  72   0.0000       0.385659        10.4943 
  73   0.0000       0.390448        10.6246 
  74   0.0000       0.392733        10.6868 
  75   0.0000       0.393150        10.6982 
  76   0.0000       0.421556        11.4711 
  77   0.0000       0.423254        11.5173 
  78   0.0000       0.437835        11.9141 
  79   0.0000       0.438120        11.9218 
  80   0.0000       0.447378        12.1738 
  81   0.0000       0.447538        12.1781 
  82   0.0000       0.459316        12.4986 
  83   0.0000       0.459994        12.5171 
  84   0.0000       0.494280        13.4500 
  85   0.0000       0.494497        13.4560 
  86   0.0000       0.498421        13.5627 
  87   0.0000       0.507726        13.8159 
  88   0.0000       0.508194        13.8287 
  89   0.0000       0.525545        14.3008 
  90   0.0000       0.525930        14.3113 
  91   0.0000       0.527071        14.3423 
  92   0.0000       0.554316        15.0837 
  93   0.0000       0.586533        15.9604 
  94   0.0000       0.586664        15.9639 
  95   0.0000       0.595811        16.2128 
  96   0.0000       0.617358        16.7992 
  97   0.0000       0.617480        16.8025 
  98   0.0000       0.620606        16.8875 
  99   0.0000       0.622081        16.9277 
 100   0.0000       0.627499        17.0751 
 101   0.0000       0.627678        17.0800 
 102   0.0000       0.670399        18.2425 
 103   0.0000       0.670620        18.2485 
 104   0.0000       0.670682        18.2502 
 105   0.0000       0.676473        18.4078 
 106   0.0000       0.690749        18.7962 
 107   0.0000       0.690884        18.7999 
 108   0.0000       0.703693        19.1485 
 109   0.0000       0.704113        19.1599 
 110   0.0000       0.704449        19.1690 
 111   0.0000       0.719890        19.5892 
 112   0.0000       0.720169        19.5968 
 113   0.0000       0.740979        20.1631 
 114   0.0000       0.767148        20.8752 
 115   0.0000       0.767442        20.8831 
 116   0.0000       0.777646        21.1608 
 117   0.0000       0.836368        22.7587 
 118   0.0000       0.844895        22.9908 
 119   0.0000       0.866998        23.5922 
 120   0.0000       0.867068        23.5941 
 121   0.0000       0.876554        23.8522 
 122   0.0000       0.895760        24.3749 
 123   0.0000       0.896062        24.3831 
 124   0.0000       0.919423        25.0188 
 125   0.0000       0.925464        25.1832 
 126   0.0000       0.925781        25.1918 
 127   0.0000       0.957261        26.0484 
 128   0.0000       0.962910        26.2021 
 129   0.0000       1.033496        28.1229 
 130   0.0000       1.033614        28.1261 
 131   0.0000       1.062779        28.9197 
 132   0.0000       1.068461        29.0743 
 133   0.0000       1.144270        31.1372 
 134   0.0000       1.144303        31.1381 
 135   0.0000       1.167152        31.7598 
 136   0.0000       1.167271        31.7631 
 137   0.0000       1.202332        32.7171 
 138   0.0000       1.202648        32.7257 
 139   0.0000       1.205921        32.8148 
 140   0.0000       1.206358        32.8267 
 141   0.0000       1.270157        34.5627 
 142   0.0000       1.270192        34.5637 
 143   0.0000       1.272790        34.6344 
 144   0.0000       1.320126        35.9224 
 145   0.0000       1.368041        37.2263 
 146   0.0000       1.368370        37.2352 
 147   0.0000       1.393957        37.9315 
 148   0.0000       1.394074        37.9347 
 149   0.0000       1.412512        38.4364 
 150   0.0000       1.412600        38.4388 
 151   0.0000       1.458867        39.6978 
 152   0.0000       1.466399        39.9028 
 153   0.0000       1.466553        39.9069 
 154   0.0000       1.501630        40.8614 
 155   0.0000       1.531728        41.6805 
 156   0.0000       1.549378        42.1607 
 157   0.0000       1.549531        42.1649 
 158   0.0000       1.614510        43.9331 
 159   0.0000       1.630673        44.3729 
 160   0.0000       1.662327        45.2342 
 161   0.0000       1.662401        45.2362 
 162   0.0000       1.685625        45.8682 
 163   0.0000       1.721829        46.8534 
 164   0.0000       1.722046        46.8592 
 165   0.0000       1.737774        47.2872 
 166   0.0000       1.737909        47.2909 
 167   0.0000       1.792096        48.7654 
 168   0.0000       1.792342        48.7721 
 169   0.0000       1.818892        49.4946 
 170   0.0000       1.857405        50.5426 
 171   0.0000       1.857444        50.5436 
 172   0.0000       1.866557        50.7916 
 173   0.0000       1.866593        50.7926 
 174   0.0000       1.912960        52.0543 
 175   0.0000       1.930879        52.5419 
 176   0.0000       2.062894        56.1342 
 177   0.0000       2.063114        56.1402 
 178   0.0000       2.087430        56.8019 
 179   0.0000       2.087658        56.8081 
 180   0.0000       2.090633        56.8890 
 181   0.0000       2.120456        57.7005 
 182   0.0000       2.202565        59.9348 
 183   0.0000       2.336678        63.5842 
 184   0.0000       2.341467        63.7146 
 185   0.0000       2.341709        63.7212 
 186   0.0000       2.362576        64.2890 
 187   0.0000       2.362605        64.2897 
 188   0.0000       2.385408        64.9102 
 189   0.0000       2.447969        66.6126 
 190   0.0000       2.448016        66.6139 
 191   0.0000       2.488895        67.7263 
 192   0.0000       2.587159        70.4002 
 193   0.0000       2.611369        71.0590 
 194   0.0000       2.690230        73.2049 
 195   0.0000       2.690705        73.2178 
 196   0.0000       2.697676        73.4075 
 197   0.0000       2.698821        73.4387 
 198   0.0000       2.708818        73.7107 
 199   0.0000       2.769101        75.3511 
 200   0.0000       2.769301        75.3565 
 201   0.0000       2.824302        76.8532 
 202   0.0000       2.824432        76.8567 
 203   0.0000       2.831027        77.0362 
 204   0.0000       2.831552        77.0505 
 205   0.0000       2.883786        78.4718 
 206   0.0000       2.925186        79.5983 
 207   0.0000       2.967182        80.7411 
 208   0.0000       2.968021        80.7640 
 209   0.0000       2.981749        81.1375 
 210   0.0000       2.996580        81.5411 
 211   0.0000       3.009989        81.9060 
 212   0.0000       3.012325        81.9695 
 213   0.0000       3.080906        83.8357 
 214   0.0000       3.081191        83.8435 
 215   0.0000       3.117647        84.8355 
 216   0.0000       3.117762        84.8386 
 217   0.0000       3.128507        85.1310 
 218   0.0000       3.129112        85.1475 
 219   0.0000       3.132577        85.2418 
 220   0.0000       3.163549        86.0845 
 221   0.0000       3.200036        87.0774 
 222   0.0000       3.200078        87.0785 
 223   0.0000       3.263304        88.7990 
 224   0.0000       3.304757        89.9270 
 225   0.0000       3.304871        89.9301 
 226   0.0000       3.312968        90.1504 
 227   0.0000       3.313068        90.1532 
 228   0.0000       3.314009        90.1788 
 229   0.0000       3.320397        90.3526 
 230   0.0000       3.335790        90.7715 
 231   0.0000       3.350462        91.1707 
 232   0.0000       3.350888        91.1823 
 233   0.0000       3.395606        92.3991 
 234   0.0000       3.396008        92.4101 
 235   0.0000       3.397074        92.4391 
 236   0.0000       3.434024        93.4445 
 237   0.0000       3.434817        93.4661 
 238   0.0000       3.462382        94.2162 
 239   0.0000       3.462757        94.2264 
 240   0.0000       3.541073        96.3575 
 241   0.0000       3.576437        97.3198 
 242   0.0000       3.605795        98.1187 
 243   0.0000       3.610912        98.2579 
 244   0.0000       3.611981        98.2870 
 245   0.0000       3.618650        98.4685 
 246   0.0000       3.691444       100.4493 
 247   0.0000       3.736253       101.6686 
 248   0.0000       3.736311       101.6702 
 249   0.0000       3.743210       101.8579 
 250   0.0000       3.762649       102.3869 
 251   0.0000       3.786500       103.0359 
 252   0.0000       3.787700       103.0685 
 253   0.0000       3.794722       103.2596 
 254   0.0000       3.806852       103.5897 
 255   0.0000       3.807080       103.5959 
 256   0.0000       3.823867       104.0527 
 257   0.0000       3.862918       105.1153 
 258   0.0000       3.863135       105.1212 
 259   0.0000       3.944181       107.3266 
 260   0.0000       3.944963       107.3479 
 261   0.0000       3.964017       107.8664 
 262   0.0000       3.964619       107.8828 
 263   0.0000       4.099996       111.5666 
 264   0.0000       4.100600       111.5830 
 265   0.0000       4.107666       111.7753 
 266   0.0000       4.128900       112.3531 
 267   0.0000       4.160040       113.2004 
 268   0.0000       4.161393       113.2373 
 269   0.0000       4.190254       114.0226 
 270   0.0000       4.206431       114.4628 
 271   0.0000       4.206845       114.4741 
 272   0.0000       4.215432       114.7077 
 273   0.0000       4.236067       115.2692 
 274   0.0000       4.236171       115.2721 
 275   0.0000       4.294369       116.8557 
 276   0.0000       4.294432       116.8574 
 277   0.0000       4.318385       117.5092 
 278   0.0000       4.318504       117.5125 
 279   0.0000       4.347610       118.3045 
 280   0.0000       4.454876       121.2233 
 281   0.0000       4.455106       121.2296 
 282   0.0000       4.507094       122.6443 
 283   0.0000       4.531431       123.3065 
 284   0.0000       4.616400       125.6186 
 285   0.0000       4.616928       125.6330 
 286   0.0000       4.650695       126.5519 
 287   0.0000       4.651556       126.5753 
 288   0.0000       4.719609       128.4271 
 289   0.0000       4.732876       128.7881 
 290   0.0000       4.744863       129.1143 
 291   0.0000       4.745203       129.1235 
 292   0.0000       4.750278       129.2616 
 293   0.0000       4.750393       129.2648 
 294   0.0000       4.765518       129.6763 
 295   0.0000       4.774208       129.9128 
 296   0.0000       4.879627       132.7814 
 297   0.0000       4.880239       132.7980 
 298   0.0000       4.927429       134.0822 
 299   0.0000       5.090067       138.5078 
 300   0.0000       5.090966       138.5322 
 301   0.0000       5.096261       138.6763 
 302   0.0000       5.097565       138.7118 
 303   0.0000       5.237846       142.5290 
 304   0.0000       5.237892       142.5303 
 305   0.0000       5.258063       143.0792 
 306   0.0000       5.319346       144.7468 
 307   0.0000       5.386538       146.5751 
 308   0.0000       5.495096       149.5292 
 309   0.0000       5.496790       149.5753 
 310   0.0000       5.670992       154.3155 
 311   0.0000       5.683763       154.6630 
 312   0.0000       5.684208       154.6752 
 313   0.0000       5.759651       156.7281 
 314   0.0000       6.050609       164.6454 
 315   0.0000       6.051237       164.6625 
 316   0.0000       6.175947       168.0561 
 317   0.0000       6.739469       183.3903 
 318   0.0000      22.969045       625.0195 
 319   0.0000      23.201268       631.3386 
 320   0.0000      23.201286       631.3391 
 321   0.0000      23.328074       634.7892 
 322   0.0000      23.328134       634.7908 
 323   0.0000      24.155509       657.3048 

                    ********************************
                    * MULLIKEN POPULATION ANALYSIS *
                    ********************************

-----------------------
MULLIKEN ATOMIC CHARGES
-----------------------
   0 C :   -0.459224
   1 C :   -0.447301
   2 C :   -0.439424
   3 C :   -0.459198
   4 C :   -0.447087
   5 C :   -0.439598
   6 H :    0.448132
   7 H :    0.454116
   8 H :    0.443731
   9 H :    0.447994
  10 H :    0.454090
  11 H :    0.443769
Sum of atomic charges:    0.0000000

--------------------------------
MULLIKEN REDUCED ORBITAL CHARGES
--------------------------------
  0 C s       :     3.531416  s :     3.531416
      pz      :     0.974599  p :     2.938666
      px      :     1.106257
      py      :     0.857810
      dz2     :    -0.007094  d :    -0.017233
      dxz     :     0.005000
      dyz     :     0.001612
      dx2y2   :    -0.027917
      dxy     :     0.011166
      f0      :     0.001489  f :     0.006376
      f+1     :     0.000435
      f-1     :     0.000353
      f+2     :     0.000289
      f-2     :     0.001043
      f+3     :     0.000680
      f-3     :     0.002086
  1 C s       :     3.536374  s :     3.536374
      pz      :     0.972562  p :     2.921265
      px      :     0.922187
      py      :     1.026517
      dz2     :    -0.007092  d :    -0.016713
      dxz     :     0.002384
      dyz     :     0.003215
      dx2y2   :     0.007215
      dxy     :    -0.022436
      f0      :     0.001491  f :     0.006375
      f+1     :     0.000377
      f-1     :     0.000410
      f+2     :     0.000957
      f-2     :     0.000376
      f+3     :     0.000676
      f-3     :     0.002088
  2 C s       :     3.523042  s :     3.523042
      pz      :     0.971133  p :     2.926284
      px      :     0.895404
      py      :     1.059748
      dz2     :    -0.007462  d :    -0.016279
      dxz     :     0.001912
      dyz     :     0.003841
      dx2y2   :    -0.003900
      dxy     :    -0.010670
      f0      :     0.001488  f :     0.006376
      f+1     :     0.000369
      f-1     :     0.000420
      f+2     :     0.000756
      f-2     :     0.000581
      f+3     :     0.000676
      f-3     :     0.002087
  3 C s       :     3.531972  s :     3.531972
      pz      :     0.974599  p :     2.938100
      px      :     1.105786
      py      :     0.857714
      dz2     :    -0.007084  d :    -0.017249
      dxz     :     0.005000
      dyz     :     0.001611
      dx2y2   :    -0.027957
      dxy     :     0.011180
      f0      :     0.001489  f :     0.006376
      f+1     :     0.000435
      f-1     :     0.000353
      f+2     :     0.000289
      f-2     :     0.001043
      f+3     :     0.000680
      f-3     :     0.002086
  4 C s       :     3.536140  s :     3.536140
      pz      :     0.972561  p :     2.921255
      px      :     0.922310
      py      :     1.026384
      dz2     :    -0.007115  d :    -0.016683
      dxz     :     0.002385
      dyz     :     0.003215
      dx2y2   :     0.007259
      dxy     :    -0.022427
      f0      :     0.001491  f :     0.006375
      f+1     :     0.000377
      f-1     :     0.000410
      f+2     :     0.000957
      f-2     :     0.000376
      f+3     :     0.000676
      f-3     :     0.002088
  5 C s       :     3.523318  s :     3.523318
      pz      :     0.971133  p :     2.926149
      px      :     0.895311
      py      :     1.059705
      dz2     :    -0.007444  d :    -0.016245
      dxz     :     0.001912
      dyz     :     0.003841
      dx2y2   :    -0.003836
      dxy     :    -0.010718
      f0      :     0.001488  f :     0.006376
      f+1     :     0.000369
      f-1     :     0.000420
      f+2     :     0.000756
      f-2     :     0.000581
      f+3     :     0.000676
      f-3     :     0.002087
  6 H s       :     0.504032  s :     0.504032
      pz      :     0.017883  p :     0.046100
      px      :    -0.006587
      py      :     0.034805
      dz2     :    -0.000186  d :     0.001735
      dxz     :     0.001006
      dyz     :     0.000015
      dx2y2   :    -0.000389
      dxy     :     0.001289
  7 H s       :     0.499703  s :     0.499703
      pz      :     0.017250  p :     0.044461
      px      :     0.020952
      py      :     0.006259
      dz2     :    -0.000180  d :     0.001719
      dxz     :     0.000321
      dyz     :     0.000679
      dx2y2   :     0.001082
      dxy     :    -0.000184
  8 H s       :     0.509870  s :     0.509870
      pz      :     0.017086  p :     0.044653
      px      :     0.026585
      py      :     0.000982
      dz2     :    -0.000189  d :     0.001746
      dxz     :     0.000201
      dyz     :     0.000833
      dx2y2   :     0.000647
      dxy     :     0.000254
  9 H s       :     0.504180  s :     0.504180
      pz      :     0.017883  p :     0.046090
      px      :    -0.006593
      py      :     0.034799
      dz2     :    -0.000186  d :     0.001735
      dxz     :     0.001006
      dyz     :     0.000015
      dx2y2   :    -0.000389
      dxy     :     0.001289
 10 H s       :     0.499741  s :     0.499741
      pz      :     0.017250  p :     0.044450
      px      :     0.020955
      py      :     0.006246
      dz2     :    -0.000180  d :     0.001719
      dxz     :     0.000321
      dyz     :     0.000679
      dx2y2   :     0.001082
      dxy     :    -0.000184
 11 H s       :     0.509824  s :     0.509824
      pz      :     0.017086  p :     0.044661
      px      :     0.026578
      py      :     0.000997
      dz2     :    -0.000189  d :     0.001746
      dxz     :     0.000201
      dyz     :     0.000833
      dx2y2   :     0.000647
      dxy     :     0.000254


                     *******************************
                     * LOEWDIN POPULATION ANALYSIS *
                     *******************************

----------------------
LOEWDIN ATOMIC CHARGES
----------------------
   0 C :   -0.000777
   1 C :   -0.000652
   2 C :   -0.000705
   3 C :   -0.000777
   4 C :   -0.000652
   5 C :   -0.000705
   6 H :    0.000713
   7 H :    0.000784
   8 H :    0.000637
   9 H :    0.000713
  10 H :    0.000784
  11 H :    0.000637

-------------------------------
LOEWDIN REDUCED ORBITAL CHARGES
-------------------------------
  0 C s       :     2.651772  s :     2.651772
      pz      :     0.734097  p :     2.618328
      px      :     0.925837
      py      :     0.958393
      dz2     :     0.060601  d :     0.687755
      dxz     :     0.035297
      dyz     :     0.135442
      dx2y2   :     0.278711
      dxy     :     0.177705
      f0      :     0.002607  f :     0.042923
      f+1     :     0.003213
      f-1     :     0.003916
      f+2     :     0.002059
      f-2     :     0.007118
      f+3     :     0.009024
      f-3     :     0.014987
  1 C s       :     2.651772  s :     2.651772
      pz      :     0.733961  p :     2.618184
      px      :     0.948099
      py      :     0.936124
      dz2     :     0.060592  d :     0.687767
      dxz     :     0.103891
      dyz     :     0.066849
      dx2y2   :     0.189528
      dxy     :     0.266908
      f0      :     0.002607  f :     0.042929
      f+1     :     0.003696
      f-1     :     0.003437
      f+2     :     0.006525
      f-2     :     0.002653
      f+3     :     0.009023
      f-3     :     0.014988
  2 C s       :     2.651773  s :     2.651773
      pz      :     0.734031  p :     2.618242
      px      :     0.952371
      py      :     0.931840
      dz2     :     0.060591  d :     0.687769
      dxz     :     0.116913
      dyz     :     0.053830
      dx2y2   :     0.216412
      dxy     :     0.240022
      f0      :     0.002608  f :     0.042920
      f+1     :     0.003787
      f-1     :     0.003341
      f+2     :     0.005179
      f-2     :     0.003996
      f+3     :     0.009022
      f-3     :     0.014986
  3 C s       :     2.651772  s :     2.651772
      pz      :     0.734097  p :     2.618328
      px      :     0.925837
      py      :     0.958394
      dz2     :     0.060601  d :     0.687755
      dxz     :     0.035297
      dyz     :     0.135442
      dx2y2   :     0.278710
      dxy     :     0.177705
      f0      :     0.002607  f :     0.042923
      f+1     :     0.003213
      f-1     :     0.003916
      f+2     :     0.002059
      f-2     :     0.007118
      f+3     :     0.009024
      f-3     :     0.014987
  4 C s       :     2.651772  s :     2.651772
      pz      :     0.733961  p :     2.618184
      px      :     0.948098
      py      :     0.936125
      dz2     :     0.060592  d :     0.687768
      dxz     :     0.103891
      dyz     :     0.066849
      dx2y2   :     0.189528
      dxy     :     0.266908
      f0      :     0.002607  f :     0.042929
      f+1     :     0.003696
      f-1     :     0.003437
      f+2     :     0.006525
      f-2     :     0.002653
      f+3     :     0.009023
      f-3     :     0.014988
  5 C s       :     2.651773  s :     2.651773
      pz      :     0.734032  p :     2.618242
      px      :     0.952370
      py      :     0.931840
      dz2     :     0.060591  d :     0.687769
      dxz     :     0.116913
      dyz     :     0.053830
      dx2y2   :     0.216413
      dxy     :     0.240022
      f0      :     0.002608  f :     0.042920
      f+1     :     0.003787
      f-1     :     0.003341
      f+2     :     0.005179
      f-2     :     0.003996
      f+3     :     0.009022
      f-3     :     0.014986
  6 H s       :     0.708058  s :     0.708058
      pz      :     0.074948  p :     0.261982
      px      :     0.120676
      py      :     0.066359
      dz2     :     0.002724  d :     0.029246
      dxz     :     0.008437
      dyz     :     0.000068
      dx2y2   :     0.008584
      dxy     :     0.009434
  7 H s       :     0.708041  s :     0.708041
      pz      :     0.074913  p :     0.261939
      px      :     0.083456
      py      :     0.103571
      dz2     :     0.002729  d :     0.029236
      dxz     :     0.002701
      dyz     :     0.005789
      dx2y2   :     0.009328
      dxy     :     0.008690
  8 H s       :     0.708115  s :     0.708115
      pz      :     0.074969  p :     0.261996
      px      :     0.076410
      py      :     0.110618
      dz2     :     0.002720  d :     0.029252
      dxz     :     0.001618
      dyz     :     0.006895
      dx2y2   :     0.009108
      dxy     :     0.008910
  9 H s       :     0.708059  s :     0.708059
      pz      :     0.074948  p :     0.261982
      px      :     0.120676
      py      :     0.066359
      dz2     :     0.002724  d :     0.029246
      dxz     :     0.008437
      dyz     :     0.000068
      dx2y2   :     0.008584
      dxy     :     0.009434
 10 H s       :     0.708041  s :     0.708041
      pz      :     0.074913  p :     0.261939
      px      :     0.083456
      py      :     0.103571
      dz2     :     0.002729  d :     0.029236
      dxz     :     0.002701
      dyz     :     0.005789
      dx2y2   :     0.009328
      dxy     :     0.008690
 11 H s       :     0.708115  s :     0.708115
      pz      :     0.074969  p :     0.261996
      px      :     0.076410
      py      :     0.110618
      dz2     :     0.002720  d :     0.029252
      dxz     :     0.001618
      dyz     :     0.006895
      dx2y2   :     0.009108
      dxy     :     0.008910


                      *****************************
                      * MAYER POPULATION ANALYSIS *
                      *****************************

  NA   - Mulliken gross atomic population
  ZA   - Total nuclear charge
  QA   - Mulliken gross atomic charge
  VA   - Mayer's total valence
  BVA  - Mayer's bonded valence
  FA   - Mayer's free valence

  ATOM       NA         ZA         QA         VA         BVA        FA
  0 C      6.4592     6.0000    -0.4592     2.5051     2.5051     0.0000
  1 C      6.4473     6.0000    -0.4473     2.4876     2.4876     0.0000
  2 C      6.4394     6.0000    -0.4394     2.4952     2.4952    -0.0000
  3 C      6.4592     6.0000    -0.4592     2.5045     2.5045    -0.0000
  4 C      6.4471     6.0000    -0.4471     2.4871     2.4871     0.0000
  5 C      6.4396     6.0000    -0.4396     2.4953     2.4953    -0.0000
  6 H      0.5519     1.0000     0.4481     0.7812     0.7812     0.0000
  7 H      0.5459     1.0000     0.4541     0.7728     0.7728     0.0000
  8 H      0.5563     1.0000     0.4437     0.7844     0.7844    -0.0000
  9 H      0.5520     1.0000     0.4480     0.7813     0.7813     0.0000
 10 H      0.5459     1.0000     0.4541     0.7728     0.7728     0.0000
 11 H      0.5562     1.0000     0.4438     0.7844     0.7844    -0.0000

  Mayer bond orders larger than 0.100000
B(  0-C ,  1-C ) :   0.8864 B(  0-C ,  5-C ) :   0.8846 B(  0-C ,  6-H ) :   0.8840 
B(  1-C ,  2-C ) :   0.8706 B(  1-C ,  7-H ) :   0.8787 B(  2-C ,  3-C ) :   0.8845 
B(  2-C ,  8-H ) :   0.8919 B(  3-C ,  4-C ) :   0.8856 B(  3-C ,  9-H ) :   0.8843 
B(  4-C ,  5-C ) :   0.8708 B(  4-C , 10-H ) :   0.8788 B(  5-C , 11-H ) :   0.8918 


-------
TIMINGS
-------

Total SCF time: 0 days 0 hours 0 min 16 sec 

Total time                  ....      16.492 sec
Sum of individual times     ....      16.184 sec  ( 98.1%)

Fock matrix formation       ....      15.534 sec  ( 94.2%)
  XC integration            ....       1.423 sec  (  9.2% of F)
    Basis function eval.    ....       0.132 sec  (  9.3% of XC)
    Density eval.           ....       0.321 sec  ( 22.6% of XC)
    XC-Functional eval.     ....       0.123 sec  (  8.6% of XC)
    XC-Potential eval.      ....       0.724 sec  ( 50.9% of XC)
Diagonalization             ....       0.105 sec  (  0.6%)
Density matrix formation    ....       0.016 sec  (  0.1%)
Population analysis         ....       0.017 sec  (  0.1%)
Initial guess               ....       0.177 sec  (  1.1%)
Orbital Transformation      ....       0.000 sec  (  0.0%)
Orbital Orthonormalization  ....       0.000 sec  (  0.0%)
DIIS solution               ....       0.041 sec  (  0.3%)
SOSCF solution              ....       0.039 sec  (  0.2%)
Grid generation             ....       0.254 sec  (  1.5%)


-------------------------------------------------------------------------------
                          DFT DISPERSION CORRECTION                            
                                                                               
                              DFTD3 V3.1  Rev 1                                
                              USING zero damping                               
-------------------------------------------------------------------------------
The M06 functional is recognized
Active option DFTDOPT                   ...         3   

molecular C6(AA) [au] = 1659.763720 


            DFT-D V3
 parameters
 s6 scaling factor         :     1.0000 
 rs6 scaling factor        :     1.3250 
 s8 scaling factor         :     0.0000 
 rs8 scaling factor        :     1.0000 
 Damping factor alpha6     :    14.0000 
 Damping factor alpha8     :    16.0000 
 ad hoc parameters k1-k3   :    16.0000     1.3333    -4.0000 

 Edisp/kcal,au: -0.457146372880  -0.000728509039 
 E6   /kcal   :  -0.457146373 
 E8   /kcal   :  -0.000000000 
 % E8         :   0.000000000 

-------------------------   ----------------
Dispersion correction           -0.000728509
-------------------------   ----------------


-------------------------   --------------------
FINAL SINGLE POINT ENERGY      -232.142060845072
-------------------------   --------------------


                            ***************************************
                            *     ORCA property calculations      *
                            ***************************************

                                    ---------------------
                                    Active property flags
                                    ---------------------
   (+) Dipole Moment


------------------------------------------------------------------------------
                       ORCA ELECTRIC PROPERTIES CALCULATION
------------------------------------------------------------------------------

Dipole Moment Calculation                       ... on
Quadrupole Moment Calculation                   ... off
Polarizability Calculation                      ... off
GBWName                                         ... MOR02_bz.gbw
Electron density file                           ... MOR02_bz.scfp
The origin for moment calculation is the CENTER OF MASS  = ( 0.000000, -0.000000 -0.000003)

-------------
DIPOLE MOMENT
-------------
                                X             Y             Z
Electronic contribution:     -0.00000       0.00000      -0.00010
Nuclear contribution   :      0.00000      -0.00000       0.00014
                        -----------------------------------------
Total Dipole Moment    :     -0.00000      -0.00000       0.00004
                        -----------------------------------------
Magnitude (a.u.)       :      0.00004
Magnitude (Debye)      :      0.00010



--------------------
Rotational spectrum 
--------------------
 
Rotational constants in cm-1:     0.189759     0.189757     0.094879 
Rotational constants in MHz :  5688.823776  5688.770067  2844.398461 

 Dipole components along the rotational axes: 
x,y,z [a.u.] :    -0.000000     0.000000     0.000038 
x,y,z [Debye]:    -0.000000     0.000001     0.000095 

 

Timings for individual modules:

Sum of individual times         ...       17.571 sec (=   0.293 min)
GTO integral calculation        ...        0.715 sec (=   0.012 min)   4.1 %
SCF iterations                  ...       16.856 sec (=   0.281 min)  95.9 %
                             ****ORCA TERMINATED NORMALLY****
TOTAL RUN TIME: 0 days 0 hours 0 minutes 18 seconds 69 msec
