
                                 *****************
                                 * O   R   C   A *
                                 *****************

           --- An Ab Initio, DFT and Semiempirical electronic structure package ---

                  #######################################################
                  #                        -***-                        #
                  #          Department of theory and spectroscopy      #
                  #               Directorship: Frank Neese             #
                  #        Max Planck Institute fuer Kohlenforschung    #
                  #                Kaiser Wilhelm Platz 1               #
                  #                 D-45470 Muelheim/Ruhr               #
                  #                      Germany                        #
                  #                                                     #
                  #                  All rights reserved                #
                  #                        -***-                        #
                  #######################################################


                         Program Version 4.2.0 -  RELEASE  -


 With contributions from (in alphabetic order):
   Daniel Aravena         : Magnetic Suceptibility
   Michael Atanasov       : Ab Initio Ligand Field Theory (pilot matlab implementation)
   Alexander A. Auer      : GIAO ZORA, VPT2
   Ute Becker             : Parallelization
   Giovanni Bistoni       : ED, misc. LED, open-shell LED, HFLED
   Martin Brehm           : Molecular dynamics
   Dmytro Bykov           : SCF Hessian
   Vijay G. Chilkuri      : MRCI spin determinant printing, contributions to CSF-ICE
   Dipayan Datta          : RHF DLPNO-CCSD density
   Achintya Kumar Dutta   : EOM-CC, STEOM-CC
   Dmitry Ganyushin       : Spin-Orbit,Spin-Spin,Magnetic field MRCI
   Miquel Garcia          : C-PCM Hessian, Gaussian charge scheme
   Yang Guo               : DLPNO-NEVPT2, CIM, IAO-localization
   Andreas Hansen         : Spin unrestricted coupled pair/coupled cluster methods
   Benjamin Helmich-Paris : CASSCF linear response (MC-RPA)
   Lee Huntington         : MR-EOM, pCC
   Robert Izsak           : Overlap fitted RIJCOSX, COSX-SCS-MP3, EOM
   Christian Kollmar      : KDIIS, OOCD, Brueckner-CCSD(T), CCSD density
   Simone Kossmann        : Meta GGA functionals, TD-DFT gradient, OOMP2, MP2 Hessian
   Martin Krupicka        : AUTO-CI
   Lucas Lang             : DCDCAS
   Dagmar Lenk            : GEPOL surface, SMD
   Dimitrios Liakos       : Extrapolation schemes; Compound Job, initial MDCI parallelization
   Dimitrios Manganas     : Further ROCIS development; embedding schemes
   Dimitrios Pantazis     : SARC Basis sets
   Taras Petrenko         : DFT Hessian,TD-DFT gradient, ASA, ECA, R-Raman, ABS, FL, XAS/XES, NRVS
   Peter Pinski           : DLPNO-MP2, DLPNO-MP2 Gradient
   Christoph Reimann      : Effective Core Potentials
   Marius Retegan         : Local ZFS, SOC
   Christoph Riplinger    : Optimizer, TS searches, QM/MM, DLPNO-CCSD(T), (RO)-DLPNO pert. Triples
   Tobias Risthaus        : Range-separated hybrids, TD-DFT gradient, RPA, STAB
   Michael Roemelt        : Original ROCIS implementation
   Masaaki Saitow         : Open-shell DLPNO-CCSD energy and density
   Barbara Sandhoefer     : DKH picture change effects
   Avijit Sen             : IP-ROCIS
   Kantharuban Sivalingam : CASSCF convergence, NEVPT2, FIC-MRCI
   Bernardo de Souza      : ESD, SOC TD-DFT
   Georgi Stoychev        : AutoAux, RI-MP2 NMR
   Willem Van den Heuvel  : Paramagnetic NMR
   Boris Wezisla          : Elementary symmetry handling
   Frank Wennmohs         : Technical directorship


 We gratefully acknowledge several colleagues who have allowed us to
 interface, adapt or use parts of their codes:
   Stefan Grimme, W. Hujo, H. Kruse,             : VdW corrections, initial TS optimization,
                  C. Bannwarth                     DFT functionals, gCP, sTDA/sTD-DF
   Ed Valeev, F. Pavosevic, A. Kumar             : LibInt (2-el integral package), F12 methods
   Garnet Chan, S. Sharma, J. Yang, R. Olivares  : DMRG
   Ulf Ekstrom                                   : XCFun DFT Library
   Mihaly Kallay                                 : mrcc  (arbitrary order and MRCC methods)
   Andreas Klamt, Michael Diedenhofen            : otool_cosmo (COSMO solvation model)
   Jiri Pittner, Ondrej Demel                    : Mk-CCSD
   Frank Weinhold                                : gennbo (NPA and NBO analysis)
   Christopher J. Cramer and Donald G. Truhlar   : smd solvation model
   Lars Goerigk                                  : TD-DFT with DH, B97 family of functionals
   V. Asgeirsson, H. Jonsson                     : NEB implementation
   FAccTs GmbH                                   : IRC, NEB, NEB-TS, Multilevel, MM, QM/MM, CI optimization
   S Lehtola, MJT Oliveira, MAL Marques          : LibXC Library


 Your calculation uses the libint2 library for the computation of 2-el integrals
 For citations please refer to: http://libint.valeyev.net

 Your ORCA version has been built with support for libXC version: 4.2.3
 For citations please refer to: https://tddft.org/programs/libxc/

 This ORCA versions uses:
   CBLAS   interface :  Fast vector & matrix operations
   LAPACKE interface :  Fast linear algebra routines
   SCALAPACK package :  Parallel linear algebra routines


Your calculation utilizes the atom-pairwise dispersion correction
with the zero-damping scheme (D30)
Cite in your paper:
S.Grimme, J.Antony, S.Ehrlich and H.Krieg, J.Chem.Phys., 132, (2010), 154104 
   

XCFun DFT library Copyright 2009-2010 Ulf Ekstrom and contributors.
See http://admol.org/xcfun for more information. This is free soft-
ware; see the source code for copying conditions. There is ABSOLUTELY
NO WARRANTY; not even for MERCHANTABILITY or FITNESS FOR A PARTICULAR
PURPOSE. For details see the documentation. Scientific users of this 
library should cite U. Ekstrom, L. Visscher, R. Bast, A. J. Thorvald-
sen and K. Ruud; J.Chem.Theor.Comp. 2010, DOI: 10.1021/ct100117s
XCFun Version 0.99 
----- Orbital basis set information -----
Your calculation utilizes the basis: def2-TZVPPD
   F. Weigend and R. Ahlrichs, Phys. Chem. Chem. Phys. 7, 3297 (2005).
   D. Rappoport and F. Furche, J. Chem. Phys. 133 134105 (2010).

----- AuxJK basis set information -----
Your calculation utilizes the auxiliary basis: def2/JK
   H-Ba, Hf-Rn: F. Weigend, J. Comput. Chem. 29, 167 (2008).

cite the ECPs for Rh [Def2-ECP] as follows:
Ce-Yb(ecp-28): M. Dolg, H. Stoll, H.Preuss, J. Chem. Phys., 1989, 90, 1730-1734.
Y-Cd(ecp-28), Hf-Hg(ecp-46): D. Andrae,U. Haeussermann, M. Dolg, H. Stoll, H. Preuss, Theor. Chim. Acta, 1990, 77, 123-141.
In-Sb(ecp-28), Tl-Bi(ecp-46): B. Metz, H. Stoll, M. Dolg, J. Chem. Phys., 2000, 113, 2563-2569.
Te-Xe(ecp-28), Po-Rn(ecp-46): K. A. Peterson, D. Figgen, E. Goll, H. Stoll, M. Dolg, J. Chem. Phys., 2003, 119, 11113-11123.
Rb(ecp-28), Cs(ecp-46): T. Leininger, A. Nicklass, W. Kuechle, H. Stoll, M. Dolg, A. Bergner, Chem. Phys. Lett., 1996, 255, 274-280.
Sr(ecp-28), Ba(ecp-46): M. Kaupp, P. V. Schleyer, H. Stoll and H. Preuss, J. Chem. Phys., 1991, 94, 1360-1366.
La(ecp-46): M. Dolg, H. Stoll, A. Savin, H. Preuss, Theor. Chim. Acta, 1989, 75, 173-194.
Lu(ecp-28): X. Cao, M. Dolg, J. Chem. Phys., 2001, 115, 7348-7355.

ECP parameters for Rh [Def2-ECP] have been obtained from:
TURBOMOLE (7.0.2)

================================================================================
                                        WARNINGS
                       Please study these warnings very carefully!
================================================================================


WARNING: Minnesota functionals are quite sensitive to the integration grid.
         see SE Wheeler, KN Houk, JCTC 2010, 6, 395,
             N Mardirossian, M Head-Gordon, JCTC 2016, 12, 4303.
         Grid6 seems to be a minimum grid for reliable results with these functionals!
  ===> : Please increase the integration grid!


INFO   : the flag for use of LIBINT has been found!

================================================================================
                                       INPUT FILE
================================================================================
NAME = MOR10_ed09.in
|  1> #
|  2> # MOR10_ed09 M06-D3/Def2-TZVPPD
|  3> #
|  4> ! m06 d3zero def2-tzvppd def2/jk grid4 nofinalgrid
|  5> 
|  6> *xyz 0 1
|  7> C        0.808995    0.630455    2.540471 
|  8> C        1.251846    1.095590    1.293526 
|  9> C        1.383898    2.476779    1.093534 
| 10> C        1.096273    3.369549    2.123624 
| 11> C        0.674512    2.896605    3.366402 
| 12> C        0.527691    1.524549    3.571013 
| 13> P        1.574642   -0.069667   -0.082699 
| 14> C        2.832960    0.843508   -1.058615 
| 15> C        2.470614    1.376098   -2.300811 
| 16> C        3.389175    2.120533   -3.040434 
| 17> C        4.677141    2.329565   -2.547864 
| 18> C        5.047172    1.790502   -1.313611 
| 19> C        4.129605    1.051595   -0.570111 
| 20> Rh      -0.002604   -0.796146   -1.344377 
| 21> Cl       1.074079   -1.834200   -3.101706 
| 22> P       -1.622228   -0.075877   -0.088018 
| 23> C       -1.803842    1.702415    0.297126 
| 24> C       -2.229632    2.223789    1.521581 
| 25> C       -2.349352    3.604004    1.692487 
| 26> C       -2.048907    4.471915    0.644369 
| 27> C       -1.606201    3.958746   -0.577355 
| 28> C       -1.475459    2.583893   -0.746478 
| 29> C       -3.062543   -0.419252   -1.169366 
| 30> C       -3.141320   -1.718422   -1.702099 
| 31> C       -4.157899   -2.054399   -2.592475 
| 32> C       -5.110047   -1.100127   -2.955969 
| 33> C       -5.041177    0.189383   -2.426273 
| 34> C       -4.021006    0.532927   -1.539475 
| 35> C       -2.066176   -1.000166    1.430207 
| 36> C       -1.181452   -1.986758    1.882501 
| 37> C       -1.497950   -2.762866    2.997043 
| 38> C       -2.708929   -2.565810    3.661246 
| 39> C       -3.611118   -1.604929    3.197782 
| 40> C       -3.296146   -0.830428    2.082866 
| 41> C        2.526762   -1.412838    0.731905 
| 42> C        3.276788   -1.210573    1.900876 
| 43> C        4.004905   -2.259926    2.460546 
| 44> C        3.996021   -3.518658    1.858231 
| 45> C        3.258939   -3.724012    0.690924 
| 46> C        2.525229   -2.679846    0.130400 
| 47> H       -2.400862   -2.462118   -1.411221 
| 48> H       -4.205196   -3.058543   -3.003745 
| 49> H       -5.903513   -1.360959   -3.650464 
| 50> H       -5.783053    0.932397   -2.706210 
| 51> H       -3.967070    1.539632   -1.137031 
| 52> H       -2.450107    1.557807    2.348608 
| 53> H       -2.671735    3.999637    2.651651 
| 54> H       -2.145762    5.545320    0.781176 
| 55> H       -1.354424    4.630618   -1.393167 
| 56> H       -1.106831    2.171328   -1.683412 
| 57> H       -0.254747   -2.145782    1.334840 
| 58> H       -0.803470   -3.525000    3.339550 
| 59> H       -2.958943   -3.170852    4.528281 
| 60> H       -4.564895   -1.467934    3.699990 
| 61> H       -4.014311   -0.106909    1.706849 
| 62> H        3.285372   -0.236670    2.380292 
| 63> H        4.578140   -2.092663    3.368393 
| 64> H        4.561493   -4.335782    2.297848 
| 65> H        3.251715   -4.700268    0.214323 
| 66> H        1.950377   -2.830532   -0.780423 
| 67> H        1.471910    1.178524   -2.682000 
| 68> H        3.101239    2.524675   -4.006836 
| 69> H        5.396289    2.901586   -3.127755 
| 70> H        6.053788    1.939891   -0.932858 
| 71> H        4.425922    0.628717    0.384972 
| 72> H        1.719088    2.850389    0.131432 
| 73> H        1.199114    4.437105    1.952609 
| 74> H        0.454504    3.594780    4.169138 
| 75> H        0.193294    1.146402    4.533186 
| 76> H        0.698101   -0.433995    2.712341 
| 77> *
| 78> 
| 79> %maxcore 5000
| 80> 
| 81> %pal
| 82> nprocs = 24
| 83> end
| 84> 
| 85> 
| 86>                          ****END OF INPUT****
================================================================================

                       ****************************
                       * Single Point Calculation *
                       ****************************

---------------------------------
CARTESIAN COORDINATES (ANGSTROEM)
---------------------------------
  C      0.808995    0.630455    2.540471
  C      1.251846    1.095590    1.293526
  C      1.383898    2.476779    1.093534
  C      1.096273    3.369549    2.123624
  C      0.674512    2.896605    3.366402
  C      0.527691    1.524549    3.571013
  P      1.574642   -0.069667   -0.082699
  C      2.832960    0.843508   -1.058615
  C      2.470614    1.376098   -2.300811
  C      3.389175    2.120533   -3.040434
  C      4.677141    2.329565   -2.547864
  C      5.047172    1.790502   -1.313611
  C      4.129605    1.051595   -0.570111
  Rh    -0.002604   -0.796146   -1.344377
  Cl     1.074079   -1.834200   -3.101706
  P     -1.622228   -0.075877   -0.088018
  C     -1.803842    1.702415    0.297126
  C     -2.229632    2.223789    1.521581
  C     -2.349352    3.604004    1.692487
  C     -2.048907    4.471915    0.644369
  C     -1.606201    3.958746   -0.577355
  C     -1.475459    2.583893   -0.746478
  C     -3.062543   -0.419252   -1.169366
  C     -3.141320   -1.718422   -1.702099
  C     -4.157899   -2.054399   -2.592475
  C     -5.110047   -1.100127   -2.955969
  C     -5.041177    0.189383   -2.426273
  C     -4.021006    0.532927   -1.539475
  C     -2.066176   -1.000166    1.430207
  C     -1.181452   -1.986758    1.882501
  C     -1.497950   -2.762866    2.997043
  C     -2.708929   -2.565810    3.661246
  C     -3.611118   -1.604929    3.197782
  C     -3.296146   -0.830428    2.082866
  C      2.526762   -1.412838    0.731905
  C      3.276788   -1.210573    1.900876
  C      4.004905   -2.259926    2.460546
  C      3.996021   -3.518658    1.858231
  C      3.258939   -3.724012    0.690924
  C      2.525229   -2.679846    0.130400
  H     -2.400862   -2.462118   -1.411221
  H     -4.205196   -3.058543   -3.003745
  H     -5.903513   -1.360959   -3.650464
  H     -5.783053    0.932397   -2.706210
  H     -3.967070    1.539632   -1.137031
  H     -2.450107    1.557807    2.348608
  H     -2.671735    3.999637    2.651651
  H     -2.145762    5.545320    0.781176
  H     -1.354424    4.630618   -1.393167
  H     -1.106831    2.171328   -1.683412
  H     -0.254747   -2.145782    1.334840
  H     -0.803470   -3.525000    3.339550
  H     -2.958943   -3.170852    4.528281
  H     -4.564895   -1.467934    3.699990
  H     -4.014311   -0.106909    1.706849
  H      3.285372   -0.236670    2.380292
  H      4.578140   -2.092663    3.368393
  H      4.561493   -4.335782    2.297848
  H      3.251715   -4.700268    0.214323
  H      1.950377   -2.830532   -0.780423
  H      1.471910    1.178524   -2.682000
  H      3.101239    2.524675   -4.006836
  H      5.396289    2.901586   -3.127755
  H      6.053788    1.939891   -0.932858
  H      4.425922    0.628717    0.384972
  H      1.719088    2.850389    0.131432
  H      1.199114    4.437105    1.952609
  H      0.454504    3.594780    4.169138
  H      0.193294    1.146402    4.533186
  H      0.698101   -0.433995    2.712341

----------------------------
CARTESIAN COORDINATES (A.U.)
----------------------------
  NO LB      ZA    FRAG     MASS         X           Y           Z
   0 C     6.0000    0    12.011    1.528779    1.191387    4.800794
   1 C     6.0000    0    12.011    2.365646    2.070365    2.444410
   2 C     6.0000    0    12.011    2.615188    4.680434    2.066480
   3 C     6.0000    0    12.011    2.071656    6.367525    4.013068
   4 C     6.0000    0    12.011    1.274643    5.473790    6.361578
   5 C     6.0000    0    12.011    0.997191    2.880980    6.748237
   6 P    15.0000    0    30.974    2.975642   -0.131652   -0.156278
   7 C     6.0000    0    12.011    5.353519    1.593999   -2.000492
   8 C     6.0000    0    12.011    4.668784    2.600448   -4.347903
   9 C     6.0000    0    12.011    6.404613    4.007227   -5.745588
  10 C     6.0000    0    12.011    8.838516    4.402240   -4.814765
  11 C     6.0000    0    12.011    9.537773    3.383558   -2.482365
  12 C     6.0000    0    12.011    7.803822    1.987227   -1.077354
  13 Rh   17.0000*   0   102.910   -0.004921   -1.504498   -2.540504
  14 Cl   17.0000    0    35.453    2.029715   -3.466136   -5.861375
  15 P    15.0000    0    30.974   -3.065567   -0.143387   -0.166330
  16 C     6.0000    0    12.011   -3.408767    3.217098    0.561487
  17 C     6.0000    0    12.011   -4.213394    4.202352    2.875371
  18 C     6.0000    0    12.011   -4.439632    6.810581    3.198337
  19 C     6.0000    0    12.011   -3.871873    8.450695    1.217681
  20 C     6.0000    0    12.011   -3.035280    7.480946   -1.091043
  21 C     6.0000    0    12.011   -2.788213    4.882850   -1.410639
  22 C     6.0000    0    12.011   -5.787368   -0.792271   -2.209781
  23 C     6.0000    0    12.011   -5.936234   -3.247347   -3.216501
  24 C     6.0000    0    12.011   -7.857290   -3.882251   -4.899068
  25 C     6.0000    0    12.011   -9.656589   -2.078939   -5.585972
  26 C     6.0000    0    12.011   -9.526444    0.357882   -4.584991
  27 C     6.0000    0    12.011   -7.598600    1.007086   -2.909186
  28 C     6.0000    0    12.011   -3.904507   -1.890040    2.702700
  29 C     6.0000    0    12.011   -2.232621   -3.754429    3.557411
  30 C     6.0000    0    12.011   -2.830715   -5.221060    5.663590
  31 C     6.0000    0    12.011   -5.119134   -4.848678    6.918752
  32 C     6.0000    0    12.011   -6.824024   -3.032876    6.042932
  33 C     6.0000    0    12.011   -6.228813   -1.569281    3.936046
  34 C     6.0000    0    12.011    4.774888   -2.669877    1.383100
  35 C     6.0000    0    12.011    6.192232   -2.287651    3.592135
  36 C     6.0000    0    12.011    7.568174   -4.270641    4.649758
  37 C     6.0000    0    12.011    7.551385   -6.649300    3.511548
  38 C     6.0000    0    12.011    6.158502   -7.037363    1.305657
  39 C     6.0000    0    12.011    4.771991   -5.064175    0.246420
  40 H     1.0000    0     1.008   -4.536972   -4.652729   -2.666821
  41 H     1.0000    0     1.008   -7.946669   -5.779809   -5.676255
  42 H     1.0000    0     1.008  -11.156023   -2.571840   -6.898377
  43 H     1.0000    0     1.008  -10.928386    1.761975   -5.113996
  44 H     1.0000    0     1.008   -7.496676    2.909483   -2.148677
  45 H     1.0000    0     1.008   -4.630031    2.943829    4.438226
  46 H     1.0000    0     1.008   -5.048847    7.558219    5.010894
  47 H     1.0000    0     1.008   -4.054903   10.479136    1.476209
  48 H     1.0000    0     1.008   -2.559490    8.750600   -2.632704
  49 H     1.0000    0     1.008   -2.091607    4.103215   -3.181188
  50 H     1.0000    0     1.008   -0.481402   -4.054940    2.522482
  51 H     1.0000    0     1.008   -1.518338   -6.661285    6.310835
  52 H     1.0000    0     1.008   -5.591592   -5.992042    8.557211
  53 H     1.0000    0     1.008   -8.626401   -2.773993    6.991968
  54 H     1.0000    0     1.008   -7.585948   -0.202029    3.225477
  55 H     1.0000    0     1.008    6.208453   -0.447241    4.498100
  56 H     1.0000    0     1.008    8.651431   -3.954560    6.365340
  57 H     1.0000    0     1.008    8.619973   -8.193441    4.342303
  58 H     1.0000    0     1.008    6.144851   -8.882219    0.405012
  59 H     1.0000    0     1.008    3.685678   -5.348930   -1.474786
  60 H     1.0000    0     1.008    2.781507    2.227088   -5.068245
  61 H     1.0000    0     1.008    5.860492    4.770944   -7.571823
  62 H     1.0000    0     1.008   10.197508    5.483203   -5.910600
  63 H     1.0000    0     1.008   11.440001    3.665863   -1.762846
  64 H     1.0000    0     1.008    8.363780    1.188103    0.727492
  65 H     1.0000    0     1.008    3.248606    5.386455    0.248370
  66 H     1.0000    0     1.008    2.265997    8.384913    3.689896
  67 H     1.0000    0     1.008    0.858888    6.793150    7.878529
  68 H     1.0000    0     1.008    0.365273    2.166386    8.566480
  69 H     1.0000    0     1.008    1.319220   -0.820132    5.125582
* core charge reduced due to ECP

--------------------------------
INTERNAL COORDINATES (ANGSTROEM)
--------------------------------
 C      0   0   0     0.000000000000     0.00000000     0.00000000
 C      1   0   0     1.402618768394     0.00000000     0.00000000
 C      2   1   0     1.401826517258   118.90180699     0.00000000
 C      3   2   1     1.393144580302   120.42843219     0.83820739
 C      4   3   2     1.395010941011   120.25653494     0.05614847
 C      1   2   3     1.393037269787   120.56983421   358.87056170
 P      2   1   3     1.831943335447   120.83432960   183.02036390
 C      7   2   1     1.835664677659   101.75631923   206.91237124
 C      8   7   2     1.399284686628   118.93345329   250.88364388
 C      9   8   7     1.394625384135   120.22602970   177.42027668
 C     10   9   8     1.394695665398   120.06229825     0.43077663
 C     11  10   9     1.396743472130   119.92686884     0.10935244
 C     12  11  10     1.393091886466   120.12112872   359.60173541
 Rh     7   2   1     2.146464082542   121.82851499    82.75553087
 Cl    14   7   2     2.307597799368   104.89389407   168.60243162
 P     14   7   2     2.172649826967    95.48996015   347.94732276
 C     16  14   7     1.828562818991   121.21420767    59.69672999
 C     17  16  14     1.397289525832   125.28987829   216.90555073
 C     18  17  16     1.395899418103   120.15658434   180.97498081
 C     19  18  17     1.393588190202   120.34581645     0.15488265
 C     20  19  18     1.397118662524   119.81771675   359.02892369
 C     21  20  19     1.391372283504   119.93459909     0.43299219
 C     16  14   7     1.833501346319   100.51374466   172.27814484
 C     23  16  14     1.406361601409   116.13028508    50.29604268
 C     24  23  16     1.392509543646   120.39676507   183.51832406
 C     25  24  23     1.396190800687   119.96128407   359.70107647
 C     26  25  24     1.395763937568   119.93385930     0.00000000
 C     27  26  25     1.394697831783   120.32890195     0.32196931
 C     16  14   7     1.832049980991   119.51130497   282.35937928
 C     29  16  14     1.400239334213   118.03717543    12.69527644
 C     30  29  16     1.394531635149   120.45676772   182.95896016
 C     31  30  29     1.395158353301   119.92595169     0.57750926
 C     32  31  30     1.397152878957   119.98032857     0.92143998
 C     33  32  31     1.393591348581   120.10989407   359.17044683
 C      7   2   1     1.836905143565   102.90246661   314.58506758
 C     35   7   2     1.403546696673   122.74883741   335.16173334
 C     36  35   7     1.394462833208   120.32166871   181.42265913
 C     37  36  35     1.395445639394   120.14764842     0.22078509
 C     38  37  36     1.395731267934   119.80612139     0.18455377
 C     39  38  37     1.393843662048   120.27137079   359.56209911
 H     24  23  16     1.089023324389   119.44498214     3.62811337
 H     25  24  23     1.086133137256   119.79942019   179.54439023
 H     26  25  24     1.086252700989   120.03181252   179.99742497
 H     27  26  25     1.086652901133   120.01718825   180.16206512
 H     28  27  26     1.085506896458   120.03413027   179.47451870
 H     18  17  16     1.084488316524   120.07143612     2.14367626
 H     19  18  17     1.086486009240   119.57638837   180.60816763
 H     20  19  18     1.086413982006   120.09284417   179.85624797
 H     21  20  19     1.086440454630   120.19342074   181.02181995
 H     22  21  20     1.088090897841   120.74126662   181.62843481
 H     30  29  16     1.088119184888   118.58793099     1.78588529
 H     31  30  29     1.086490565723   119.81949676   180.04998212
 H     32  31  30     1.086431089939   120.06768174   179.84611620
 H     33  32  31     1.086586890689   120.01323518   178.49380313
 H     34  33  32     1.086567758989   119.83742379   178.02379391
 H     36  35   7     1.085541542052   120.08879578     2.01124803
 H     37  36  35     1.086628479197   119.66556180   180.28746079
 H     38  37  36     1.086606332049   120.02524557   180.20046084
 H     39  38  37     1.086405300481   120.17369648   179.70023055
 H     40  39  38     1.087547529917   120.74635557   179.83214102
 H      9   8   7     1.087083354124   118.68605252   356.08168287
 H     10   9   8     1.086356627385   119.72150707   179.59771948
 H     11  10   9     1.086579698976   120.10692748   179.42723845
 H     12  11  10     1.086538398671   120.13466148   179.17179969
 H     13  12  11     1.085731598629   119.75618332   179.52372273
 H      3   2   1     1.085162212116   119.65686381   180.41332350
 H      4   3   2     1.086047059129   119.59988151   180.26038658
 H      5   4   3     1.086387102457   120.10722170   179.76710998
 H      6   1   2     1.086551144285   119.59540479   180.49376559
 H      1   2   3     1.083923695947   119.92905203   179.81912703

---------------------------
INTERNAL COORDINATES (A.U.)
---------------------------
 C      0   0   0     0.000000000000     0.00000000     0.00000000
 C      1   0   0     2.650565342563     0.00000000     0.00000000
 C      2   1   0     2.649068204887   118.90180699     0.00000000
 C      3   2   1     2.632661721728   120.42843219     0.83820739
 C      4   3   2     2.636188632335   120.25653494     0.05614847
 C      1   2   3     2.632458934243   120.56983421   358.87056170
 P      2   1   3     3.461871196858   120.83432960   183.02036390
 C      7   2   1     3.468903514488   101.75631923   206.91237124
 C      8   7   2     2.644264841117   118.93345329   250.88364388
 C      9   8   7     2.635460035431   120.22602970   177.42027668
 C     10   9   8     2.635592847769   120.06229825     0.43077663
 C     11  10   9     2.639462641669   119.92686884     0.10935244
 C     12  11  10     2.632562144809   120.12112872   359.60173541
 Rh     7   2   1     4.056229272302   121.82851499    82.75553087
 Cl    14   7   2     4.360727868044   104.89389407   168.60243162
 P     14   7   2     4.105713157878    95.48996015   347.94732276
 C     16  14   7     3.455482946564   121.21420767    59.69672999
 C     17  16  14     2.640494533620   125.28987829   216.90555073
 C     18  17  16     2.637867610715   120.15658434   180.97498081
 C     19  18  17     2.633500022948   120.34581645     0.15488265
 C     20  19  18     2.640171648761   119.81771675   359.02892369
 C     21  20  19     2.629312566150   119.93459909     0.43299219
 C     16  14   7     3.464815410719   100.51374466   172.27814484
 C     23  16  14     2.657638271926   116.13028508    50.29604268
 C     24  23  16     2.631461676363   120.39676507   183.51832406
 C     25  24  23     2.638418243999   119.96128407   359.70107647
 C     26  25  24     2.637611589608   119.93385930     0.00000000
 C     27  26  25     2.635596941644   120.32890195     0.32196931
 C     16  14   7     3.462072727729   119.51130497   282.35937928
 C     29  16  14     2.646068863606   118.03717543    12.69527644
 C     30  29  16     2.635282875521   120.45676772   182.95896016
 C     31  30  29     2.636467201192   119.92595169     0.57750926
 C     32  31  30     2.640236308448   119.98032857     0.92143998
 C     33  32  31     2.633505991421   120.10989407   359.17044683
 C      7   2   1     3.471247655330   102.90246661   314.58506758
 C     35   7   2     2.652318872882   122.74883741   335.16173334
 C     36  35   7     2.635152858695   120.32166871   181.42265913
 C     37  36  35     2.637010093230   120.14764842     0.22078509
 C     38  37  36     2.637549852946   119.80612139     0.18455377
 C     39  38  37     2.633982794773   120.27137079   359.56209911
 H     24  23  16     2.057955836548   119.44498214     3.62811337
 H     25  24  23     2.052494174390   119.79942019   179.54439023
 H     26  25  24     2.052720117101   120.03181252   179.99742497
 H     27  26  25     2.053476385773   120.01718825   180.16206512
 H     28  27  26     2.051310750788   120.03413027   179.47451870
 H     18  17  16     2.049385913668   120.07143612     2.14367626
 H     19  18  17     2.053161005800   119.57638837   180.60816763
 H     20  19  18     2.053024894055   120.09284417   179.85624797
 H     21  20  19     2.053074920064   120.19342074   181.02181995
 H     22  21  20     2.056193805732   120.74126662   181.62843481
 H     30  29  16     2.056247260505   118.58793099     1.78588529
 H     31  30  29     2.053169616306   119.81949676   180.04998212
 H     32  31  30     2.053057223361   120.06768174   179.84611620
 H     33  32  31     2.053351644112   120.01323518   178.49380313
 H     34  33  32     2.053315490438   119.83742379   178.02379391
 H     36  35   7     2.051376221473   120.08879578     2.01124803
 H     37  36  35     2.053430235003   119.66556180   180.28746079
 H     38  37  36     2.053388382957   120.02524557   180.20046084
 H     39  38  37     2.053008488349   120.17369648   179.70023055
 H     40  39  38     2.055166989166   120.74635557   179.83214102
 H      9   8   7     2.054289824038   118.68605252   356.08168287
 H     10   9   8     2.052916509529   119.72150707   179.59771948
 H     11  10   9     2.053338053743   120.10692748   179.42723845
 H     12  11  10     2.053260007477   120.13466148   179.17179969
 H     13  12  11     2.051735376354   119.75618332   179.52372273
 H      3   2   1     2.050659391779   119.65686381   180.41332350
 H      4   3   2     2.052331510304   119.59988151   180.26038658
 H      5   4   3     2.052974099068   120.10722170   179.76710998
 H      6   1   2     2.053284093197   119.59540479   180.49376559
 H      1   2   3     2.048318935408   119.92905203   179.81912703

---------------------
BASIS SET INFORMATION
---------------------
There are 5 groups of distinct atoms

 Group   1 Type C   : 12s6p3d1f contracted to 6s3p3d1f pattern {621111/411/111/1}
 Group   2 Type P   : 15s9p4d1f contracted to 6s5p4d1f pattern {732111/51111/1111/1}
 Group   3 Type Rh  : 7s7p6d2f1g contracted to 6s4p3d2f1g pattern {211111/4111/411/11/1}
 Group   4 Type Cl  : 15s10p4d1f contracted to 6s6p4d1f pattern {732111/511111/1111/1}
 Group   5 Type H   : 5s3p1d contracted to 3s3p1d pattern {311/111/1}

Atom   0C    basis set group =>   1
Atom   1C    basis set group =>   1
Atom   2C    basis set group =>   1
Atom   3C    basis set group =>   1
Atom   4C    basis set group =>   1
Atom   5C    basis set group =>   1
Atom   6P    basis set group =>   2
Atom   7C    basis set group =>   1
Atom   8C    basis set group =>   1
Atom   9C    basis set group =>   1
Atom  10C    basis set group =>   1
Atom  11C    basis set group =>   1
Atom  12C    basis set group =>   1
Atom  13Rh   basis set group =>   3
Atom  14Cl   basis set group =>   4
Atom  15P    basis set group =>   2
Atom  16C    basis set group =>   1
Atom  17C    basis set group =>   1
Atom  18C    basis set group =>   1
Atom  19C    basis set group =>   1
Atom  20C    basis set group =>   1
Atom  21C    basis set group =>   1
Atom  22C    basis set group =>   1
Atom  23C    basis set group =>   1
Atom  24C    basis set group =>   1
Atom  25C    basis set group =>   1
Atom  26C    basis set group =>   1
Atom  27C    basis set group =>   1
Atom  28C    basis set group =>   1
Atom  29C    basis set group =>   1
Atom  30C    basis set group =>   1
Atom  31C    basis set group =>   1
Atom  32C    basis set group =>   1
Atom  33C    basis set group =>   1
Atom  34C    basis set group =>   1
Atom  35C    basis set group =>   1
Atom  36C    basis set group =>   1
Atom  37C    basis set group =>   1
Atom  38C    basis set group =>   1
Atom  39C    basis set group =>   1
Atom  40H    basis set group =>   5
Atom  41H    basis set group =>   5
Atom  42H    basis set group =>   5
Atom  43H    basis set group =>   5
Atom  44H    basis set group =>   5
Atom  45H    basis set group =>   5
Atom  46H    basis set group =>   5
Atom  47H    basis set group =>   5
Atom  48H    basis set group =>   5
Atom  49H    basis set group =>   5
Atom  50H    basis set group =>   5
Atom  51H    basis set group =>   5
Atom  52H    basis set group =>   5
Atom  53H    basis set group =>   5
Atom  54H    basis set group =>   5
Atom  55H    basis set group =>   5
Atom  56H    basis set group =>   5
Atom  57H    basis set group =>   5
Atom  58H    basis set group =>   5
Atom  59H    basis set group =>   5
Atom  60H    basis set group =>   5
Atom  61H    basis set group =>   5
Atom  62H    basis set group =>   5
Atom  63H    basis set group =>   5
Atom  64H    basis set group =>   5
Atom  65H    basis set group =>   5
Atom  66H    basis set group =>   5
Atom  67H    basis set group =>   5
Atom  68H    basis set group =>   5
Atom  69H    basis set group =>   5
----------------------------------
AUXILIARY/JK BASIS SET INFORMATION
----------------------------------
There are 5 groups of distinct atoms

 Group   1 Type C   : 14s10p6d2f1g contracted to 10s8p5d1f1g pattern {5111111111/31111111/21111/2/1}
 Group   2 Type P   : 16s12p10d4f1g contracted to 13s11p9d4f1g pattern {4111111111111/21111111111/211111111/1111/1}
 Group   3 Type Rh  : 13s12p10d9f6g3h2i contracted to 11s10p9d8f6g3h2i pattern {31111111111/3111111111/211111111/21111111/111111/111/11}
 Group   4 Type Cl  : 16s12p10d4f1g contracted to 13s11p9d4f1g pattern {4111111111111/21111111111/211111111/1111/1}
 Group   5 Type H   : 4s2p2d contracted to 2s2p2d pattern {31/11/11}

Atom   0C    basis set group =>   1
Atom   1C    basis set group =>   1
Atom   2C    basis set group =>   1
Atom   3C    basis set group =>   1
Atom   4C    basis set group =>   1
Atom   5C    basis set group =>   1
Atom   6P    basis set group =>   2
Atom   7C    basis set group =>   1
Atom   8C    basis set group =>   1
Atom   9C    basis set group =>   1
Atom  10C    basis set group =>   1
Atom  11C    basis set group =>   1
Atom  12C    basis set group =>   1
Atom  13Rh   basis set group =>   3
Atom  14Cl   basis set group =>   4
Atom  15P    basis set group =>   2
Atom  16C    basis set group =>   1
Atom  17C    basis set group =>   1
Atom  18C    basis set group =>   1
Atom  19C    basis set group =>   1
Atom  20C    basis set group =>   1
Atom  21C    basis set group =>   1
Atom  22C    basis set group =>   1
Atom  23C    basis set group =>   1
Atom  24C    basis set group =>   1
Atom  25C    basis set group =>   1
Atom  26C    basis set group =>   1
Atom  27C    basis set group =>   1
Atom  28C    basis set group =>   1
Atom  29C    basis set group =>   1
Atom  30C    basis set group =>   1
Atom  31C    basis set group =>   1
Atom  32C    basis set group =>   1
Atom  33C    basis set group =>   1
Atom  34C    basis set group =>   1
Atom  35C    basis set group =>   1
Atom  36C    basis set group =>   1
Atom  37C    basis set group =>   1
Atom  38C    basis set group =>   1
Atom  39C    basis set group =>   1
Atom  40H    basis set group =>   5
Atom  41H    basis set group =>   5
Atom  42H    basis set group =>   5
Atom  43H    basis set group =>   5
Atom  44H    basis set group =>   5
Atom  45H    basis set group =>   5
Atom  46H    basis set group =>   5
Atom  47H    basis set group =>   5
Atom  48H    basis set group =>   5
Atom  49H    basis set group =>   5
Atom  50H    basis set group =>   5
Atom  51H    basis set group =>   5
Atom  52H    basis set group =>   5
Atom  53H    basis set group =>   5
Atom  54H    basis set group =>   5
Atom  55H    basis set group =>   5
Atom  56H    basis set group =>   5
Atom  57H    basis set group =>   5
Atom  58H    basis set group =>   5
Atom  59H    basis set group =>   5
Atom  60H    basis set group =>   5
Atom  61H    basis set group =>   5
Atom  62H    basis set group =>   5
Atom  63H    basis set group =>   5
Atom  64H    basis set group =>   5
Atom  65H    basis set group =>   5
Atom  66H    basis set group =>   5
Atom  67H    basis set group =>   5
Atom  68H    basis set group =>   5
Atom  69H    basis set group =>   5
-------------------------
ECP PARAMETER INFORMATION
-------------------------

 Group 1, Type Rh ECP Def2-ECP (replacing 28 core electrons, lmax=3)

Atom  13Rh   ECP group =>   1



           ************************************************************
           *        Program running with 24 parallel MPI-processes    *
           *              working on a common directory               *
           ************************************************************
------------------------------------------------------------------------------
                           ORCA GTO INTEGRAL CALCULATION
------------------------------------------------------------------------------

                         BASIS SET STATISTICS AND STARTUP INFO

 # of primitive gaussian shells          ... 1173
 # of primitive gaussian functions       ... 2733
 # of contracted shells                  ...  743
 # of contracted basis functions         ... 2045
 Highest angular momentum                ...    4
 Maximum contraction depth               ...    7
 Integral package used                   ... LIBINT
 Integral threshhold            Thresh   ...  1.000e-10
 Primitive cut-off              TCut     ...  1.000e-11


------------------------------ INTEGRAL EVALUATION ----------------------------


 * One electron integrals 

   ECP integrals                         ... done
 Pre-screening matrix                    ... done
 Shell pair data                         ... done (   0.063 sec)



           ************************************************************
           *        Program running with 24 parallel MPI-processes    *
           *              working on a common directory               *
           ************************************************************
-------------------------------------------------------------------------------
                                 ORCA SCF
-------------------------------------------------------------------------------

------------
SCF SETTINGS
------------
Hamiltonian:
 Density Functional     Method          .... DFT(GTOs)
 Exchange Functional    Exchange        .... M06
 Correlation Functional Correlation     .... M06
 Gradients option       PostSCFGGA      .... off
 Hybrid DFT is turned on
   Fraction HF Exchange ScalHFX         ....  0.270000
   Scaling of DF-GGA-X  ScalDFX         ....  0.730000
   Scaling of DF-GGA-C  ScalDFC         ....  1.000000
   Scaling of DF-LDA-C  ScalLDAC        ....  1.000000
   Perturbative correction              ....  0.000000
   Density functional embedding theory  .... OFF


General Settings:
 Integral files         IntName         .... MOR10_ed09
 Hartree-Fock type      HFTyp           .... RHF
 Total Charge           Charge          ....    0
 Multiplicity           Mult            ....    1
 Number of Electrons    NEL             ....  310
 Basis Dimension        Dim             .... 2045
 Nuclear Repulsion      ENuc            ....   5608.1046348967 Eh

Convergence Acceleration:
 DIIS                   CNVDIIS         .... on
   Start iteration      DIISMaxIt       ....    12
   Startup error        DIISStart       ....  0.200000
   # of expansion vecs  DIISMaxEq       ....     5
   Bias factor          DIISBfac        ....   1.050
   Max. coefficient     DIISMaxC        ....  10.000
 Newton-Raphson         CNVNR           .... off
 SOSCF                  CNVSOSCF        .... off
 Level Shifting         CNVShift        .... on
   Level shift para.    LevelShift      ....    0.2500
   Turn off err/grad.   ShiftErr        ....    0.0010
 Zerner damping         CNVZerner       .... off
 Static damping         CNVDamp         .... on
   Fraction old density DampFac         ....    0.7000
   Max. Damping (<1)    DampMax         ....    0.9800
   Min. Damping (>=0)   DampMin         ....    0.0000
   Turn off err/grad.   DampErr         ....    0.1000
 Fernandez-Rico         CNVRico         .... off

SCF Procedure:
 Maximum # iterations   MaxIter         ....   125
 SCF integral mode      SCFMode         .... Direct
   Integral package                     .... LIBINT
 Reset frequency        DirectResetFreq ....    20
 Integral Threshold     Thresh          ....  1.000e-10 Eh
 Primitive CutOff       TCut            ....  1.000e-11 Eh

Convergence Tolerance:
 Convergence Check Mode ConvCheckMode   .... Total+1el-Energy
 Convergence forced     ConvForced      .... 0
 Energy Change          TolE            ....  1.000e-06 Eh
 1-El. energy change                    ....  1.000e-03 Eh
 DIIS Error             TolErr          ....  1.000e-06


Diagonalization of the overlap matrix:
Smallest eigenvalue                        ... 1.739e-07
Time for diagonalization                   ...    0.574 sec
Threshold for overlap eigenvalues          ... 1.000e-08
Number of eigenvalues below threshold      ... 0
Time for construction of square roots      ...    0.529 sec
Total time needed                          ...    1.115 sec

-------------------
DFT GRID GENERATION
-------------------

General Integration Accuracy     IntAcc      ...  4.670
Radial Grid Type                 RadialGrid  ... Gauss-Chebyshev
Angular Grid (max. acc.)         AngularGrid ... Lebedev-302
Angular grid pruning method      GridPruning ... 3 (G Style)
Weight generation scheme         WeightScheme... Becke
Basis function cutoff            BFCut       ...    1.0000e-10
Integration weight cutoff        WCut        ...    1.0000e-14
Grids for H and He will be reduced by one unit

# of grid points (after initial pruning)     ... 356480 (   0.0 sec)
# of grid points (after weights+screening)   ... 299731 (   0.5 sec)
nearest neighbour list constructed           ...    0.0 sec
Grid point re-assignment to atoms done       ...    0.0 sec
Grid point division into batches done        ...    0.9 sec
Reduced shell lists constructed in    1.6 sec

Total number of grid points                  ...   299731
Total number of batches                      ...     4720
Average number of points per batch           ...       63
Average number of grid points per atom       ...     4282
Average number of shells per batch           ...   375.28 (50.51%)
Average number of basis functions per batch  ...  1004.74 (49.13%)
Average number of large shells per batch     ...   255.70 (68.14%)
Average number of large basis fcns per batch ...   685.30 (68.21%)
Maximum spatial batch extension              ...   9.84, 19.52, 10.18 au
Average spatial batch extension              ...   0.05,  0.06,  0.05 au

Time for grid setup =    2.238 sec

------------------------------
INITIAL GUESS: MODEL POTENTIAL
------------------------------
Loading Hartree-Fock densities                     ... done
  calling /sw/apps/orca/orca_4_2_0_linux_x86-64_openmpi314/orca MOR10_ed09_atom45.inp > MOR10_ed09_atom45.out in order to generate an atomic fitting density for atom 13 (Rh with ECP) on-the-fly... 
    atom 13 (Rh), assumed electronic state with S=4: 1s2 2s2 2p6 3s2 3p6 4s2 3d10 4p6 5s2 4d7           ... done
Calculating cut-offs                               ... done
Setting up the integral package                    ... done
Initializing the effective Hamiltonian             ... done
Starting the Coulomb interaction                   ... done (   1.0 sec)
Reading the grid                                   ... done
Mapping shells                                     ... done
Starting the XC term evaluation                    ... done (   2.3 sec)
  promolecular density results
     # of electrons  =    337.984309171
     EX              =   -399.017829475
     EC              =    -12.428552549
     EX+EC           =   -411.446382024
Transforming the Hamiltonian                       ... done (   0.3 sec)
Diagonalizing the Hamiltonian                      ... done (   0.5 sec)
Back transforming the eigenvectors                 ... done (   0.2 sec)
Now organizing SCF variables                       ... done
                      ------------------
                      INITIAL GUESS DONE (   8.3 sec)
                      ------------------
--------------
SCF ITERATIONS
--------------
ITER       Energy         Delta-E        Max-DP      RMS-DP      [F,P]     Damp
               ***  Starting incremental Fock matrix formation  ***
  0  -2642.0755009279   0.000000000000 4.92053906  0.01168595  0.4761458 0.7000
  1  -2642.4412173132  -0.365716385255 3.94026021  0.01029907  0.3106336 0.7000
  2  -2642.5933717377  -0.152154424477 2.44761587  0.00658030  0.2094394 0.7000
                               ***Turning on DIIS***
  3  -2642.6829844836  -0.089612745924 2.44854577  0.01118009  0.1486110 0.7000
  4  -2642.7446936587  -0.06170917514389769.36056792 643.31410394  0.1062638 0.7000
  5 -142618.0958880893-139975.351194430608262699.38153344 964.33851978  1.5645999 0.7000
  6 -666951.8326512113-524333.736763122026169127.51023149 620.54087296  4.3101837 0.7000
  7 -1220835.5775115185-553883.744860307197118040.88232021 437.56454602  6.9589269 0.7000
  8 -1711942.9729375923-491107.39542607381098988.10140126 348.77663339  9.5684549 0.7000
  9 -2146015.6504591526-434072.677521560341713635.77321224 1462.71169412 11.9932375 0.7000
 10 -2680641.3523726030-534625.701913450379509919.25664183 1067.05634021  9.1144766 0.7000
 11 -3356642.3003266738-676000.947954070754347759.06488658 786.65945190  7.2553017 0.7000
 12 -3909219.5665984433-552577.266271769535242493.99394506 549.93360959  5.5424841 0.7000
 13 -4326601.0324177984-417381.465819355100168604.46713090 390.13773169  4.0963177 0.7000
 14 -4638144.8552326998-311543.822814901359117250.90227758 278.69176850  2.9719511 0.7000
 15 -4866894.9858185565-228750.13058585673681881.06647562 199.09838874  2.1305160 0.7000
 16 -5033223.9191074828-166328.93328892625957325.59490263 141.91750149  1.5153374 0.7000
 17 -5152854.5424173055-119630.62330982275340354.77621993 100.92949036  1.0718403 0.7000
 18 -5238281.3299762849-85426.78755897935528482.06947554 72.16724307  0.7553197 0.7000
 19 -5299005.5502931736-60724.22031688876520171.17682914 52.03213989  0.5308966 0.7000
               *** Restarting incremental Fock matrix formation ***
                                   *** Resetting DIIS ***
 20 -5342031.1975295255-43025.64723635185514328.33294017 33.88924181  0.3724566 0.7000
 21 -5372484.8937456906-30453.69621616508810170.16299500 26.07277733  0.2610358 0.7000
 22 -5393924.1762996009-21439.2825539102787285.42027927 21.02647150  0.1827799 0.7000
 23 -5409024.0234707240-15099.8471711231405279.31354820 17.04285171  0.1277942 0.7000
 24 -5419667.9290089281-10643.90553820412612871.73179403 46.70790457  0.0892323 0.0000
 25 -5445021.5183409089-25353.5893319807953501.51654543 16.04439126  0.0801450 0.0000
 26 -5445177.3042290611-155.7858881521974662.16749785 22.50054526  0.0310358 0.0000
 27 -5445348.6738491403-171.3696200791758008.55847912 40.41280816  0.0245276 0.0000
 28 -5445530.0618310729-181.3879819326103837.65666201 20.96362672  0.0116622 0.0000
 29 -5445563.6218701759 -33.5600391030311031.49510911  6.05022359  0.0062751 0.0000
 30 -5445566.5554338340  -2.933563658036230.90914395  1.24521944  0.0019733 0.0000
 31 -5445566.7182967542  -0.16286292020258.50927392  0.24513975  0.0002206 0.0000
 32 -5445566.7230113726  -0.00471461843719.97326544  0.10249751  0.0001330 0.0000
 33 -5445566.7212489974   0.001762375236 5.79267925  0.01952031  0.0000318 0.0000
 34 -5445566.7359222183  -0.014673220925 1.07749239  0.00458184  0.0000126 0.0000
 35 -5445566.7288807193   0.007041499019 0.81753288  0.00376056  0.0000086 0.0000
 36 -5445566.7383661317  -0.009485412389 0.82749793  0.00412530  0.0000047 0.0000
 37 -5445566.7345805885   0.003785543144 1.39814740  0.00287059  0.0000022 0.0000
                            ***DIIS convergence achieved***

               *****************************************************
               *                     SUCCESS                       *
               *           SCF CONVERGED AFTER  38 CYCLES          *
               *****************************************************


----------------
TOTAL SCF ENERGY
----------------

Total Energy       :     -5445566.73324248 Eh      -148181404.20855 eV

Components:
Nuclear Repulsion  :         5608.10463490 Eh          152604.28537 eV
Electronic Energy  :     -5451174.83787737 Eh      -148334008.49391 eV
One Electron Energy:        -9712.93462485 Eh         -264302.38802 eV
Two Electron Energy:     -5441461.90325253 Eh      -148069706.10590 eV

Virial components:
Potential Energy   :     -5447032.54991079 Eh      -148221291.10790 eV
Kinetic Energy     :         1465.81666832 Eh           39886.89936 eV
Virial Ratio       :         3716.03943907


DFT components:
N(Alpha)           :      154.908520972208 electrons
N(Beta)            :      154.908520972208 electrons
N(Total)           :      309.817041944415 electrons
E(XC)              :      -99.360969902276 Eh       
DFET-embed. en.    :        0.000000000000 Eh       

---------------
SCF CONVERGENCE
---------------

  Last Energy change         ...    1.3381e-03  Tolerance :   1.0000e-06
  Last MAX-Density change    ...    3.8510e-01  Tolerance :   1.0000e-05
  Last RMS-Density change    ...    1.4527e-03  Tolerance :   1.0000e-06
  Last DIIS Error            ...    7.9582e-07  Tolerance :   1.0000e-06

================================================================================
                                        WARNING
Check your MOs and check whether a frozen core calculation is appropriate
MO 0 should be a C  d core orbital but seems to be delocalized with a C  p orbital (63.4% vs. 30.6%)
================================================================================
================================================================================
                                        WARNING
Check your MOs and check whether a frozen core calculation is appropriate
MO 1 should be a C  d core orbital but seems to be delocalized with a C  p orbital (62.0% vs. 32.9%)
================================================================================
================================================================================
                                        WARNING
Check your MOs and check whether a frozen core calculation is appropriate
MO 2 should be a C  d core orbital but seems to be delocalized with a C  p orbital (71.3% vs. 25.2%)
================================================================================
================================================================================
                                        WARNING
Check your MOs and check whether a frozen core calculation is appropriate
MO 3 should be a C  d core orbital but seems to be delocalized with a C  p orbital (52.7% vs. 41.9%)
================================================================================
================================================================================
                                        WARNING
Check your MOs and check whether a frozen core calculation is appropriate
MO 4 should be a C  d core orbital but seems to be delocalized with a C  p orbital (58.8% vs. 34.7%)
================================================================================
================================================================================
                                        WARNING
Check your MOs and check whether a frozen core calculation is appropriate
MO 5 should be a C  d core orbital but seems to be delocalized with a C  p orbital (66.1% vs. 27.7%)
================================================================================
================================================================================
                                        WARNING
Check your MOs and check whether a frozen core calculation is appropriate
MO 6 should be a C  d core orbital but seems to be delocalized with a C  p orbital (55.3% vs. 37.4%)
================================================================================
================================================================================
                                        WARNING
Check your MOs and check whether a frozen core calculation is appropriate
MO 7 should be a C  d core orbital but seems to be delocalized with a C  p orbital (66.8% vs. 22.1%)
================================================================================
================================================================================
                                        WARNING
Check your MOs and check whether a frozen core calculation is appropriate
MO 8 should be a C  d core orbital but seems to be delocalized with a C  s orbital (64.2% vs. 19.4%)
================================================================================
================================================================================
                                        WARNING
Check your MOs and check whether a frozen core calculation is appropriate
MO 9 should be a C  d core orbital but seems to be delocalized with a C  p orbital (60.0% vs. 25.8%)
================================================================================
================================================================================
                                        WARNING
Check your MOs and check whether a frozen core calculation is appropriate
MO 10 should be a C  d core orbital but seems to be delocalized with a C  p orbital (62.2% vs. 26.2%)
================================================================================
================================================================================
                                        WARNING
Check your MOs and check whether a frozen core calculation is appropriate
MO 11 should be a C  d core orbital but seems to be delocalized with a C  p orbital (55.7% vs. 34.1%)
================================================================================
================================================================================
                                        WARNING
Check your MOs and check whether a frozen core calculation is appropriate
MO 12 should be a C  d core orbital but seems to be delocalized with a C  p orbital (61.5% vs. 25.2%)
================================================================================
================================================================================
                                        WARNING
Check your MOs and check whether a frozen core calculation is appropriate
MO 13 should be a C  d core orbital but seems to be delocalized with a C  p orbital (67.0% vs. 22.0%)
================================================================================
================================================================================
                                        WARNING
Check your MOs and check whether a frozen core calculation is appropriate
MO 14 should be a C  d core orbital but seems to be delocalized with a C  p orbital (72.2% vs. 21.0%)
================================================================================
================================================================================
                                        WARNING
Check your MOs and check whether a frozen core calculation is appropriate
MO 15 should be a C  d core orbital but seems to be delocalized with a C  p orbital (62.7% vs. 25.4%)
================================================================================
================================================================================
                                        WARNING
Check your MOs and check whether a frozen core calculation is appropriate
MO 16 should be a C  d core orbital but seems to be delocalized with a C  p orbital (61.1% vs. 25.2%)
================================================================================
================================================================================
                                        WARNING
Check your MOs and check whether a frozen core calculation is appropriate
MO 17 should be a C  d core orbital but seems to be delocalized with a C  p orbital (60.4% vs. 27.5%)
================================================================================
================================================================================
                                        WARNING
Check your MOs and check whether a frozen core calculation is appropriate
MO 18 should be a C  d core orbital but seems to be delocalized with a C  p orbital (46.5% vs. 36.2%)
================================================================================
================================================================================
                                        WARNING
Check your MOs and check whether a frozen core calculation is appropriate
MO 19 should be a C  d core orbital but seems to be delocalized with a C  p orbital (70.5% vs. 14.6%)
================================================================================
================================================================================
                                        WARNING
Check your MOs and check whether a frozen core calculation is appropriate
MO 20 should be a C  d core orbital but seems to be delocalized with a C  p orbital (54.1% vs. 25.0%)
================================================================================
================================================================================
                                        WARNING
Check your MOs and check whether a frozen core calculation is appropriate
MO 21 should be a C  d core orbital but seems to be delocalized with a C  p orbital (62.7% vs. 26.2%)
================================================================================
================================================================================
                                        WARNING
Check your MOs and check whether a frozen core calculation is appropriate
MO 22 should be a C  d core orbital but seems to be delocalized with a C  s orbital (71.9% vs. 12.5%)
================================================================================
================================================================================
                                        WARNING
Check your MOs and check whether a frozen core calculation is appropriate
MO 23 should be a C  d core orbital but seems to be delocalized with a C  s orbital (59.0% vs. 16.7%)
================================================================================
================================================================================
                                        WARNING
Check your MOs and check whether a frozen core calculation is appropriate
MO 24 should be a C  d core orbital but seems to be delocalized with a C  p orbital (64.0% vs. 16.9%)
================================================================================
================================================================================
                                        WARNING
Check your MOs and check whether a frozen core calculation is appropriate
MO 25 should be a C  d core orbital but seems to be delocalized with a C  p orbital (55.8% vs. 16.0%)
================================================================================
================================================================================
                                        WARNING
Check your MOs and check whether a frozen core calculation is appropriate
MO 26 should be a C  d core orbital but seems to be delocalized with a C  s orbital (60.6% vs. 17.8%)
================================================================================
================================================================================
                                        WARNING
Check your MOs and check whether a frozen core calculation is appropriate
MO 27 should be a C  d core orbital but seems to be delocalized with a C  p orbital (54.7% vs. 21.1%)
================================================================================
================================================================================
                                        WARNING
Check your MOs and check whether a frozen core calculation is appropriate
MO 28 should be a C  d core orbital but seems to be delocalized with a C  p orbital (64.8% vs. 15.2%)
================================================================================
================================================================================
                                        WARNING
Check your MOs and check whether a frozen core calculation is appropriate
MO 29 should be a C  d core orbital but seems to be delocalized with a C  p orbital (55.9% vs. 12.7%)
================================================================================
================================================================================
                                        WARNING
Check your MOs and check whether a frozen core calculation is appropriate
MO 30 should be a C  d core orbital but seems to be delocalized with a P  d orbital (47.0% vs. 11.3%)
================================================================================
================================================================================
                                        WARNING
Check your MOs and check whether a frozen core calculation is appropriate
MO 31 should be a C  d core orbital but seems to be delocalized with a C  p orbital (54.2% vs. 16.1%)
================================================================================
================================================================================
                                        WARNING
Check your MOs and check whether a frozen core calculation is appropriate
MO 32 should be a C  d core orbital but seems to be delocalized with a C  p orbital (49.9% vs. 19.7%)
================================================================================
================================================================================
                                        WARNING
Check your MOs and check whether a frozen core calculation is appropriate
MO 33 should be a C  d core orbital but seems to be delocalized with a C  s orbital (52.8% vs. 16.6%)
================================================================================
================================================================================
                                        WARNING
Check your MOs and check whether a frozen core calculation is appropriate
MO 34 should be a C  d core orbital but seems to be delocalized with a C  p orbital (49.9% vs. 17.3%)
================================================================================
================================================================================
                                        WARNING
Check your MOs and check whether a frozen core calculation is appropriate
MO 35 should be a C  d core orbital but seems to be delocalized with a C  p orbital (48.2% vs. 16.5%)
================================================================================
*** Error in `/sw/apps/orca/orca_4_2_0_linux_x86-64_openmpi314/orca_scf_mpi': free(): invalid next size (fast): 0x000000000a3e7340 ***
*** Error in `/sw/apps/orca/orca_4_2_0_linux_x86-64_openmpi314/orca_scf_mpi': free(): invalid next size (fast): 0x0000000009f4b400 ***
*** Error in `/sw/apps/orca/orca_4_2_0_linux_x86-64_openmpi314/orca_scf_mpi': free(): invalid next size (fast): 0x000000000ba60e20 ***
*** Error in `/sw/apps/orca/orca_4_2_0_linux_x86-64_openmpi314/orca_scf_mpi': free(): invalid next size (fast): 0x000000000b6e5720 ***
*** Error in `/sw/apps/orca/orca_4_2_0_linux_x86-64_openmpi314/orca_scf_mpi': corrupted size vs. prev_size: 0x000000000b882bd0 ***
*** Error in `/sw/apps/orca/orca_4_2_0_linux_x86-64_openmpi314/orca_scf_mpi': corrupted size vs. prev_size: 0x000000000ac39b30 ***
*** Error in `/sw/apps/orca/orca_4_2_0_linux_x86-64_openmpi314/orca_scf_mpi': corrupted size vs. prev_size: 0x000000000b46b850 ***
*** Error in `/sw/apps/orca/orca_4_2_0_linux_x86-64_openmpi314/orca_scf_mpi': free(): invalid next size (fast): 0x000000000aa56500 ***
*** Error in `/sw/apps/orca/orca_4_2_0_linux_x86-64_openmpi314/orca_scf_mpi': free(): invalid next size (fast): 0x000000000b78e020 ***
*** Error in `/sw/apps/orca/orca_4_2_0_linux_x86-64_openmpi314/orca_scf_mpi': free(): invalid next size (fast): 0x000000000a91a7a0 ***
*** Error in `/sw/apps/orca/orca_4_2_0_linux_x86-64_openmpi314/orca_scf_mpi': corrupted size vs. prev_size: 0x000000000b5b1950 ***
*** Error in `/sw/apps/orca/orca_4_2_0_linux_x86-64_openmpi314/orca_scf_mpi': free(): invalid next size (fast): 0x000000000b49ec00 ***
*** Error in `/sw/apps/orca/orca_4_2_0_linux_x86-64_openmpi314/orca_scf_mpi': corrupted size vs. prev_size: 0x000000000a1b1850 ***
*** Error in `/sw/apps/orca/orca_4_2_0_linux_x86-64_openmpi314/orca_scf_mpi': corrupted size vs. prev_size: 0x000000000ac14810 ***
*** Error in `/sw/apps/orca/orca_4_2_0_linux_x86-64_openmpi314/orca_scf_mpi': free(): invalid next size (fast): 0x000000000abccf00 ***
*** Error in `/sw/apps/orca/orca_4_2_0_linux_x86-64_openmpi314/orca_scf_mpi': free(): invalid next size (fast): 0x000000000cebd800 ***
*** Error in `/sw/apps/orca/orca_4_2_0_linux_x86-64_openmpi314/orca_scf_mpi': free(): invalid next size (fast): 0x000000000b786100 ***
*** Error in `/sw/apps/orca/orca_4_2_0_linux_x86-64_openmpi314/orca_scf_mpi': corrupted size vs. prev_size: 0x000000000bcdbd30 ***
*** Error in `/sw/apps/orca/orca_4_2_0_linux_x86-64_openmpi314/orca_scf_mpi': free(): invalid next size (fast): 0x000000000bb05ee0 ***
*** Error in `/sw/apps/orca/orca_4_2_0_linux_x86-64_openmpi314/orca_scf_mpi': corrupted size vs. prev_size: 0x000000000adab890 ***
*** Error in `/sw/apps/orca/orca_4_2_0_linux_x86-64_openmpi314/orca_scf_mpi': free(): invalid next size (fast): 0x000000000be45b60 ***
*** Error in `/sw/apps/orca/orca_4_2_0_linux_x86-64_openmpi314/orca_scf_mpi': free(): invalid next size (fast): 0x000000000bcd05a0 ***
*** Error in `/sw/apps/orca/orca_4_2_0_linux_x86-64_openmpi314/orca_scf_mpi': corrupted size vs. prev_size: 0x000000000c6f7b50 ***
================================================================================
                                        WARNING
Check your MOs and check whether a frozen core calculation is appropriate
MO 135 should be a Cl s core orbital but seems to be delocalized with a C  d orbital (89.4% vs.  4.0%)
================================================================================
================================================================================
                                        WARNING
Check your MOs and check whether a frozen core calculation is appropriate
MO 142 should be a P  s core orbital but seems to be delocalized with a C  d orbital (45.7% vs. 40.3%)
================================================================================
================================================================================
                                        WARNING
Check your MOs and check whether a frozen core calculation is appropriate
MO 143 should be a P  s core orbital but seems to be delocalized with a C  s orbital (62.2% vs. 21.5%)
================================================================================
================================================================================
                                        WARNING
Check your MOs and check whether a frozen core calculation is appropriate
MO 144 should be a P  s core orbital but seems to be delocalized with a C  d orbital (63.6% vs.  8.3%)
================================================================================
================================================================================
                                        WARNING
Number of found core electrons (80) does not match given number of chemical core electrons (102)
================================================================================

================================================================================
MOs in valence range (operator=0) identified as core orbitals.
Correct this by swapping MOs
================================================================================
                                        WARNING
Number of orbitals to swap in and swap out does not match (4, 4, 15)
SKIPPING Reordering!
================================================================================
*** Error in `/sw/apps/orca/orca_4_2_0_linux_x86-64_openmpi314/orca_scf_mpi': corrupted size vs. prev_size: 0x000000000b1f6d90 ***
======= Backtrace: =========
======= Backtrace: =========
======= Backtrace: =========
======= Backtrace: =========
======= Backtrace: =========
======= Backtrace: =========
======= Backtrace: =========
/lib64/libc.so.6(+0x81299)[0x2b9cf2550299]
======= Backtrace: =========
======= Backtrace: =========
======= Backtrace: =========
======= Backtrace: =========
/lib64/libc.so.6(+0x81299)[0x2b4e4163f299]
======= Backtrace: =========
/lib64/libc.so.6(+0x81299)[0x2ab190b6f299]
======= Backtrace: =========
/lib64/libc.so.6(+0x80ba7)[0x2aab61a06ba7]
======= Backtrace: =========
======= Backtrace: =========
======= Backtrace: =========
/lib64/libc.so.6(+0x81299)[0x2b54d7a88299]
/lib64/libc.so.6(+0x81299)[0x2b146d16c299]
/sw/apps/orca/orca_4_2_0_linux_x86-64_openmpi314/orca_scf_mpi[0x787ded]
/sw/apps/orca/orca_4_2_0_linux_x86-64_openmpi314/orca_scf_mpi[0xf19e44]
======= Backtrace: =========
/lib64/libc.so.6(+0x81299)[0x2ac2f1d61299]
/sw/apps/orca/orca_4_2_0_linux_x86-64_openmpi314/orca_scf_mpi[0x787ded]
/sw/apps/orca/orca_4_2_0_linux_x86-64_openmpi314/orca_scf_mpi[0xf19e44]
/lib64/libc.so.6(+0x81299)[0x2aaca1e37299]
/sw/apps/orca/orca_4_2_0_linux_x86-64_openmpi314/orca_scf_mpi[0x787ded]
/sw/apps/orca/orca_4_2_0_linux_x86-64_openmpi314/orca_scf_mpi[0xf19e44]
/sw/apps/orca/orca_4_2_0_linux_x86-64_openmpi314/orca_scf_mpi[0x46eae2]
/sw/apps/orca/orca_4_2_0_linux_x86-64_openmpi314/orca_scf_mpi[0x4704f1]
/lib64/libc.so.6(+0x80ba7)[0x2b38c88c5ba7]
/lib64/libc.so.6(+0x8117e)[0x2b38c88c617e]
/sw/apps/orca/orca_4_2_0_linux_x86-64_openmpi314/orca_scf_mpi[0x73cc28]
======= Backtrace: =========
/lib64/libc.so.6(+0x80ba7)[0x2aafa5ab3ba7]
======= Backtrace: =========
/lib64/libc.so.6(+0x81299)[0x2b676d8dc299]
/sw/apps/orca/orca_4_2_0_linux_x86-64_openmpi314/orca_scf_mpi[0x787ded]
/sw/apps/orca/orca_4_2_0_linux_x86-64_openmpi314/orca_scf_mpi[0xf19e44]
/lib64/libc.so.6(+0x81299)[0x2ba25b0ab299]
/sw/apps/orca/orca_4_2_0_linux_x86-64_openmpi314/orca_scf_mpi[0x787ded]
/sw/apps/orca/orca_4_2_0_linux_x86-64_openmpi314/orca_scf_mpi[0xf19e44]
/sw/apps/orca/orca_4_2_0_linux_x86-64_openmpi314/orca_scf_mpi[0x46eae2]
/sw/apps/orca/orca_4_2_0_linux_x86-64_openmpi314/orca_scf_mpi[0x4704f1]
/sw/apps/orca/orca_4_2_0_linux_x86-64_openmpi314/orca_scf_mpi[0x4772cc]
/lib64/libc.so.6(+0x80ba7)[0x2aec761c8ba7]
/lib64/libc.so.6(+0x8117e)[0x2aec761c917e]
/sw/apps/orca/orca_4_2_0_linux_x86-64_openmpi314/orca_scf_mpi[0x73cc28]
/sw/apps/orca/orca_4_2_0_linux_x86-64_openmpi314/orca_scf_mpi[0xf19f50]
/sw/apps/orca/orca_4_2_0_linux_x86-64_openmpi314/orca_scf_mpi[0x46eae2]
/sw/apps/orca/orca_4_2_0_linux_x86-64_openmpi314/orca_scf_mpi[0x787ded]
/sw/apps/orca/orca_4_2_0_linux_x86-64_openmpi314/orca_scf_mpi[0xf19e44]
/sw/apps/orca/orca_4_2_0_linux_x86-64_openmpi314/orca_scf_mpi[0x46eae2]
/sw/apps/orca/orca_4_2_0_linux_x86-64_openmpi314/orca_scf_mpi[0x4704f1]
/sw/apps/orca/orca_4_2_0_linux_x86-64_openmpi314/orca_scf_mpi[0x4772cc]
======= Backtrace: =========
/lib64/libc.so.6(+0x81299)[0x2b5ec194b299]
/sw/apps/orca/orca_4_2_0_linux_x86-64_openmpi314/orca_scf_mpi[0x787ded]
/sw/apps/orca/orca_4_2_0_linux_x86-64_openmpi314/orca_scf_mpi[0xf19e44]
/sw/apps/orca/orca_4_2_0_linux_x86-64_openmpi314/orca_scf_mpi[0x46eae2]
/sw/apps/orca/orca_4_2_0_linux_x86-64_openmpi314/orca_scf_mpi[0x4704f1]
/lib64/libc.so.6(+0x80ba7)[0x2b9974ef7ba7]
/lib64/libc.so.6(+0x8117e)[0x2b9974ef817e]
/sw/apps/orca/orca_4_2_0_linux_x86-64_openmpi314/orca_scf_mpi[0x73cc28]
/sw/apps/orca/orca_4_2_0_linux_x86-64_openmpi314/orca_scf_mpi[0xf19f50]
/sw/apps/orca/orca_4_2_0_linux_x86-64_openmpi314/orca_scf_mpi[0x46eae2]
/lib64/libc.so.6(+0x81299)[0x2b06337a2299]
/sw/apps/orca/orca_4_2_0_linux_x86-64_openmpi314/orca_scf_mpi[0x787ded]
/sw/apps/orca/orca_4_2_0_linux_x86-64_openmpi314/orca_scf_mpi[0xf19e44]
/sw/apps/orca/orca_4_2_0_linux_x86-64_openmpi314/orca_scf_mpi[0x46eae2]
/sw/apps/orca/orca_4_2_0_linux_x86-64_openmpi314/orca_scf_mpi[0x4704f1]
/sw/apps/orca/orca_4_2_0_linux_x86-64_openmpi314/orca_scf_mpi[0x4772cc]
======= Backtrace: =========
/lib64/libc.so.6(+0x80ba7)[0x2adf25a1fba7]
/lib64/libc.so.6(+0x8117e)[0x2adf25a2017e]
======= Backtrace: =========
/lib64/libc.so.6(+0x81299)[0x2ba44b14a299]
/sw/apps/orca/orca_4_2_0_linux_x86-64_openmpi314/orca_scf_mpi[0x787ded]
/sw/apps/orca/orca_4_2_0_linux_x86-64_openmpi314/orca_scf_mpi[0xf19e44]
/sw/apps/orca/orca_4_2_0_linux_x86-64_openmpi314/orca_scf_mpi[0x46eae2]
/sw/apps/orca/orca_4_2_0_linux_x86-64_openmpi314/orca_scf_mpi[0x4704f1]
/sw/apps/orca/orca_4_2_0_linux_x86-64_openmpi314/orca_scf_mpi[0x4772cc]
======= Backtrace: =========
/lib64/libc.so.6(+0x81299)[0x2adf6fc4a299]
/sw/apps/orca/orca_4_2_0_linux_x86-64_openmpi314/orca_scf_mpi[0x787ded]
/sw/apps/orca/orca_4_2_0_linux_x86-64_openmpi314/orca_scf_mpi[0xf19e44]
/sw/apps/orca/orca_4_2_0_linux_x86-64_openmpi314/orca_scf_mpi[0x46eae2]
/sw/apps/orca/orca_4_2_0_linux_x86-64_openmpi314/orca_scf_mpi[0x4704f1]
/sw/apps/orca/orca_4_2_0_linux_x86-64_openmpi314/orca_scf_mpi[0x4772cc]
/sw/apps/orca/orca_4_2_0_linux_x86-64_openmpi314/orca_scf_mpi[0x787ded]
/sw/apps/orca/orca_4_2_0_linux_x86-64_openmpi314/orca_scf_mpi[0xf19e44]
/sw/apps/orca/orca_4_2_0_linux_x86-64_openmpi314/orca_scf_mpi[0x46eae2]
/sw/apps/orca/orca_4_2_0_linux_x86-64_openmpi314/orca_scf_mpi[0x4704f1]
/sw/apps/orca/orca_4_2_0_linux_x86-64_openmpi314/orca_scf_mpi[0x4772cc]
/lib64/libc.so.6(__libc_start_main+0xf5)[0x2b4e415e0555]
/sw/apps/orca/orca_4_2_0_linux_x86-64_openmpi314/orca_scf_mpi[0x462839]
======= Memory map: ========
/lib64/libc.so.6(+0x8117e)[0x2aab61a0717e]
/sw/apps/orca/orca_4_2_0_linux_x86-64_openmpi314/orca_scf_mpi[0x73cc28]
/sw/apps/orca/orca_4_2_0_linux_x86-64_openmpi314/orca_scf_mpi[0xf19f50]
/sw/apps/orca/orca_4_2_0_linux_x86-64_openmpi314/orca_scf_mpi[0x46eae2]
/sw/apps/orca/orca_4_2_0_linux_x86-64_openmpi314/orca_scf_mpi[0x4704f1]
/sw/apps/orca/orca_4_2_0_linux_x86-64_openmpi314/orca_scf_mpi[0x4772cc]
/lib64/libc.so.6(__libc_start_main+0xf5)[0x2aab619a8555]
/sw/apps/orca/orca_4_2_0_linux_x86-64_openmpi314/orca_scf_mpi[0x462839]
======= Memory map: ========
00400000-09755000 r-xp 00000000 00:29 40807980216                        /sw/apps/orca/orca_4_2_0_linux_x86-64_openmpi314/orca_scf_mpi
09955000-099bb000 rw-p 09355000 00:29 40807980216                        /sw/apps/orca/orca_4_2_0_linux_x86-64_openmpi314/orca_scf_mpi
099bb000-09bc8000 rw-p 00000000 00:00 0 
0b7dd000-2b072000 rw-p 00000000 00:00 0                                  [heap]
2b4e40d75000-2b4e40d97000 r-xp 00000000 fd:00 100664634                  /usr/lib64/ld-2.17.so
2b4e40d97000-2b4e40d98000 rw-p 00000000 00:00 0 
2b4e40d98000-2b4e40d99000 rw-s 00000000 fd:01 17179869283                /tmp/pbs.3768645.bp1/ompi.bp1-compute00214.375339/pid.254356/pmix_dstor_ds12_254356/dstore_sm.lock
2b4e40d99000-2b4e40d9a000 r--s 00000000 fd:01 17179869282                /tmp/pbs.3768645.bp1/ompi.bp1-compute00214.375339/pid.254356/pmix_dstor_ds12_254356/initial-pmix_shared-segment-0
2b4e40d9a000-2b4e40d9b000 rw-s 00000000 fd:01 19327353060                /tmp/pbs.3768645.bp1/ompi.bp1-compute00214.375339/pid.254356/pmix_dstor_ds21_254356/smlockseg-4132241409
2b4e40d9b000-2b4e40d9c000 r--s 00000000 fd:01 19327353059                /tmp/pbs.3768645.bp1/ompi.bp1-compute00214.375339/pid.254356/pmix_dstor_ds21_254356/initial-pmix_shared-segment-0
2b4e40d9c000-2b4e40d9d000 rw-p 00000000 00:00 0 
2b4e40da9000-2b4e40f54000 rw-p 00000000 00:00 0 
2b4e40f96000-2b4e40f97000 r--p 00021000 fd:00 100664634                  /usr/lib64/ld-2.17.so
2b4e40f97000-2b4e40f98000 rw-p 00022000 fd:00 100664634                  /usr/lib64/ld-2.17.so
2b4e40f98000-2b4e40f99000 rw-p 00000000 00:00 0 
2b4e40f99000-2b4e41098000 r-xp 00000000 00:29 21503859204                /sw/lib/openmpi-4.0.2/lib/libmpi.so.40.20.2
2b4e41098000-2b4e41297000 ---p 000ff000 00:29 21503859204                /sw/lib/openmpi-4.0.2/lib/libmpi.so.40.20.2
2b4e41297000-2b4e41299000 r--p 000fe000 00:29 21503859204                /sw/lib/openmpi-4.0.2/lib/libmpi.so.40.20.2
2b4e41299000-2b4e412aa000 rw-p 00100000 00:29 21503859204                /sw/lib/openmpi-4.0.2/lib/li/lib64/libc.so.6(+0x80ba7)[0x2ab3d9679ba7]
/lib64/libc.so.6(+0x8117e)[0x2ab3d967a17e]
/sw/apps/orca/orca_4_2_0_linux_x86-64_openmpi314/orca_scf_mpi[0x73cc28]
/sw/apps/orca/orca_4_2_0_linux_x86-64_openmpi314/orca_scf_mpi[0xf19f50]
/sw/apps/orca/orca_4_2_0_linux_x86-64_openmpi314/orca_scf_mpi[0x46eae2]
/sw/apps/orca/orca_4_2_0_linux_x86-64_openmpi314/orca_scf_mpi[0x4704f1]
/sw/apps/orca/orca_4_2_0_linux_x86-64_openmpi314/orca_scf_mpi[0x4772cc]
/lib64/libc.so.6(__libc_start_main+0xf5)[0x2ab3d961b555]
/sw/apps/orca/orca_4_2_0_linux_x86-64_openmpi314/orca_scf_mpi[0x462839]
======= Memory map: ========
/lib64/libc.so.6(+0x80ba7)[0x2b9a3ed32ba7]
/lib64/libc.so.6(+0x8117e)[0x2b9a3ed3317e]
/sw/apps/orca/orca_4_2_0_linux_x86-64_openmpi314/orca_scf_mpi[0x73cc28]
/sw/apps/orca/orca_4_2_0_linux_x86-64_openmpi314/orca_scf_mpi[0xf19f50]
/sw/apps/orca/orca_4_2_0_linux_x86-64_openmpi314/orca_scf_mpi[0x46eae2]
/sw/apps/orca/orca_4_2_0_linux_x86-64_openmpi314/orca_scf_mpi[0x4704f1]
/sw/apps/orca/orca_4_2_0_linux_x86-64_openmpi314/orca_scf_mpi[0x4772cc]
/lib64/libc.so.6(__libc_start_main+0xf5)[0x2b9a3ecd4555]
/sw/apps/orca/orca_4_2_0_linux_x86-64_openmpi314/orca_scf_mpi[0x462839]
======= Memory map: ========
/sw/apps/orca/orca_4_2_0_linux_x86-64_openmpi314/orca_scf_mpi[0x787ded]
/sw/apps/orca/orca_4_2_0_linux_x86-64_openmpi314/orca_scf_mpi[0xf19e44]
/sw/apps/orca/orca_4_2_0_linux_x86-64_openmpi314/orca_scf_mpi[0x46eae2]
/sw/apps/orca/orca_4_2_0_linux_x86-64_openmpi314/orca_scf_mpi[0x4704f1]
/sw/apps/orca/orca_4_2_0_linux_x86-64_openmpi314/orca_scf_mpi[0x4772cc]
/lib64/libc.so.6(__libc_start_main+0xf5)[0x2b54d7a29555]
/sw/apps/orca/orca_4_2_0_linux_x86-64_openmpi314/orca_scf_mpi[0x462839]
======= Memory map: ========
00400000-09755000 r-xp 00000000 00:29 40807980216                        /sw/apps/orca/orca_4_2_0_linux_x86-64_openmpi314/orca_scf_mpi
09955000-099bb000 rw-p 09355000 00:29 40807980216                        /sw/apps/orca/orca_4_2_0_linux_x86-64_openmpi314/orca_scf_mpi
099bb000-09bc8000 rw-p 00000000 00:00 0 
0a71f000-1fc24000 rw-p 00000000 00:00 0                                  [heap]
2b54d71be000-2b54d71e0000 r-xp 00000000 fd:00 100664634                  /usr/lib64/ld-2.17.so
2b54d71e0000-2b54d71e1000 rw-p 00000000 00:00 0 
2b54d71e1000-2b54d71e2000 rw-s 00000000 fd:01 17179869283                /tmp/pbs.3768645.bp1/ompi.bp1-compute00214.375339/pid.254356/pmix_dstor_ds12_254356/dstore_sm.lock
2b54d71e2000-2b54d71e3000 r--s 00000000 fd:01 17179869282                /tmp/pbs.3768645.bp1/ompi.bp1-compute00214.375339/pid.254356/pmix_dstor_ds12_254356/initial-pmix_shared-segment-0
2b54d71e3000-2b54d71e4000 rw-s 00000000 fd:01 19327353060                /tmp/pbs.3768645.bp1/ompi.bp1-compute00214.375339/pid.254356/pmix_dstor_ds21_254356/smlockseg-4132241409
2b54d71e4000-2b54d71e5000 r--s 00000000 fd:01 19327353059                /tmp/pbs.3768645.bp1/ompi.bp1-compute00214.375339/pid.254356/pmix_dstor_ds21_254356/initial-pmix_shared-segment-0
[...]
ffffffffff600000-ffffffffff601000 r-xp 00000000 00:00 0                  [vsyscall]
[bp1-compute00214:254381] *** Process received signal ***
[bp1-compute00214:254381] Signal: Aborted (6)
[bp1-compute00214:254381] Signal code:  (-6)
[bp1-compute00214:254381] [ 0] /lib64/libc.so.6(+0x36400)[0x2b7afd86d400]
[bp1-compute00214:254381] [ 1] /lib64/libc.so.6(gsignal+0x37)[0x2b7afd86d387]
[bp1-compute00214:254381] [ 2] /lib64/libc.so.6(abort+0x148)[0x2b7afd86ea78]
[bp1-compute00214:254381] [ 3] /lib64/libc.so.6(+0x78ed7)[0x2b7afd8afed7]
[bp1-compute00214:254381] [ 4] /lib64/libc.so.6(+0x80ba7)[0x2b7afd8b7ba7]
[bp1-compute00214:254381] [ 5] /lib64/libc.so.6(+0x8117e)[0x2b7afd8b817e]
[bp1-compute00214:254381] [ 6] /sw/apps/orca/orca_4_2_0_linux_x86-64_openmpi314/orca_scf_mpi[0x73cc28]
[bp1-compute00214:254381] [ 7] /sw/apps/orca/orca_4_2_0_linux_x86-64_openmpi314/orca_scf_mpi[0xf19f50]
[bp1-compute00214:254381] [ 8] /sw/apps/orca/orca_4_2_0_linux_x86-64_openmpi314/orca_scf_mpi[0x46eae2]
[bp1-compute00214:254381] [ 9] /sw/apps/orca/orca_4_2_0_linux_x86-64_openmpi314/orca_scf_mpi[0x4704f1]
[bp1-compute00214:254381] [10] /sw/apps/orca/orca_4_2_0_linux_x86-64_openmpi314/orca_scf_mpi[0x4772cc]
[bp1-compute00214:254381] [11] /lib64/libc.so.6(__libc_start_main+0xf5)[0x2b7afd859555]
[bp1-compute00214:254381] [12] /sw/apps/orca/orca_4_2_0_linux_x86-64_openmpi314/orca_scf_mpi[0x462839]
[bp1-compute00214:254381] *** End of error message ***
ibc.so.6(gsignal+0x37)[0x2b146d121387]
[bp1-compute00214:254362] [ 2] /lib64/libc.so.6(abort+0x148)[0x2b146d122a78]
[bp1-compute00214:254362] [ 3] /lib64/libc.so.6(+0x78ed7)[0x2b146d163ed7]
[bp1-compute00214:254362] [ 4] /lib64/libc.so.6(+0x81299)[0x2b146d16c299]
[bp1-compute00214:254362] [ 5] /sw/apps/orca/orca_4_2_0_linux_x86-64_openmpi314/orca_scf_mpi[0x787ded]
[bp1-compute00214:254362] [ 6] /sw/apps/orca/orca_4_2_0_linux_x86-64_openmpi314/orca_scf_mpi[0xf19e44]
[bp1-compute00214:254362] [ 7] /sw/apps/orca/orca_4_2_0_linux_x86-64_openmpi314/orca_scf_mpi[0x46eae2]
[bp1-compute00214:254362] [ 8] /sw/apps/orca/orca_4_2_0_linux_x86-64_openmpi314/orca_scf_mpi[0x4704f1]
[bp1-compute00214:254362] [ 9] /sw/apps/orca/orca_4_2_0_linux_x86-64_openmpi314/orca_scf_mpi[0x4772cc]
[bp1-compute00214:254362] [10] /lib64/libc.so.6(__libc_start_main+0xf5)[0x2b146d10d555]
[bp1-compute00214:254362] [11] /sw/apps/orca/orca_4_2_0_linux_x86-64_openmpi314/orca_scf_mpi[0x462839]
[bp1-compute00214:254362] *** End of error message ***
ibc.so.6(gsignal+0x37)[0x2ac2f1d16387]
[bp1-compute00214:254364] [ 2] /lib64/libc.so.6(abort+0x148)[0x2ac2f1d17a78]
[bp1-compute00214:254364] [ 3] /lib64/libc.so.6(+0x78ed7)[0x2ac2f1d58ed7]
[bp1-compute00214:254364] [ 4] /lib64/libc.so.6(+0x81299)[0x2ac2f1d61299]
[bp1-compute00214:254364] [ 5] /sw/apps/orca/orca_4_2_0_linux_x86-64_openmpi314/orca_scf_mpi[0x787ded]
[bp1-compute00214:254364] [ 6] /sw/apps/orca/orca_4_2_0_linux_x86-64_openmpi314/orca_scf_mpi[0xf19e44]
[bp1-compute00214:254364] [ 7] /sw/apps/orca/orca_4_2_0_linux_x86-64_openmpi314/orca_scf_mpi[0x46eae2]
[bp1-compute00214:254364] [ 8] /sw/apps/orca/orca_4_2_0_linux_x86-64_openmpi314/orca_scf_mpi[0x4704f1]
[bp1-compute00214:254364] [ 9] /sw/apps/orca/orca_4_2_0_linux_x86-64_openmpi314/orca_scf_mpi[0x4772cc]
[bp1-compute00214:254364] [10] /lib64/libc.so.6(__libc_start_main+0xf5)[0x2ac2f1d02555]
[bp1-compute00214:254364] [11] /sw/apps/orca/orca_4_2_0_linux_x86-64_openmpi314/orca_scf_mpi[0x462839]
[bp1-compute00214:254364] *** End of error message ***

ibc.so.6(gsignal+0x37)[0x2b38c887b387]
[bp1-compute00214:254365] [ 2] /lib64/libc.so.6(abort+0x148)[0x2b38c887ca78]
[bp1-compute00214:254365] [ 3] /lib64/libc.so.6(+0x78ed7)[0x2b38c88bded7]
[bp1-compute00214:254365] [ 4] /lib64/libc.so.6(+0x80ba7)[0x2b38c88c5ba7]
[bp1-compute00214:254365] [ 5] /lib64/libc.so.6(+0x8117e)[0x2b38c88c617e]
[bp1-compute00214:254365] [ 6] /sw/apps/orca/orca_4_2_0_linux_x86-64_openmpi314/orca_scf_mpi[0x73cc28]
[bp1-compute00214:254365] [ 7] /sw/apps/orca/orca_4_2_0_linux_x86-64_openmpi314/orca_scf_mpi[0xf19f50]
[bp1-compute00214:254365] [ 8] /sw/apps/orca/orca_4_2_0_linux_x86-64_openmpi314/orca_scf_mpi[0x46eae2]
[bp1-compute00214:254365] [ 9] /sw/apps/orca/orca_4_2_0_linux_x86-64_openmpi314/orca_scf_mpi[0x4704f1]
[bp1-compute00214:254365] [10] /sw/apps/orca/orca_4_2_0_linux_x86-64_openmpi314/orca_scf_mpi[0x4772cc]
[bp1-compute00214:254365] [11] /lib64/libc.so.6(__libc_start_main+0xf5)[0x2b38c8867555]
[bp1-compute00214:254365] [12] /sw/apps/orca/orca_4_2_0_linux_x86-64_openmpi314/orca_scf_mpi[0x462839]
[bp1-compute00214:254365] *** End of error message ***
afbd32b000 ---p 00016000 00:29 53687523181                /sw/lang/gcc-9.1.0/lib64/libgcc_s.so.1
2aafbd32b000-2aafbd32c000 r--p 00016000 00:29 53687523181                /sw/lang/gcc-9.1.0/lib64/libgcc_s.so.1
2aafbd32c000-2aafbd32d000 rw-p 00017000 00:29 53687523181                /sw/lang/gcc-9.1.0/lib64/libgcc_s.so.1
2aafbe10c000-2aafc20e3000 rw-p 00000000 00:00 0 
2aafc67c6000-2aafc79cc000 rw-p 00000000 00:00 0 
2aafc8000000-2aafc8021000 rw-p 00000000 00:00 0 
2aafc8021000-2aafcc000000 ---p 00000000 00:00 0 
7fff0898a000-7fff08ac3000 rw-p 00000000 00:00 0                          [stack]
7fff08b3a000-7fff08b3c000 r-xp 00000000 00:00 0                          [vdso]
ffffffffff600000-ffffffffff601000 r-xp 00000000 00:00 0                  [vsyscall]
[bp1-compute00214:254368] *** Process received signal ***
[bp1-compute00214:254368] Signal: Aborted (6)
[bp1-compute00214:254368] Signal code:  (-6)
[bp1-compute00214:254368] [ 0] /lib64/libc.so.6(+0x36400)[0x2aafa5a69400]
[bp1-compute00214:254368] [ 1] /lib64/libc.so.6(gsignal+0x37)[0x2aafa5a69387]
[bp1-compute00214:254368] [ 2] /lib64/libc.so.6(abort+0x148)[0x2aafa5a6aa78]
[bp1-compute00214:254368] [ 3] /lib64/libc.so.6(+0x78ed7)[0x2aafa5aabed7]
[bp1-compute00214:254368] [ 4] /lib64/libc.so.6(+0x80ba7)[0x2aafa5ab3ba7]
[bp1-compute00214:254368] [ 5] /lib64/libc.so.6(+0x8117e)[0x2aafa5ab417e]
[bp1-compute00214:254368] [ 6] /sw/apps/orca/orca_4_2_0_linux_x86-64_openmpi314/orca_scf_mpi[0x73cc28]
[bp1-compute00214:254368] [ 7] /sw/apps/orca/orca_4_2_0_linux_x86-64_openmpi314/orca_scf_mpi[0xf19f50]
[bp1-compute00214:254368] [ 8] /sw/apps/orca/orca_4_2_0_linux_x86-64_openmpi314/orca_scf_mpi[0x46eae2]
[bp1-compute00214:254368] [ 9] /sw/apps/orca/orca_4_2_0_linux_x86-64_openmpi314/orca_scf_mpi[0x4704f1]
[bp1-compute00214:254368] [10] /sw/apps/orca/orca_4_2_0_linux_x86-64_openmpi314/orca_scf_mpi[0x4772cc]
[bp1-compute00214:254368] [11] /lib64/libc.so.6(__libc_start_main+0xf5)[0x2aafa5a55555]
[bp1-compute00214:254368] [12] /sw/apps/orca/orca_4_2_0_linux_x86-64_openmpi314/orca_scf_mpi[0x462839]
[bp1-compute00214:254368] *** End of error message ***
ibc.so.6(gsignal+0x37)[0x2b676d891387]
[bp1-compute00214:254366] [ 2] /lib64/libc.so.6(abort+0x148)[0x2b676d892a78]
[bp1-compute00214:254366] [ 3] /lib64/libc.so.6(+0x78ed7)[0x2b676d8d3ed7]
[bp1-compute00214:254366] [ 4] /lib64/libc.so.6(+0x81299)[0x2b676d8dc299]
[bp1-compute00214:254366] [ 5] /sw/apps/orca/orca_4_2_0_linux_x86-64_openmpi314/orca_scf_mpi[0x787ded]
[bp1-compute00214:254366] [ 6] /sw/apps/orca/orca_4_2_0_linux_x86-64_openmpi314/orca_scf_mpi[0xf19e44]
[bp1-compute00214:254366] [ 7] /sw/apps/orca/orca_4_2_0_linux_x86-64_openmpi314/orca_scf_mpi[0x46eae2]
[bp1-compute00214:254366] [ 8] /sw/apps/orca/orca_4_2_0_linux_x86-64_openmpi314/orca_scf_mpi[0x4704f1]
[bp1-compute00214:254366] [ 9] /sw/apps/orca/orca_4_2_0_linux_x86-64_openmpi314/orca_scf_mpi[0x4772cc]
[bp1-compute00214:254366] [10] /lib64/libc.so.6(__libc_start_main+0xf5)[0x2b676d87d555]
[bp1-compute00214:254366] [11] /sw/apps/orca/orca_4_2_0_linux_x86-64_openmpi314/orca_scf_mpi[0x462839]
[bp1-compute00214:254366] *** End of error message ***

ibc.so.6(gsignal+0x37)[0x2aec7617e387]
[bp1-compute00214:254369] [ 2] /lib64/libc.so.6(abort+0x148)[0x2aec7617fa78]
[bp1-compute00214:254369] [ 3] /lib64/libc.so.6(+0x78ed7)[0x2aec761c0ed7]
[bp1-compute00214:254369] [ 4] /lib64/libc.so.6(+0x80ba7)[0x2aec761c8ba7]
[bp1-compute00214:254369] [ 5] /lib64/libc.so.6(+0x8117e)[0x2aec761c917e]
[bp1-compute00214:254369] [ 6] /sw/apps/orca/orca_4_2_0_linux_x86-64_openmpi314/orca_scf_mpi[0x73cc28]
[bp1-compute00214:254369] [ 7] /sw/apps/orca/orca_4_2_0_linux_x86-64_openmpi314/orca_scf_mpi[0xf19f50]
[bp1-compute00214:254369] [ 8] /sw/apps/orca/orca_4_2_0_linux_x86-64_openmpi314/orca_scf_mpi[0x46eae2]
[bp1-compute00214:254369] [ 9] /sw/apps/orca/orca_4_2_0_linux_x86-64_openmpi314/orca_scf_mpi[0x4704f1]
[bp1-compute00214:254369] [10] /sw/apps/orca/orca_4_2_0_linux_x86-64_openmpi314/orca_scf_mpi[0x4772cc]
[bp1-compute00214:254369] [11] /lib64/libc.so.6(__libc_start_main+0xf5)[0x2aec7616a555]
[bp1-compute00214:254369] [12] /sw/apps/orca/orca_4_2_0_linux_x86-64_openmpi314/orca_scf_mpi[0x462839]
[bp1-compute00214:254369] *** End of error message ***

3                /sw/lib/openmpi-4.0.2/lib/openmpi/mca_pml_ob1.so
2b323165f000-2b3231660000 r--p 00020000 00:29 23650208263                /sw/lib/openmpi-4.0.2/lib/openmpi/mca_pml_ob1.so
2b3231660000-2b3231661000 rw-p 00021000 00:29 23650208263                /sw/lib/openmpi-4.0.2/lib/openmpi/mca_pml_ob1.so
2b3231661000-2b323166e000 r-xp 00000000 00:29 23650205465                /sw/lib/openmpi-4.0.2/lib/openmpi/mca_coll_basic.so
2b323166e000-2b323186d000 ---p 0000d000 00:29 23650205465                /sw/lib/openmpi-4.0.2/lib/openmpi/mca_coll_basic.so
2b323186d000-2b323186e000 r--p 0000c000 00:29 23650205465                /sw/lib/openmpi-4.0.2/lib/openmpi/mca_coll_basic.so
2b323186e000-2b323186f000 rw-p 0000d000 00:29 23650205465                /sw/lib/openmpi-4.0.2/lib/openmpi/mca_coll_basic.so
2b323186f000-2b323188e000 r-xp 00000000 00:29 23650205469                /sw/lib/openmpi-4.0.2/lib/openmpi/mca_coll_libnbc.so
2b323188e000-2b3231a8d000 ---p 0001f000 00:29 23650205469                /sw/lib/openmpi-4.0.2/lib/openmpi/mca_coll_libnbc.so
2b3231a8d000-2b3231a8e000 r--p 0001e000 00:29 23650205469                /sw/lib/openmpi-4.0.2/lib/openmpi/mca_coll_libnbc.so
2b3231a8e000-2b3231a8f000 rw-p 0001f000 00:29 23650205469                /sw/lib/openmpi-4.0.2/lib/openmpi/mca_coll_libnbc.so
2b3231a8f000-2b3231a91000 r-xp 00000000 00:29 23650205471                /sw/lib/openmpi-4.0.2/lib/openmpi/mca_coll_self.so
2b3231a91000-2b3231c91000 ---p 00002000 00:29 23650205471                /sw/lib/openmpi-4.0.2/lib/openmpi/mca_coll_self.so
2b3231c91000-2b3231c92000 r--p 00002000 00:29 23650205471                /sw/lib/openmpi-4.0.2/lib/openmpi/mca_coll_self.so
2b3231c92000-2b3231c93000 rw-p 00003000 00:29 23650205471                /sw/lib/openmpi-4.0.2/lib/openmpi/mca_coll_self.so
2b3231c93000-2b3231c99000 r-xp 00000000 00:29 23650205473                /sw/lib/openmpi-4.0.2/lib/openmpi/mca_coll_sm.so
2b3231c99000-2b3231e98000 ---p 00006000 00:29 23650205473                /sw/lib/openmpi-4.0.2/lib/openmpi/mca_coll_sm.so
2b3231e98000-2b3231e99000 r--p 00005000 00:29 23650205473                /sw/lib/openmpi-4.0.2/lib/openmpi/mca_coll_sm.so
2b3231e99000-2b3231e9a000 rw-p 00006000 00:29 23650205473                /sw/lib/openmpi-4.0.2/lib/openmpi/mca_coll_sm.so
2b3231e9a000-2b3231e9c000 r-xp 00000000 00:29 21503616184                /sw/lib/openmpi-4.0.2/lib/libmca_common_sm.so.40.20.0
2b3231e9c000-2b323209b000 ---p 00002000 00:29 21503616184                /sw/lib/openmpi-4.0.2/lib/libmca_common_sm.so.40.20.0
2b323209b000-2b323209c000 r--p 00001000 00:29 21503616184                /sw/lib/openmpi-4.0.2/lib/libmca_common_sm.so.40.20.0
2b323209c000-2b323209d000 rw-p 00002000 00:29 21503616184                /sw/lib/openmpi-4.0.2/lib/libmca_common_sm.so.40.20.0
2b323209d000-2b32320a0000 r-xp 00000000 00:29 23650205475                /sw/lib/openmpi-4.0.2/lib/openmpi/mca_coll_sync.so
2b32320a0000-2b32322a0000 ---p 00003000 00:29 23650205475                /sw/lib/openmpi-4.0.2/lib/openmpi/mca_coll_sync.so
2b32322a0000-2b32322a1000 r--p 00003000 00:29 23650205475                /sw/lib/openmpi-4.0.2/lib/openmpi/mca_coll_sync.so
2b32322a1000-2b32322a2000 rw-p 00004000 00:29 23650205475                /sw/lib/openmpi-4.0.2/lib/openmpi/mca_coll_sync.so
2b32322a2000-2b32322b2000 r-xp 00000000 00:29 23650205477                /sw/lib/openmpi-4.0.2/lib/openmpi/mca_coll_tuned.so
2b32322b2000-2b32324b1000 ---p 00010000 00:29 23650205477                /sw/lib/openmpi-4.0.2/lib/openmpi/mca_coll_tuned.so
2b32324b1000-2b32324b2000 r--p 0000f000 00:29 23650205477                /sw/lib/openmpi-4.0.2/lib/openmpi/mca_coll_tuned.so
2b32324b2000-2b32324b3000 rw-p 00010000 00:29 23650205477                /sw/lib/openmpi-4.0.2/lib/openmpi/mca_coll_tuned.so
2b32326c2000-2b32326c8000 r-xp 00000000 00:29 23650205499                /sw/lib/openmpi-4.0.2/lib/openmpi/mca_osc_sm.so
2b32326c8000-2b32328c7000 ---p 00006000 00:29 23650205499                /sw/lib/openmpi-4.0.2/lib/openmpi/mca_osc_sm.so
2b32328c7000-2b32328c8000 r--p 00005000 00:29 23650205499                /sw/lib/openmpi-4.0.2/lib/openmpi/mca_osc_sm.so
2b32328c8000-2b32328ca000 rw-p 00006000 00:29 23650205499                /sw/lib/openmpi-4.0.2/lib/openmpi/mca_osc_sm.so
2b3232ad5000-2b3232af0000 r-xp 00000000 00:29 23650205503                /sw/lib/openmpi-4.0.2/lib/openmpi/mca_osc_pt2pt.so
2b3232af0000-2b3232cef000 ---p 0001b000 00:29 23650205503                /sw/lib/openmpi-4.0.2/lib/openmpi/mca_osc_pt2pt.so
2b3232cef000-2b3232cf0000 r--p 0001a000 00:29 23650205503                /sw/lib/openmpi-4.0.2/lib/openmpi/mca_osc_pt2pt.so
2b3232cf0000-2b3232cf1000 rw-p 0001b000 00:29 23650205503                /sw/lib/openmpi-4.0.2/lib/openmpi/mca_osc_pt2pt.so
2b3232cf1000-2b3232d12000 r-xp 00000000 00:29 23650208257                /sw/lib/openmpi-4.0.2/lib/openmpi/mca_osc_rdma.so
2b3232d12000-2b3232f11000 ---p 00021000 00:29 23650208257                /sw/lib/openmpi-4.0.2/lib/openmpi/mca_osc_rdma.so
2b3232f11000-2b3232f12000 r--p 00020000 00:29 23650208257                /sw/lib/openmpi-4.0.2/lib/openmpi/mca_osc_rdma.so
2b3232f12000-2b3232f13000 rw-p 00021000 00:29 23650208257                /sw/lib/openmpi-4.0.2/lib/openmpi/mca_osc_rdma.so
2b3232f13000-2b3233314000 rw-s 00000000 00:13 9412169                    /dev/shm/vader_segment.bp1-compute00214.f64d0001.2
2b3233314000-2b3233715000 rw-s 00000000 00:13 9752954                    /dev/shm/vader_segment.bp1-compute00214.f64d0001.3
2b3233715000-2b3233b16000 rw-s 00000000 00:13 9450292                    /dev/shm/vader_segment.bp1-compute00214.f64d0001.4
2b3233b16000-2b3233f17000 rw-s 00000000 00:13 9788557                    /dev/shm/vader_segment.bp1-compute00214.f64d0001.5
2b3233f17000-2b3234318000 rw-s 00000000 00:13 9394806                    /dev/shm/vader_segment.bp1-compute00214.f64d0001.6
2b3234318000-2b3234719000 rw-s 00000000 00:13 9797842                    /dev/shm/vader_segment.bp1-compute00214.f64d0001.7
2b3234719000-2b3234b1a000 rw-s 00000000 00:13 9771890                    /dev/shm/vader_segment.bp1-compute00214.f64d0001.8
2b3234b1a000-2b3234f1b000 rw-s 00000000 00:13 9772359                    /dev/shm/vader_segment.bp1-compute00214.f64d0001.9
2b3234f1b000-2b323531c000 rw-s 00000000 00:13 9800715                    /dev/shm/vader_segment.bp1-compute00214.f64d0001.10
2b323531c000-2b323571d000 rw-s 00000000 00:13 9760269                    /dev/shm/vader_segment.bp1-compute00214.f64d0001.11
2b323571d000-2b3235b1e000 rw-s 00000000 00:13 9327236                    /dev/shm/vader_segment.bp1-compute00214.f64d0001.12
2b3235b1e000-2b3235f1f000 rw-s 00000000 00:13 9730546                    /dev/shm/vader_segment.bp1-compute00214.f64d0001.13
2b3235f1f000-2b3236320000 rw-s 00000000 00:13 9580748                    /dev/shm/vader_segment.bp1-compute00214.f64d0001.14
2b3236320000-2b3236721000 rw-s 00000000 00:13 9382771                    /dev/shm/vader_segment.bp1-compute00214.f64d0001.15
2b3236721000-2b3236b22000 rw-s 00000000 00:13 9303813                    /dev/shm/vader_segment.bp1-compute00214.f64d0001.16
2b3236b22000-2b3236f23000 rw-s 00000000 00:13 9686494                    /dev/shm/vader_segment.bp1-compute00214.f64d0001.17
2b3236f23000-2b3237324000 rw-s 00000000 00:13 9236904                    /dev/shm/vader_segment.bp1-compute00214.f64d0001.18
2b3237324000-2b3237725000 rw-s 00000000 00:13 9683559                    /dev/shm/vader_segment.bp1-compute00214.f64d0001.19
2b3237725000-2b3237b26000 rw-s 00000000 00:13 9488669                    /dev/shm/vader_segment.bp1-compute00214.f64d0001.20
2b3237b26000-2b3237f27000 rw-s 00000000 00:13 9782309                    /dev/shm/vader_segment.bp1-compute00214.f64d0001.21
2b3237f27000-2b3238328000 rw-s 00000000 00:13 9292226                    /dev/shm/vader_segment.bp1-compute00214.f64d0001.22
2b3238328000-2b3238729000 rw-s 00000000 00:13 9783390                    /dev/shm/vader_segment.bp1-compute00214.f64d0001.23
2b3238729000-2b3239720000 rw-p 00000000 00:00 0 
2b3239720000-2b3239736000 r-xp 00000000 00:29 53687523181                /sw/lang/gcc-9.1.0/lib64/libgcc_s.so.1
2b3239736000-2b3239936000 ---p 00016000 00:29 53687523181                /sw/lang/gcc-9.1.0/lib64/libgcc_s.so.1
2b3239936000-2b3239937000 r--p 00016000 00:29 53687523181                /sw/lang/gcc-9.1.0/lib64/libgcc_s.so.1
2b3239937000-2b3239938000 rw-p 00017000 00:29 53687523181                /sw/lang/gcc-9.1.0/lib64/libgcc_s.so.1
2b323a717000-2b323e6ee000 rw-p 00000000 00:00 0 
2b3242dd1000-2b3243fd7000 rw-p 00000000 00:00 0 
2b3244000000-2b3244021000 rw-p 00000000 00:00 0 
2b3244021000-2b3248000000 ---p 00000000 00:00 0 
7ffd1a9ad000-7ffd1aae6000 rw-p 00000000 00:00 0                          [stack]
7ffd1ab2e000-7ffd1ab30000 r-xp 00000000 00:00 0                          [vdso]
ffffffffff600000-ffffffffff601000 r-xp 00000000 00:00 0                  [vsyscall]
[bp1-compute00214:254360] *** Process received signal ***
[bp1-compute00214:254360] Signal: Aborted (6)
[bp1-compute00214:254360] Signal code:  (-6)
[bp1-compute00214:254360] [ 0] /lib64/libc.so.6(+0x36400)[0x2b3221eaa400]
[bp1-compute00214:254360] [ 1] /lib64/libc.so.6(gsignal+0x37)[0x2b3221eaa387]
[bp1-compute00214:254360] [ 2] /lib64/libc.so.6(abort+0x148)[0x2b3221eaba78]
[bp1-compute00214:254360] [ 3] /lib64/libc.so.6(+0x78ed7)[0x2b3221eeced7]
[bp1-compute00214:254360] [ 4] /lib64/libc.so.6(+0x80ba7)[0x2b3221ef4ba7]
[bp1-compute00214:254360] [ 5] /lib64/libc.so.6(+0x8117e)[0x2b3221ef517e]
[bp1-compute00214:254360] [ 6] /sw/apps/orca/orca_4_2_0_linux_x86-64_openmpi314/orca_scf_mpi[0x73cc28]
[bp1-compute00214:254360] [ 7] /sw/apps/orca/orca_4_2_0_linux_x86-64_openmpi314/orca_scf_mpi[0xf19f50]
[bp1-compute00214:254360] [ 8] /sw/apps/orca/orca_4_2_0_linux_x86-64_openmpi314/orca_scf_mpi[0x46eae2]
[bp1-compute00214:254360] [ 9] /sw/apps/orca/orca_4_2_0_linux_x86-64_openmpi314/orca_scf_mpi[0x4704f1]
[bp1-compute00214:254360] [10] /sw/apps/orca/orca_4_2_0_linux_x86-64_openmpi314/orca_scf_mpi[0x4772cc]
[bp1-compute00214:254360] [11] /lib64/libc.so.6(__libc_start_main+0xf5)[0x2b3221e96555]
[bp1-compute00214:254360] [12] /sw/apps/orca/orca_4_2_0_linux_x86-64_openmpi314/orca_scf_mpi[0x462839]
[bp1-compute00214:254360] *** End of error message ***
--------------------------------------------------------------------------
Primary job  terminated normally, but 1 process returned
a non-zero exit code. Per user-direction, the job has been aborted.
--------------------------------------------------------------------------
--------------------------------------------------------------------------
mpirun noticed that process rank 20 with PID 0 on node bp1-compute00214 exited on signal 6 (Aborted).
--------------------------------------------------------------------------

ORCA finished by error termination in SCF
Calling Command: mpirun -np 24  /sw/apps/orca/orca_4_2_0_linux_x86-64_openmpi314/orca_scf_mpi MOR10_ed09.gbw b MOR10_ed09 
[file orca_tools/qcmsg.cpp, line 458]: 
  .... aborting the run

[file orca_tools/qcmsg.cpp, line 458]: 
  .... aborting the run

