
                                 *****************
                                 * O   R   C   A *
                                 *****************

           --- An Ab Initio, DFT and Semiempirical electronic structure package ---

                  #######################################################
                  #                        -***-                        #
                  #          Department of theory and spectroscopy      #
                  #               Directorship: Frank Neese             #
                  #        Max Planck Institute fuer Kohlenforschung    #
                  #                Kaiser Wilhelm Platz 1               #
                  #                 D-45470 Muelheim/Ruhr               #
                  #                      Germany                        #
                  #                                                     #
                  #                  All rights reserved                #
                  #                        -***-                        #
                  #######################################################


                         Program Version 4.2.0 -  RELEASE  -


 With contributions from (in alphabetic order):
   Daniel Aravena         : Magnetic Suceptibility
   Michael Atanasov       : Ab Initio Ligand Field Theory (pilot matlab implementation)
   Alexander A. Auer      : GIAO ZORA, VPT2
   Ute Becker             : Parallelization
   Giovanni Bistoni       : ED, misc. LED, open-shell LED, HFLED
   Martin Brehm           : Molecular dynamics
   Dmytro Bykov           : SCF Hessian
   Vijay G. Chilkuri      : MRCI spin determinant printing, contributions to CSF-ICE
   Dipayan Datta          : RHF DLPNO-CCSD density
   Achintya Kumar Dutta   : EOM-CC, STEOM-CC
   Dmitry Ganyushin       : Spin-Orbit,Spin-Spin,Magnetic field MRCI
   Miquel Garcia          : C-PCM Hessian, Gaussian charge scheme
   Yang Guo               : DLPNO-NEVPT2, CIM, IAO-localization
   Andreas Hansen         : Spin unrestricted coupled pair/coupled cluster methods
   Benjamin Helmich-Paris : CASSCF linear response (MC-RPA)
   Lee Huntington         : MR-EOM, pCC
   Robert Izsak           : Overlap fitted RIJCOSX, COSX-SCS-MP3, EOM
   Christian Kollmar      : KDIIS, OOCD, Brueckner-CCSD(T), CCSD density
   Simone Kossmann        : Meta GGA functionals, TD-DFT gradient, OOMP2, MP2 Hessian
   Martin Krupicka        : AUTO-CI
   Lucas Lang             : DCDCAS
   Dagmar Lenk            : GEPOL surface, SMD
   Dimitrios Liakos       : Extrapolation schemes; Compound Job, initial MDCI parallelization
   Dimitrios Manganas     : Further ROCIS development; embedding schemes
   Dimitrios Pantazis     : SARC Basis sets
   Taras Petrenko         : DFT Hessian,TD-DFT gradient, ASA, ECA, R-Raman, ABS, FL, XAS/XES, NRVS
   Peter Pinski           : DLPNO-MP2, DLPNO-MP2 Gradient
   Christoph Reimann      : Effective Core Potentials
   Marius Retegan         : Local ZFS, SOC
   Christoph Riplinger    : Optimizer, TS searches, QM/MM, DLPNO-CCSD(T), (RO)-DLPNO pert. Triples
   Tobias Risthaus        : Range-separated hybrids, TD-DFT gradient, RPA, STAB
   Michael Roemelt        : Original ROCIS implementation
   Masaaki Saitow         : Open-shell DLPNO-CCSD energy and density
   Barbara Sandhoefer     : DKH picture change effects
   Avijit Sen             : IP-ROCIS
   Kantharuban Sivalingam : CASSCF convergence, NEVPT2, FIC-MRCI
   Bernardo de Souza      : ESD, SOC TD-DFT
   Georgi Stoychev        : AutoAux, RI-MP2 NMR
   Willem Van den Heuvel  : Paramagnetic NMR
   Boris Wezisla          : Elementary symmetry handling
   Frank Wennmohs         : Technical directorship


 We gratefully acknowledge several colleagues who have allowed us to
 interface, adapt or use parts of their codes:
   Stefan Grimme, W. Hujo, H. Kruse,             : VdW corrections, initial TS optimization,
                  C. Bannwarth                     DFT functionals, gCP, sTDA/sTD-DF
   Ed Valeev, F. Pavosevic, A. Kumar             : LibInt (2-el integral package), F12 methods
   Garnet Chan, S. Sharma, J. Yang, R. Olivares  : DMRG
   Ulf Ekstrom                                   : XCFun DFT Library
   Mihaly Kallay                                 : mrcc  (arbitrary order and MRCC methods)
   Andreas Klamt, Michael Diedenhofen            : otool_cosmo (COSMO solvation model)
   Jiri Pittner, Ondrej Demel                    : Mk-CCSD
   Frank Weinhold                                : gennbo (NPA and NBO analysis)
   Christopher J. Cramer and Donald G. Truhlar   : smd solvation model
   Lars Goerigk                                  : TD-DFT with DH, B97 family of functionals
   V. Asgeirsson, H. Jonsson                     : NEB implementation
   FAccTs GmbH                                   : IRC, NEB, NEB-TS, Multilevel, MM, QM/MM, CI optimization
   S Lehtola, MJT Oliveira, MAL Marques          : LibXC Library


 Your calculation uses the libint2 library for the computation of 2-el integrals
 For citations please refer to: http://libint.valeyev.net

 Your ORCA version has been built with support for libXC version: 4.2.3
 For citations please refer to: https://tddft.org/programs/libxc/

 This ORCA versions uses:
   CBLAS   interface :  Fast vector & matrix operations
   LAPACKE interface :  Fast linear algebra routines
   SCALAPACK package :  Parallel linear algebra routines


Your calculation utilizes the atom-pairwise dispersion correction
with the zero-damping scheme (D30)
Cite in your paper:
S.Grimme, J.Antony, S.Ehrlich and H.Krieg, J.Chem.Phys., 132, (2010), 154104 
   

XCFun DFT library Copyright 2009-2010 Ulf Ekstrom and contributors.
See http://admol.org/xcfun for more information. This is free soft-
ware; see the source code for copying conditions. There is ABSOLUTELY
NO WARRANTY; not even for MERCHANTABILITY or FITNESS FOR A PARTICULAR
PURPOSE. For details see the documentation. Scientific users of this 
library should cite U. Ekstrom, L. Visscher, R. Bast, A. J. Thorvald-
sen and K. Ruud; J.Chem.Theor.Comp. 2010, DOI: 10.1021/ct100117s
XCFun Version 0.99 
----- Orbital basis set information -----
Your calculation utilizes the basis: def2-TZVPPD
   F. Weigend and R. Ahlrichs, Phys. Chem. Chem. Phys. 7, 3297 (2005).
   D. Rappoport and F. Furche, J. Chem. Phys. 133 134105 (2010).

----- AuxJK basis set information -----
Your calculation utilizes the auxiliary basis: def2/JK
   H-Ba, Hf-Rn: F. Weigend, J. Comput. Chem. 29, 167 (2008).

cite the ECPs for W  [Def2-ECP] as follows:
Ce-Yb(ecp-28): M. Dolg, H. Stoll, H.Preuss, J. Chem. Phys., 1989, 90, 1730-1734.
Y-Cd(ecp-28), Hf-Hg(ecp-46): D. Andrae,U. Haeussermann, M. Dolg, H. Stoll, H. Preuss, Theor. Chim. Acta, 1990, 77, 123-141.
In-Sb(ecp-28), Tl-Bi(ecp-46): B. Metz, H. Stoll, M. Dolg, J. Chem. Phys., 2000, 113, 2563-2569.
Te-Xe(ecp-28), Po-Rn(ecp-46): K. A. Peterson, D. Figgen, E. Goll, H. Stoll, M. Dolg, J. Chem. Phys., 2003, 119, 11113-11123.
Rb(ecp-28), Cs(ecp-46): T. Leininger, A. Nicklass, W. Kuechle, H. Stoll, M. Dolg, A. Bergner, Chem. Phys. Lett., 1996, 255, 274-280.
Sr(ecp-28), Ba(ecp-46): M. Kaupp, P. V. Schleyer, H. Stoll and H. Preuss, J. Chem. Phys., 1991, 94, 1360-1366.
La(ecp-46): M. Dolg, H. Stoll, A. Savin, H. Preuss, Theor. Chim. Acta, 1989, 75, 173-194.
Lu(ecp-28): X. Cao, M. Dolg, J. Chem. Phys., 2001, 115, 7348-7355.

ECP parameters for W  [Def2-ECP] have been obtained from:
TURBOMOLE (7.0.2)

================================================================================
                                        WARNINGS
                       Please study these warnings very carefully!
================================================================================


WARNING: Minnesota functionals are quite sensitive to the integration grid.
         see SE Wheeler, KN Houk, JCTC 2010, 6, 395,
             N Mardirossian, M Head-Gordon, JCTC 2016, 12, 4303.
         Grid6 seems to be a minimum grid for reliable results with these functionals!
  ===> : Please increase the integration grid!


INFO   : the flag for use of LIBINT has been found!

================================================================================
                                       INPUT FILE
================================================================================
NAME = MOR27_pr07.in
|  1> #
|  2> # MOR27_pr07 M06-D3/Def2-TZVPPD
|  3> #
|  4> ! m06 d3zero def2-tzvppd def2/jk grid4 nofinalgrid
|  5> 
|  6> *xyz 0 1
|  7> W        0.000153   -0.023654    0.145460 
|  8> C       -0.000249    1.935753    0.684175 
|  9> O       -0.000602    3.038332    1.069126 
| 10> C        0.000042    0.319115   -1.817511 
| 11> O        0.000023    0.516387   -2.971186 
| 12> C        0.000186   -2.057627    0.000209 
| 13> O        0.000001   -3.223688    0.015338 
| 14> H       -0.422672   -0.342863    1.975704 
| 15> H        0.423087   -0.343070    1.976292 
| 16> P        2.499044    0.051189    0.053466 
| 17> C        3.398497   -0.579400    1.568536 
| 18> H        4.468576   -0.564735    1.332934 
| 19> C        3.357030   -0.829661   -1.379272 
| 20> H        3.371948   -0.051400   -2.154068 
| 21> C        3.157630    1.804169   -0.095931 
| 22> H        2.704128    2.295578    0.773940 
| 23> C       -3.158190    1.803853   -0.098051 
| 24> P       -2.499342    0.051185    0.053494 
| 25> H       -4.468329   -0.563916    1.334439 
| 26> H       -2.705915    2.296277    0.771888 
| 27> C       -3.357947   -0.831337   -1.377937 
| 28> H       -3.374541   -0.053484   -2.153122 
| 29> C        4.805704   -1.269244   -1.108536 
| 30> H        5.254950   -1.620204   -2.045252 
| 31> H        4.835898   -2.103732   -0.400453 
| 32> H        5.434431   -0.467933   -0.716341 
| 33> C        2.560788   -2.016752   -1.935473 
| 34> H        3.061937   -2.400142   -2.832615 
| 35> H        1.542966   -1.732188   -2.204810 
| 36> H        2.502084   -2.833493   -1.209948 
| 37> C        4.680481    1.979802   -0.012340 
| 38> H        4.916239    3.046506    0.083978 
| 39> H        5.169829    1.620688   -0.922848 
| 40> H        5.123446    1.463622    0.844533 
| 41> C        2.617881    2.501599   -1.352306 
| 42> H        2.906367    3.558914   -1.336615 
| 43> H        1.529775    2.443192   -1.410983 
| 44> H        3.032951    2.058398   -2.264167 
| 45> C        3.156179    0.325190    2.783070 
| 46> H        3.624905   -0.113517    3.671755 
| 47> H        2.084721    0.431553    2.987984 
| 48> H        3.570907    1.327076    2.642068 
| 49> C        2.983676   -2.024266    1.875196 
| 50> H        3.139448   -2.690345    1.021876 
| 51> H        1.922767   -2.073885    2.140278 
| 52> H        3.565975   -2.409562    2.720613 
| 53> C       -4.681242    1.978525   -0.016373 
| 54> H       -5.169268    1.617830   -0.926977 
| 55> H       -4.917927    3.045167    0.078302 
| 56> H       -5.124772    1.463082    0.840662 
| 57> C       -2.617453    2.500423   -1.354472 
| 58> H       -3.030239    2.055355   -2.266464 
| 59> C       -2.982294   -2.021525    1.878658 
| 60> H       -1.529170    2.443643   -1.411239 
| 61> H       -2.907637    3.557302   -1.340680 
| 62> C       -3.156106    0.329464    2.782654 
| 63> H       -1.921474   -2.069894    2.144316 
| 64> H       -3.564665   -2.406148    2.724324 
| 65> H       -3.137027   -2.688908    1.026165 
| 66> C       -3.398186   -0.577432    1.569777 
| 67> H       -3.622276   -0.109074    3.672772 
| 68> H       -3.573608    1.330095    2.640827 
| 69> H       -2.084555    0.438855    2.985621 
| 70> C       -4.805869   -1.272290   -1.105425 
| 71> H       -5.255612   -1.624537   -2.041419 
| 72> H       -5.435110   -0.471325   -0.713333 
| 73> H       -4.834472   -2.106207   -0.396602 
| 74> C       -2.561058   -2.017888   -1.934324 
| 75> H       -2.500954   -2.834229   -1.208460 
| 76> H       -1.543733   -1.732464   -2.204653 
| 77> H       -3.062606   -2.402180   -2.830854 
| 78> *
| 79> 
| 80> %maxcore 5000
| 81> 
| 82> %pal
| 83> nprocs = 24
| 84> end
| 85> 
| 86> 
| 87>                          ****END OF INPUT****
================================================================================

                       ****************************
                       * Single Point Calculation *
                       ****************************

---------------------------------
CARTESIAN COORDINATES (ANGSTROEM)
---------------------------------
  W      0.000153   -0.023654    0.145460
  C     -0.000249    1.935753    0.684175
  O     -0.000602    3.038332    1.069126
  C      0.000042    0.319115   -1.817511
  O      0.000023    0.516387   -2.971186
  C      0.000186   -2.057627    0.000209
  O      0.000001   -3.223688    0.015338
  H     -0.422672   -0.342863    1.975704
  H      0.423087   -0.343070    1.976292
  P      2.499044    0.051189    0.053466
  C      3.398497   -0.579400    1.568536
  H      4.468576   -0.564735    1.332934
  C      3.357030   -0.829661   -1.379272
  H      3.371948   -0.051400   -2.154068
  C      3.157630    1.804169   -0.095931
  H      2.704128    2.295578    0.773940
  C     -3.158190    1.803853   -0.098051
  P     -2.499342    0.051185    0.053494
  H     -4.468329   -0.563916    1.334439
  H     -2.705915    2.296277    0.771888
  C     -3.357947   -0.831337   -1.377937
  H     -3.374541   -0.053484   -2.153122
  C      4.805704   -1.269244   -1.108536
  H      5.254950   -1.620204   -2.045252
  H      4.835898   -2.103732   -0.400453
  H      5.434431   -0.467933   -0.716341
  C      2.560788   -2.016752   -1.935473
  H      3.061937   -2.400142   -2.832615
  H      1.542966   -1.732188   -2.204810
  H      2.502084   -2.833493   -1.209948
  C      4.680481    1.979802   -0.012340
  H      4.916239    3.046506    0.083978
  H      5.169829    1.620688   -0.922848
  H      5.123446    1.463622    0.844533
  C      2.617881    2.501599   -1.352306
  H      2.906367    3.558914   -1.336615
  H      1.529775    2.443192   -1.410983
  H      3.032951    2.058398   -2.264167
  C      3.156179    0.325190    2.783070
  H      3.624905   -0.113517    3.671755
  H      2.084721    0.431553    2.987984
  H      3.570907    1.327076    2.642068
  C      2.983676   -2.024266    1.875196
  H      3.139448   -2.690345    1.021876
  H      1.922767   -2.073885    2.140278
  H      3.565975   -2.409562    2.720613
  C     -4.681242    1.978525   -0.016373
  H     -5.169268    1.617830   -0.926977
  H     -4.917927    3.045167    0.078302
  H     -5.124772    1.463082    0.840662
  C     -2.617453    2.500423   -1.354472
  H     -3.030239    2.055355   -2.266464
  C     -2.982294   -2.021525    1.878658
  H     -1.529170    2.443643   -1.411239
  H     -2.907637    3.557302   -1.340680
  C     -3.156106    0.329464    2.782654
  H     -1.921474   -2.069894    2.144316
  H     -3.564665   -2.406148    2.724324
  H     -3.137027   -2.688908    1.026165
  C     -3.398186   -0.577432    1.569777
  H     -3.622276   -0.109074    3.672772
  H     -3.573608    1.330095    2.640827
  H     -2.084555    0.438855    2.985621
  C     -4.805869   -1.272290   -1.105425
  H     -5.255612   -1.624537   -2.041419
  H     -5.435110   -0.471325   -0.713333
  H     -4.834472   -2.106207   -0.396602
  C     -2.561058   -2.017888   -1.934324
  H     -2.500954   -2.834229   -1.208460
  H     -1.543733   -1.732464   -2.204653
  H     -3.062606   -2.402180   -2.830854

----------------------------
CARTESIAN COORDINATES (A.U.)
----------------------------
  NO LB      ZA    FRAG     MASS         X           Y           Z
   0 W    14.0000*   0   183.850    0.000289   -0.044700    0.274880
   1 C     6.0000    0    12.011   -0.000471    3.658043    1.292903
   2 O     8.0000    0    15.999   -0.001138    5.741615    2.020355
   3 C     6.0000    0    12.011    0.000079    0.603040   -3.434598
   4 O     8.0000    0    15.999    0.000043    0.975830   -5.614728
   5 C     6.0000    0    12.011    0.000351   -3.888352    0.000395
   6 O     8.0000    0    15.999    0.000002   -6.091887    0.028985
   7 H     1.0000    0     1.008   -0.798734   -0.647917    3.733539
   8 H     1.0000    0     1.008    0.799519   -0.648308    3.734651
   9 P    15.0000    0    30.974    4.722509    0.096733    0.101036
  10 C     6.0000    0    12.011    6.422229   -1.094907    2.964103
  11 H     1.0000    0     1.008    8.444385   -1.067194    2.518880
  12 C     6.0000    0    12.011    6.343867   -1.567832   -2.606446
  13 H     1.0000    0     1.008    6.372058   -0.097132   -4.070599
  14 C     6.0000    0    12.011    5.967056    3.409385   -0.181283
  15 H     1.0000    0     1.008    5.110061    4.338014    1.462535
  16 C     6.0000    0    12.011   -5.968114    3.408788   -0.185290
  17 P    15.0000    0    30.974   -4.723072    0.096726    0.101089
  18 H     1.0000    0     1.008   -8.443918   -1.065647    2.521724
  19 H     1.0000    0     1.008   -5.113438    4.339335    1.458657
  20 C     6.0000    0    12.011   -6.345600   -1.570999   -2.603924
  21 H     1.0000    0     1.008   -6.376958   -0.101070   -4.068811
  22 C     6.0000    0    12.011    9.081464   -2.398524   -2.094829
  23 H     1.0000    0     1.008    9.930416   -3.061742   -3.864966
  24 H     1.0000    0     1.008    9.138523   -3.975477   -0.756746
  25 H     1.0000    0     1.008   10.269586   -0.884265   -1.353688
  26 C     6.0000    0    12.011    4.839188   -3.811109   -3.657514
  27 H     1.0000    0     1.008    5.786222   -4.535611   -5.352867
  28 H     1.0000    0     1.008    2.915783   -3.273361   -4.166487
  29 H     1.0000    0     1.008    4.728254   -5.354526   -2.286470
  30 C     6.0000    0    12.011    8.844827    3.741284   -0.023319
  31 H     1.0000    0     1.008    9.290345    5.757062    0.158695
  32 H     1.0000    0     1.008    9.769561    3.062656   -1.743930
  33 H     1.0000    0     1.008    9.681910    2.765845    1.595936
  34 C     6.0000    0    12.011    4.947078    4.727337   -2.555488
  35 H     1.0000    0     1.008    5.492238    6.725373   -2.525836
  36 H     1.0000    0     1.008    2.890856    4.616964   -2.666371
  37 H     1.0000    0     1.008    5.731447    3.889808   -4.278656
  38 C     6.0000    0    12.011    5.964314    0.614520    5.259240
  39 H     1.0000    0     1.008    6.850078   -0.214516    6.938611
  40 H     1.0000    0     1.008    3.939552    0.815517    5.646471
  41 H     1.0000    0     1.008    6.748036    2.507810    4.992785
  42 C     6.0000    0    12.011    5.638331   -3.825308    3.543607
  43 H     1.0000    0     1.008    5.932697   -5.084015    1.931066
  44 H     1.0000    0     1.008    3.633503   -3.919075    4.044539
  45 H     1.0000    0     1.008    6.738716   -4.553412    5.141213
  46 C     6.0000    0    12.011   -8.846265    3.738870   -0.030940
  47 H     1.0000    0     1.008   -9.768501    3.057256   -1.751733
  48 H     1.0000    0     1.008   -9.293535    5.754532    0.147969
  49 H     1.0000    0     1.008   -9.684416    2.764824    1.588621
  50 C     6.0000    0    12.011   -4.946269    4.725115   -2.559581
  51 H     1.0000    0     1.008   -5.726322    3.884058   -4.282996
  52 C     6.0000    0    12.011   -5.635719   -3.820129    3.550149
  53 H     1.0000    0     1.008   -2.889713    4.617816   -2.666855
  54 H     1.0000    0     1.008   -5.494638    6.722327   -2.533518
  55 C     6.0000    0    12.011   -5.964176    0.622597    5.258454
  56 H     1.0000    0     1.008   -3.631060   -3.911533    4.052170
  57 H     1.0000    0     1.008   -6.736241   -4.546961    5.148226
  58 H     1.0000    0     1.008   -5.928122   -5.081300    1.939171
  59 C     6.0000    0    12.011   -6.421641   -1.091188    2.966449
  60 H     1.0000    0     1.008   -6.845110   -0.206120    6.940533
  61 H     1.0000    0     1.008   -6.753140    2.513515    4.990440
  62 H     1.0000    0     1.008   -3.939238    0.829316    5.642006
  63 C     6.0000    0    12.011   -9.081776   -2.404280   -2.088951
  64 H     1.0000    0     1.008   -9.931667   -3.069930   -3.857723
  65 H     1.0000    0     1.008  -10.270869   -0.890675   -1.348004
  66 H     1.0000    0     1.008   -9.135828   -3.980154   -0.749469
  67 C     6.0000    0    12.011   -4.839698   -3.813256   -3.655343
  68 H     1.0000    0     1.008   -4.726118   -5.355917   -2.283658
  69 H     1.0000    0     1.008   -2.917233   -3.273882   -4.166190
  70 H     1.0000    0     1.008   -5.787487   -4.539462   -5.349539
* core charge reduced due to ECP

--------------------------------
INTERNAL COORDINATES (ANGSTROEM)
--------------------------------
 W      0   0   0     0.000000000000     0.00000000     0.00000000
 C      1   0   0     2.032114614011     0.00000000     0.00000000
 O      2   1   0     1.167847527827   176.12695361     0.00000000
 C      1   2   3     1.992673015455    95.46795865   179.90673272
 O      4   1   2     1.170419688817   179.79842263   179.36888095
 C      1   2   3     2.039152769858   168.71175659   359.96307101
 O      6   1   4     1.166159155770   175.17195220   180.12208585
 H      1   2   3     1.905378824760    84.65488871    12.78820627
 H      8   1   2     0.845759229730    77.22033622   271.20127895
 P      1   2   3     2.501703539704    88.91702327   267.42385996
 C     10   1   2     1.871388599685   116.11931385    97.59800221
 H     11  10   1     1.095806748870   106.90430450   174.92789343
 C     10   1   2     1.888061141844   117.89569084   221.68198217
 H     13  10   1     1.098281190070   102.17569383    87.48111569
 C     10   1   2     1.878561647486   112.39731721   340.50601814
 H     15  10   1     1.097188418607   102.12136808    55.75901036
 C      2   1   8     3.256050749690    84.11367562   270.04630198
 P     17   2   1     1.878534453331    71.23168968    14.63070955
 H     18  17   2     2.428184329781    89.68503939   134.89033559
 H     17   2   1     1.097190929201    52.52240542   137.33329334
 C     18  17   2     1.888131969506   102.44139236   219.69669178
 H     21  18  17     1.098290687692   102.17657154    36.38416016
 C     13  10   1     1.537916627734   115.32934135   204.70377640
 H     23  13  10     1.096554492386   109.08781085   188.92905689
 H     23  13  10     1.094834889227   110.95860763    70.93687815
 H     23  13  10     1.091427449387   113.33071289   309.04925218
 C     13  10   1     1.533801133539   113.60000070   332.08916706
 H     27  13  10     1.096814469482   109.26577274   173.39965486
 H     27  13  10     1.090633170846   111.84446985    53.37868811
 H     27  13  10     1.094028585697   111.41758129   292.43201710
 C     15  10   1     1.535222972135   116.75517019   173.77839287
 H     31  15  10     1.096684282419   109.22616728   190.95243586
 H     31  15  10     1.094280196368   111.14533077    72.84220168
 H     31  15  10     1.094025192468   112.97320956   310.72027190
 C     15  10   1     1.534996979973   111.45666289   301.29082590
 H     35  15  10     1.096077273235   109.51291915   172.18802793
 H     35  15  10     1.091251132973   111.73457190    52.13130152
 H     35  15  10     1.095536724452   111.36014143   291.07799210
 C     11  10   1     1.533653780480   111.49666476   293.31314975
 H     39  11  10     1.096325190876   109.77679201   175.29027307
 H     39  11  10     1.096049762068   111.08476369    56.19415684
 H     39  11  10     1.093460760606   112.23369370   295.40588000
 C     11  10   1     1.534195090462   110.43916909    56.90985513
 H     43  11  10     1.093654960499   112.27846079    55.55898038
 H     43  11  10     1.094649906667   110.67965886   295.52882988
 H     43  11  10     1.096473910727   109.96589117   176.05646846
 C     17   2   1     1.535209756995   160.87348702   132.66885847
 H     47  17   2     1.094289680348   111.14122654   176.53460485
 H     47  17   2     1.096680582947   109.23018641    58.42220314
 H     47  17   2     1.094033517939   112.97132106   298.65101627
 C     17   2   1     1.534991855780    80.59555038   258.01765560
 H     51  17   2     1.095539690967   111.36425845   134.27614295
 C     19  18  17     2.151533950015    75.22538980   202.49894752
 H     51  17   2     1.091240738232   111.73329129    13.22474199
 H     51  17   2     1.096079465076   109.51182743   253.16835953
 C     19  18  17     2.148809836247    75.81989765   277.15145153
 H     53  19  18     1.094647342995   139.52281223    43.85373412
 H     53  19  18     1.096467882487    93.77779681   167.84872793
 H     53  19  18     1.093657480671    96.80717303   276.67909687
 C     19  18  17     1.095797744545    47.50819988   240.09397802
 H     56  19  18     1.096330287946    96.96279791   200.03695724
 H     56  19  18     1.093473921085    93.43277627    91.42361734
 H     56  19  18     1.096076429621   139.75642691   328.37731708
 C     21  18  17     1.537914320252   115.32851157   279.16353733
 H     64  21  18     1.096554368508   109.08652169   171.09091715
 H     64  21  18     1.091432684030   113.33043340    50.97279523
 H     64  21  18     1.094835941969   110.95950598   289.08337213
 C     21  18  17     1.533786767348   113.59927790   151.77969178
 H     68  21  18     1.094030925337   111.41460423    67.57916882
 H     68  21  18     1.090639621342   111.84446575   306.63449204
 H     68  21  18     1.096812098068   109.26771362   186.61109645

---------------------------
INTERNAL COORDINATES (A.U.)
---------------------------
 W      0   0   0     0.000000000000     0.00000000     0.00000000
 C      1   0   0     3.840140093220     0.00000000     0.00000000
 O      2   1   0     2.206911993769   176.12695361     0.00000000
 C      1   2   3     3.765606273665    95.46795865   179.90673272
 O      4   1   2     2.211772673613   179.79842263   179.36888095
 C      1   2   3     3.853440280258   168.71175659   359.96307101
 O      6   1   4     2.203721432971   175.17195220   180.12208585
 H      1   2   3     3.600644160168    84.65488871    12.78820627
 H      8   1   2     1.598253319426    77.22033622   271.20127895
 P      1   2   3     4.727534558301    88.91702327   267.42385996
 C     10   1   2     3.536411943547   116.11931385    97.59800221
 H     11  10   1     2.070774651068   106.90430450   174.92789343
 C     10   1   2     3.567918482183   117.89569084   221.68198217
 H     13  10   1     2.075450667269   102.17569383    87.48111569
 C     10   1   2     3.549967039436   112.39731721   340.50601814
 H     15  10   1     2.073385628478   102.12136808    55.75901036
 C      2   1   8     6.153044195063    84.11367562   270.04630198
 P     17   2   1     3.549915649932    71.23168968    14.63070955
 H     18  17   2     4.588603385966    89.68503939   134.89033559
 H     17   2   1     2.073390372813    52.52240542   137.33329334
 C     18  17   2     3.568052327067   102.44139236   219.69669178
 H     21  18  17     2.075468615173   102.17657154    36.38416016
 C     13  10   1     2.906241243221   115.32934135   204.70377640
 H     23  13  10     2.072187681531   109.08781085   188.92905689
 H     23  13  10     2.068938102501   110.95860763    70.93687815
 H     23  13  10     2.062498974385   113.33071289   309.04925218
 C     13  10   1     2.898464086287   113.60000070   332.08916706
 H     27  13  10     2.072678967043   109.26577274   173.39965486
 H     27  13  10     2.060998005469   111.84446985    53.37868811
 H     27  13  10     2.067414409648   111.41758129   292.43201710
 C     15  10   1     2.901150971840   116.75517019   173.77839287
 H     31  15  10     2.072432949147   109.22616728   190.95243586
 H     31  15  10     2.067889884910   111.14533077    72.84220168
 H     31  15  10     2.067407997374   112.97320956   310.72027190
 C     15  10   1     2.900723908545   111.45666289   301.29082590
 H     35  15  10     2.071285868029   109.51291915   172.18802793
 H     35  15  10     2.062165784650   111.73457190    52.13130152
 H     35  15  10     2.070264378867   111.36014143   291.07799210
 C     11  10   1     2.898185629360   111.49666476   293.31314975
 H     39  11  10     2.071754364475   109.77679201   175.29027307
 H     39  11  10     2.071233879458   111.08476369    56.19415684
 H     39  11  10     2.066341375734   112.23369370   295.40588000
 C     11  10   1     2.899208556979   110.43916909    56.90985513
 H     43  11  10     2.066708360348   112.27846079    55.55898038
 H     43  11  10     2.068588536123   110.67965886   295.52882988
 H     43  11  10     2.072035404265   109.96589117   176.05646846
 C     17   2   1     2.901125998844   160.87348702   132.66885847
 H     47  17   2     2.067907807035   111.14122654   176.53460485
 H     47  17   2     2.072425958160   109.23018641    58.42220314
 H     47  17   2     2.067423730235   112.97132106   298.65101627
 C     17   2   1     2.900714225223    80.59555038   258.01765560
 H     51  17   2     2.070269984768   111.36425845   134.27614295
 C     19  18  17     4.065809933362    75.22538980   202.49894752
 H     51  17   2     2.062146141437   111.73329129    13.22474199
 H     51  17   2     2.071290010008   109.51182743   253.16835953
 C     19  18  17     4.060662104384    75.81989765   277.15145153
 H     53  19  18     2.068583691484   139.52281223    43.85373412
 H     53  19  18     2.072024012541    93.77779681   167.84872793
 H     53  19  18     2.066713122782    96.80717303   276.67909687
 C     19  18  17     2.070757635358    47.50819988   240.09397802
 H     56  19  18     2.071763996541    96.96279791   200.03695724
 H     56  19  18     2.066366245437    93.43277627    91.42361734
 H     56  19  18     2.071284273830   139.75642691   328.37731708
 C     21  18  17     2.906236882712   115.32851157   279.16353733
 H     64  21  18     2.072187447435   109.08652169   171.09091715
 H     64  21  18     2.062508866428   113.33043340    50.97279523
 H     64  21  18     2.068940091895   110.95950598   289.08337213
 C     21  18  17     2.898436938120   113.59927790   151.77969178
 H     68  21  18     2.067418830927   111.41460423    67.57916882
 H     68  21  18     2.061010195141   111.84446575   306.63449204
 H     68  21  18     2.072674485720   109.26771362   186.61109645

---------------------
BASIS SET INFORMATION
---------------------
There are 5 groups of distinct atoms

 Group   1 Type W   : 8s8p6d2f1g contracted to 6s5p3d2f1g pattern {311111/41111/411/11/1}
 Group   2 Type C   : 12s6p3d1f contracted to 6s3p3d1f pattern {621111/411/111/1}
 Group   3 Type O   : 12s7p3d1f contracted to 6s4p3d1f pattern {621111/4111/111/1}
 Group   4 Type H   : 5s3p1d contracted to 3s3p1d pattern {311/111/1}
 Group   5 Type P   : 15s9p4d1f contracted to 6s5p4d1f pattern {732111/51111/1111/1}

Atom   0W    basis set group =>   1
Atom   1C    basis set group =>   2
Atom   2O    basis set group =>   3
Atom   3C    basis set group =>   2
Atom   4O    basis set group =>   3
Atom   5C    basis set group =>   2
Atom   6O    basis set group =>   3
Atom   7H    basis set group =>   4
Atom   8H    basis set group =>   4
Atom   9P    basis set group =>   5
Atom  10C    basis set group =>   2
Atom  11H    basis set group =>   4
Atom  12C    basis set group =>   2
Atom  13H    basis set group =>   4
Atom  14C    basis set group =>   2
Atom  15H    basis set group =>   4
Atom  16C    basis set group =>   2
Atom  17P    basis set group =>   5
Atom  18H    basis set group =>   4
Atom  19H    basis set group =>   4
Atom  20C    basis set group =>   2
Atom  21H    basis set group =>   4
Atom  22C    basis set group =>   2
Atom  23H    basis set group =>   4
Atom  24H    basis set group =>   4
Atom  25H    basis set group =>   4
Atom  26C    basis set group =>   2
Atom  27H    basis set group =>   4
Atom  28H    basis set group =>   4
Atom  29H    basis set group =>   4
Atom  30C    basis set group =>   2
Atom  31H    basis set group =>   4
Atom  32H    basis set group =>   4
Atom  33H    basis set group =>   4
Atom  34C    basis set group =>   2
Atom  35H    basis set group =>   4
Atom  36H    basis set group =>   4
Atom  37H    basis set group =>   4
Atom  38C    basis set group =>   2
Atom  39H    basis set group =>   4
Atom  40H    basis set group =>   4
Atom  41H    basis set group =>   4
Atom  42C    basis set group =>   2
Atom  43H    basis set group =>   4
Atom  44H    basis set group =>   4
Atom  45H    basis set group =>   4
Atom  46C    basis set group =>   2
Atom  47H    basis set group =>   4
Atom  48H    basis set group =>   4
Atom  49H    basis set group =>   4
Atom  50C    basis set group =>   2
Atom  51H    basis set group =>   4
Atom  52C    basis set group =>   2
Atom  53H    basis set group =>   4
Atom  54H    basis set group =>   4
Atom  55C    basis set group =>   2
Atom  56H    basis set group =>   4
Atom  57H    basis set group =>   4
Atom  58H    basis set group =>   4
Atom  59C    basis set group =>   2
Atom  60H    basis set group =>   4
Atom  61H    basis set group =>   4
Atom  62H    basis set group =>   4
Atom  63C    basis set group =>   2
Atom  64H    basis set group =>   4
Atom  65H    basis set group =>   4
Atom  66H    basis set group =>   4
Atom  67C    basis set group =>   2
Atom  68H    basis set group =>   4
Atom  69H    basis set group =>   4
Atom  70H    basis set group =>   4
----------------------------------
AUXILIARY/JK BASIS SET INFORMATION
----------------------------------
There are 5 groups of distinct atoms

 Group   1 Type W   : 13s12p11d9f5g3h2i contracted to 11s9p9d7f4g3h2i pattern {31111111111/411111111/311111111/3111111/2111/111/11}
 Group   2 Type C   : 14s10p6d2f1g contracted to 10s8p5d1f1g pattern {5111111111/31111111/21111/2/1}
 Group   3 Type O   : 14s10p6d2f1g contracted to 10s8p4d2f1g pattern {5111111111/31111111/3111/11/1}
 Group   4 Type H   : 4s2p2d contracted to 2s2p2d pattern {31/11/11}
 Group   5 Type P   : 16s12p10d4f1g contracted to 13s11p9d4f1g pattern {4111111111111/21111111111/211111111/1111/1}

Atom   0W    basis set group =>   1
Atom   1C    basis set group =>   2
Atom   2O    basis set group =>   3
Atom   3C    basis set group =>   2
Atom   4O    basis set group =>   3
Atom   5C    basis set group =>   2
Atom   6O    basis set group =>   3
Atom   7H    basis set group =>   4
Atom   8H    basis set group =>   4
Atom   9P    basis set group =>   5
Atom  10C    basis set group =>   2
Atom  11H    basis set group =>   4
Atom  12C    basis set group =>   2
Atom  13H    basis set group =>   4
Atom  14C    basis set group =>   2
Atom  15H    basis set group =>   4
Atom  16C    basis set group =>   2
Atom  17P    basis set group =>   5
Atom  18H    basis set group =>   4
Atom  19H    basis set group =>   4
Atom  20C    basis set group =>   2
Atom  21H    basis set group =>   4
Atom  22C    basis set group =>   2
Atom  23H    basis set group =>   4
Atom  24H    basis set group =>   4
Atom  25H    basis set group =>   4
Atom  26C    basis set group =>   2
Atom  27H    basis set group =>   4
Atom  28H    basis set group =>   4
Atom  29H    basis set group =>   4
Atom  30C    basis set group =>   2
Atom  31H    basis set group =>   4
Atom  32H    basis set group =>   4
Atom  33H    basis set group =>   4
Atom  34C    basis set group =>   2
Atom  35H    basis set group =>   4
Atom  36H    basis set group =>   4
Atom  37H    basis set group =>   4
Atom  38C    basis set group =>   2
Atom  39H    basis set group =>   4
Atom  40H    basis set group =>   4
Atom  41H    basis set group =>   4
Atom  42C    basis set group =>   2
Atom  43H    basis set group =>   4
Atom  44H    basis set group =>   4
Atom  45H    basis set group =>   4
Atom  46C    basis set group =>   2
Atom  47H    basis set group =>   4
Atom  48H    basis set group =>   4
Atom  49H    basis set group =>   4
Atom  50C    basis set group =>   2
Atom  51H    basis set group =>   4
Atom  52C    basis set group =>   2
Atom  53H    basis set group =>   4
Atom  54H    basis set group =>   4
Atom  55C    basis set group =>   2
Atom  56H    basis set group =>   4
Atom  57H    basis set group =>   4
Atom  58H    basis set group =>   4
Atom  59C    basis set group =>   2
Atom  60H    basis set group =>   4
Atom  61H    basis set group =>   4
Atom  62H    basis set group =>   4
Atom  63C    basis set group =>   2
Atom  64H    basis set group =>   4
Atom  65H    basis set group =>   4
Atom  66H    basis set group =>   4
Atom  67C    basis set group =>   2
Atom  68H    basis set group =>   4
Atom  69H    basis set group =>   4
Atom  70H    basis set group =>   4
-------------------------
ECP PARAMETER INFORMATION
-------------------------

 Group 1, Type W  ECP Def2-ECP (replacing 60 core electrons, lmax=3)

Atom   0W    ECP group =>   1



           ************************************************************
           *        Program running with 24 parallel MPI-processes    *
           *              working on a common directory               *
           ************************************************************
------------------------------------------------------------------------------
                           ORCA GTO INTEGRAL CALCULATION
------------------------------------------------------------------------------

                         BASIS SET STATISTICS AND STARTUP INFO

 # of primitive gaussian shells          ... 1010
 # of primitive gaussian functions       ... 2316
 # of contracted shells                  ...  672
 # of contracted basis functions         ... 1800
 Highest angular momentum                ...    4
 Maximum contraction depth               ...    7
 Integral package used                   ... LIBINT
 Integral threshhold            Thresh   ...  1.000e-10
 Primitive cut-off              TCut     ...  1.000e-11


------------------------------ INTEGRAL EVALUATION ----------------------------


 * One electron integrals 

   ECP integrals                         ... done
 Pre-screening matrix                    ... done
 Shell pair data                         ... done (   0.053 sec)



           ************************************************************
           *        Program running with 24 parallel MPI-processes    *
           *              working on a common directory               *
           ************************************************************
-------------------------------------------------------------------------------
                                 ORCA SCF
-------------------------------------------------------------------------------

------------
SCF SETTINGS
------------
Hamiltonian:
 Density Functional     Method          .... DFT(GTOs)
 Exchange Functional    Exchange        .... M06
 Correlation Functional Correlation     .... M06
 Gradients option       PostSCFGGA      .... off
 Hybrid DFT is turned on
   Fraction HF Exchange ScalHFX         ....  0.270000
   Scaling of DF-GGA-X  ScalDFX         ....  0.730000
   Scaling of DF-GGA-C  ScalDFC         ....  1.000000
   Scaling of DF-LDA-C  ScalLDAC        ....  1.000000
   Perturbative correction              ....  0.000000
   Density functional embedding theory  .... OFF


General Settings:
 Integral files         IntName         .... MOR27_pr07
 Hartree-Fock type      HFTyp           .... RHF
 Total Charge           Charge          ....    0
 Multiplicity           Mult            ....    1
 Number of Electrons    NEL             ....  238
 Basis Dimension        Dim             .... 1800
 Nuclear Repulsion      ENuc            ....   3588.6515244369 Eh

Convergence Acceleration:
 DIIS                   CNVDIIS         .... on
   Start iteration      DIISMaxIt       ....    12
   Startup error        DIISStart       ....  0.200000
   # of expansion vecs  DIISMaxEq       ....     5
   Bias factor          DIISBfac        ....   1.050
   Max. coefficient     DIISMaxC        ....  10.000
 Newton-Raphson         CNVNR           .... off
 SOSCF                  CNVSOSCF        .... off
 Level Shifting         CNVShift        .... on
   Level shift para.    LevelShift      ....    0.2500
   Turn off err/grad.   ShiftErr        ....    0.0010
 Zerner damping         CNVZerner       .... off
 Static damping         CNVDamp         .... on
   Fraction old density DampFac         ....    0.7000
   Max. Damping (<1)    DampMax         ....    0.9800
   Min. Damping (>=0)   DampMin         ....    0.0000
   Turn off err/grad.   DampErr         ....    0.1000
 Fernandez-Rico         CNVRico         .... off

SCF Procedure:
 Maximum # iterations   MaxIter         ....   125
 SCF integral mode      SCFMode         .... Direct
   Integral package                     .... LIBINT
 Reset frequency        DirectResetFreq ....    20
 Integral Threshold     Thresh          ....  1.000e-10 Eh
 Primitive CutOff       TCut            ....  1.000e-11 Eh

Convergence Tolerance:
 Convergence Check Mode ConvCheckMode   .... Total+1el-Energy
 Convergence forced     ConvForced      .... 0
 Energy Change          TolE            ....  1.000e-06 Eh
 1-El. energy change                    ....  1.000e-03 Eh
 DIIS Error             TolErr          ....  1.000e-06


Diagonalization of the overlap matrix:
Smallest eigenvalue                        ... 1.479e-07
Time for diagonalization                   ...    0.377 sec
Threshold for overlap eigenvalues          ... 1.000e-08
Number of eigenvalues below threshold      ... 0
Time for construction of square roots      ...    0.426 sec
Total time needed                          ...    0.814 sec

-------------------
DFT GRID GENERATION
-------------------

General Integration Accuracy     IntAcc      ...  4.670
Radial Grid Type                 RadialGrid  ... Gauss-Chebyshev
Angular Grid (max. acc.)         AngularGrid ... Lebedev-302
Angular grid pruning method      GridPruning ... 3 (G Style)
Weight generation scheme         WeightScheme... Becke
Basis function cutoff            BFCut       ...    1.0000e-10
Integration weight cutoff        WCut        ...    1.0000e-14
Grids for H and He will be reduced by one unit

# of grid points (after initial pruning)     ... 323768 (   0.0 sec)
# of grid points (after weights+screening)   ... 270365 (   0.3 sec)
nearest neighbour list constructed           ...    0.0 sec
Grid point re-assignment to atoms done       ...    0.0 sec
Grid point division into batches done        ...    0.7 sec
Reduced shell lists constructed in    1.4 sec

Total number of grid points                  ...   270365
Total number of batches                      ...     4263
Average number of points per batch           ...       63
Average number of grid points per atom       ...     3808
Average number of shells per batch           ...   351.86 (52.36%)
Average number of basis functions per batch  ...   907.55 (50.42%)
Average number of large shells per batch     ...   248.58 (70.65%)
Average number of large basis fcns per batch ...   649.53 (71.57%)
Maximum spatial batch extension              ...   4.99,  5.51,  4.89 au
Average spatial batch extension              ...   0.05,  0.05,  0.05 au

Time for grid setup =    1.813 sec

------------------------------
INITIAL GUESS: MODEL POTENTIAL
------------------------------
Loading Hartree-Fock densities                     ... done
  calling /sw/apps/orca/orca_4_2_0_linux_x86-64_openmpi314/orca MOR27_pr07_atom74.inp > MOR27_pr07_atom74.out in order to generate an atomic fitting density for atom 0 (W  with ECP) on-the-fly... 
    atom 0 (W ), assumed electronic state with S=5: 1s2 2s2 2p6 3s2 3p6 4s2 3d10 4p6 5s2 4d10 5p6 6s2 4f14 5d4           ... done
Calculating cut-offs                               ... done
Setting up the integral package                    ... done
Initializing the effective Hamiltonian             ... done
Starting the Coulomb interaction                   ... done (   0.7 sec)
Reading the grid                                   ... done
Mapping shells                                     ... done
Starting the XC term evaluation                    ... done (   2.0 sec)
  promolecular density results
     # of electrons  =    297.977321050
     EX              =   -514.801234945
     EC              =    -12.048100300
     EX+EC           =   -526.849335245
Transforming the Hamiltonian                       ... done (   0.2 sec)
Diagonalizing the Hamiltonian                      ... done (   0.4 sec)
Back transforming the eigenvectors                 ... done (   0.1 sec)
Now organizing SCF variables                       ... done
                      ------------------
                      INITIAL GUESS DONE (   7.6 sec)
                      ------------------
--------------
SCF ITERATIONS
--------------
ITER       Energy         Delta-E        Max-DP      RMS-DP      [F,P]     Damp
               ***  Starting incremental Fock matrix formation  ***
  0  -1800.8374851711   0.000000000000 6.08270168  0.01377590  0.4200941 0.7000
  1  -1801.3876322898  -0.550147118634 4.25292909  0.01041247  0.2807900 0.7000
                               ***Turning on DIIS***
  2  -1801.5778150838  -0.190182794061 3.05319263  0.00717025  0.1877766 0.7000
  3  -1801.6903000014  -0.112484917598 2.33010785  0.00527684  0.1300487 0.7000
  4  -1801.7741674999  -0.083867498486 5.79527066  0.01285601  0.0928050 0.0000
  5  -1801.9661676548  -0.192000154880 0.65558546  0.00092531  0.0077335 0.0000
  6  -1801.9665454689  -0.000377814146 0.56038537  0.00080915  0.0053443 0.0000
  7  -1801.9666617507  -0.000116281764 0.24322679  0.00051823  0.0021257 0.0000
  8  -1801.9666819163  -0.000020165633 1.37827954  0.00123513  0.0004026 0.0000
  9  -1801.9666814196   0.000000496700 0.31572691  0.00037606  0.0006286 0.0000
 10  -1801.9666829676  -0.000001547945 0.30473065  0.00051934  0.0003118 0.0000
 11  -1801.9666819568   0.000001010758 0.37519616  0.00066285  0.0001054 0.0000
 12  -1801.9666809431   0.000001013696 0.23142308  0.00042853  0.0000384 0.0000
                 **** Energy Check signals convergence ****

               *****************************************************
               *                     SUCCESS                       *
               *           SCF CONVERGED AFTER  13 CYCLES          *
               *****************************************************


----------------
TOTAL SCF ENERGY
----------------

Total Energy       :        -1801.96668006 Eh          -49034.00621 eV

Components:
Nuclear Repulsion  :         3588.65152444 Eh           97652.17252 eV
Electronic Energy  :        -5390.61820450 Eh         -146686.17873 eV
One Electron Energy:        -9633.02566198 Eh         -262127.95459 eV
Two Electron Energy:         4242.40745749 Eh          115441.77586 eV

Virial components:
Potential Energy   :        -3552.51734298 Eh          -96668.91146 eV
Kinetic Energy     :         1750.55066292 Eh           47634.90525 eV
Virial Ratio       :            2.02937134


DFT components:
N(Alpha)           :      118.999488698131 electrons
N(Beta)            :      118.999488698131 electrons
N(Total)           :      237.998977396261 electrons
E(XC)              :     -155.353149414153 Eh       
DFET-embed. en.    :        0.000000000000 Eh       

---------------
SCF CONVERGENCE
---------------

  Last Energy change         ...    8.8293e-07  Tolerance :   1.0000e-06
  Last MAX-Density change    ...    1.9389e-01  Tolerance :   1.0000e-05
  Last RMS-Density change    ...    4.4804e-04  Tolerance :   1.0000e-06
  Last DIIS Error            ...    1.6785e-05  Tolerance :   1.0000e-06

             **** THE GBW FILE WAS UPDATED (MOR27_pr07.gbw) ****
             **** DENSITY FILE WAS UPDATED (MOR27_pr07.scfp) ****
             **** ENERGY FILE WAS UPDATED (MOR27_pr07.en.tmp) ****
             **** THE GBW FILE WAS UPDATED (MOR27_pr07.gbw) ****
             **** DENSITY FILE WAS UPDATED (MOR27_pr07.scfp) ****
----------------
ORBITAL ENERGIES
----------------

  NO   OCC          E(Eh)            E(eV) 
   0   2.0000     -77.236573     -2101.7140 
   1   2.0000     -77.236550     -2101.7134 
   2   2.0000     -19.251367      -523.8563 
   3   2.0000     -19.249742      -523.8121 
   4   2.0000     -19.238703      -523.5117 
   5   2.0000     -10.316572      -280.7282 
   6   2.0000     -10.315761      -280.7061 
   7   2.0000     -10.309150      -280.5262 
   8   2.0000     -10.251563      -278.9592 
   9   2.0000     -10.251546      -278.9587 
  10   2.0000     -10.251516      -278.9579 
  11   2.0000     -10.251492      -278.9573 
  12   2.0000     -10.249973      -278.9159 
  13   2.0000     -10.249962      -278.9156 
  14   2.0000     -10.235063      -278.5102 
  15   2.0000     -10.235058      -278.5101 
  16   2.0000     -10.234668      -278.4995 
  17   2.0000     -10.234658      -278.4992 
  18   2.0000     -10.233280      -278.4617 
  19   2.0000     -10.233261      -278.4612 
  20   2.0000     -10.232750      -278.4473 
  21   2.0000     -10.232725      -278.4466 
  22   2.0000     -10.226207      -278.2692 
  23   2.0000     -10.226204      -278.2692 
  24   2.0000     -10.223003      -278.1821 
  25   2.0000     -10.222999      -278.1820 
  26   2.0000      -6.661881      -181.2790 
  27   2.0000      -6.661860      -181.2784 
  28   2.0000      -4.782505      -130.1386 
  29   2.0000      -4.782497      -130.1383 
  30   2.0000      -4.782484      -130.1380 
  31   2.0000      -4.782475      -130.1378 
  32   2.0000      -4.779733      -130.0632 
  33   2.0000      -4.779711      -130.0626 
  34   2.0000      -2.875520       -78.2469 
  35   2.0000      -1.554567       -42.3019 
  36   2.0000      -1.552305       -42.2404 
  37   2.0000      -1.544501       -42.0280 
  38   2.0000      -1.110586       -30.2206 
  39   2.0000      -1.109742       -30.1976 
  40   2.0000      -1.098825       -29.9006 
  41   2.0000      -0.829818       -22.5805 
  42   2.0000      -0.829382       -22.5686 
  43   2.0000      -0.798243       -21.7213 
  44   2.0000      -0.798201       -21.7202 
  45   2.0000      -0.795425       -21.6446 
  46   2.0000      -0.795393       -21.6438 
  47   2.0000      -0.704025       -19.1575 
  48   2.0000      -0.703842       -19.1525 
  49   2.0000      -0.701545       -19.0900 
  50   2.0000      -0.701203       -19.0807 
  51   2.0000      -0.694335       -18.8938 
  52   2.0000      -0.694083       -18.8870 
  53   2.0000      -0.666721       -18.1424 
  54   2.0000      -0.664464       -18.0810 
  55   2.0000      -0.599620       -16.3165 
  56   2.0000      -0.599325       -16.3085 
  57   2.0000      -0.598264       -16.2796 
  58   2.0000      -0.597686       -16.2639 
  59   2.0000      -0.573347       -15.6016 
  60   2.0000      -0.546140       -14.8612 
  61   2.0000      -0.543650       -14.7935 
  62   2.0000      -0.531749       -14.4696 
  63   2.0000      -0.531398       -14.4601 
  64   2.0000      -0.508188       -13.8285 
  65   2.0000      -0.487316       -13.2606 
  66   2.0000      -0.485478       -13.2105 
  67   2.0000      -0.483631       -13.1603 
  68   2.0000      -0.477484       -12.9930 
  69   2.0000      -0.472011       -12.8441 
  70   2.0000      -0.471966       -12.8429 
  71   2.0000      -0.460412       -12.5284 
  72   2.0000      -0.455144       -12.3851 
  73   2.0000      -0.454043       -12.3551 
  74   2.0000      -0.448997       -12.2178 
  75   2.0000      -0.447960       -12.1896 
  76   2.0000      -0.440252       -11.9799 
  77   2.0000      -0.438850       -11.9417 
  78   2.0000      -0.438548       -11.9335 
  79   2.0000      -0.435387       -11.8475 
  80   2.0000      -0.432508       -11.7691 
  81   2.0000      -0.431768       -11.7490 
  82   2.0000      -0.428104       -11.6493 
  83   2.0000      -0.423119       -11.5137 
  84   2.0000      -0.420269       -11.4361 
  85   2.0000      -0.419732       -11.4215 
  86   2.0000      -0.414939       -11.2911 
  87   2.0000      -0.412396       -11.2219 
  88   2.0000      -0.410676       -11.1751 
  89   2.0000      -0.408315       -11.1108 
  90   2.0000      -0.407158       -11.0793 
  91   2.0000      -0.403671       -10.9844 
  92   2.0000      -0.399879       -10.8813 
  93   2.0000      -0.397792       -10.8245 
  94   2.0000      -0.397752       -10.8234 
  95   2.0000      -0.394882       -10.7453 
  96   2.0000      -0.394425       -10.7329 
  97   2.0000      -0.378437       -10.2978 
  98   2.0000      -0.368265       -10.0210 
  99   2.0000      -0.368228       -10.0200 
 100   2.0000      -0.367168        -9.9912 
 101   2.0000      -0.366107        -9.9623 
 102   2.0000      -0.363364        -9.8876 
 103   2.0000      -0.362366        -9.8605 
 104   2.0000      -0.358619        -9.7585 
 105   2.0000      -0.357443        -9.7265 
 106   2.0000      -0.354189        -9.6380 
 107   2.0000      -0.353807        -9.6276 
 108   2.0000      -0.352204        -9.5840 
 109   2.0000      -0.351848        -9.5743 
 110   2.0000      -0.310697        -8.4545 
 111   2.0000      -0.308778        -8.4023 
 112   2.0000      -0.308251        -8.3879 
 113   2.0000      -0.307198        -8.3593 
 114   2.0000      -0.305902        -8.3240 
 115   2.0000      -0.262933        -7.1548 
 116   2.0000      -0.203027        -5.5247 
 117   2.0000      -0.197660        -5.3786 
 118   2.0000      -0.193109        -5.2548 
 119   0.0000      -0.033420        -0.9094 
 120   0.0000      -0.028089        -0.7643 
 121   0.0000      -0.027818        -0.7570 
 122   0.0000      -0.024973        -0.6796 
 123   0.0000      -0.024623        -0.6700 
 124   0.0000      -0.022508        -0.6125 
 125   0.0000      -0.014803        -0.4028 
 126   0.0000      -0.012893        -0.3508 
 127   0.0000      -0.010638        -0.2895 
 128   0.0000      -0.005039        -0.1371 
 129   0.0000      -0.002653        -0.0722 
 130   0.0000       0.001824         0.0496 
 131   0.0000       0.003638         0.0990 
 132   0.0000       0.003809         0.1037 
 133   0.0000       0.004437         0.1207 
 134   0.0000       0.006391         0.1739 
 135   0.0000       0.010377         0.2824 
 136   0.0000       0.014614         0.3977 
 137   0.0000       0.017532         0.4771 
 138   0.0000       0.024157         0.6573 
 139   0.0000       0.025660         0.6982 
 140   0.0000       0.026967         0.7338 
 141   0.0000       0.028211         0.7677 
 142   0.0000       0.033949         0.9238 
 143   0.0000       0.033987         0.9248 
 144   0.0000       0.036952         1.0055 
 145   0.0000       0.041233         1.1220 
 146   0.0000       0.046141         1.2556 
 147   0.0000       0.046435         1.2636 
 148   0.0000       0.050367         1.3705 
 149   0.0000       0.056660         1.5418 
 150   0.0000       0.060823         1.6551 
 151   0.0000       0.061902         1.6844 
 152   0.0000       0.062169         1.6917 
 153   0.0000       0.067240         1.8297 
 154   0.0000       0.067564         1.8385 
 155   0.0000       0.071064         1.9338 
 156   0.0000       0.071164         1.9365 
 157   0.0000       0.073062         1.9881 
 158   0.0000       0.077662         2.1133 
 159   0.0000       0.077975         2.1218 
 160   0.0000       0.082932         2.2567 
 161   0.0000       0.083948         2.2843 
 162   0.0000       0.084948         2.3115 
 163   0.0000       0.086566         2.3556 
 164   0.0000       0.086999         2.3674 
 165   0.0000       0.088884         2.4187 
 166   0.0000       0.090182         2.4540 
 167   0.0000       0.090692         2.4678 
 168   0.0000       0.092699         2.5225 
 169   0.0000       0.094302         2.5661 
 170   0.0000       0.094727         2.5777 
 171   0.0000       0.100087         2.7235 
 172   0.0000       0.101622         2.7653 
 173   0.0000       0.105068         2.8591 
 174   0.0000       0.107696         2.9306 
 175   0.0000       0.109627         2.9831 
 176   0.0000       0.110885         3.0173 
 177   0.0000       0.111555         3.0356 
 178   0.0000       0.113610         3.0915 
 179   0.0000       0.117579         3.1995 
 180   0.0000       0.119522         3.2523 
 181   0.0000       0.121746         3.3129 
 182   0.0000       0.125301         3.4096 
 183   0.0000       0.125460         3.4139 
 184   0.0000       0.131345         3.5741 
 185   0.0000       0.131842         3.5876 
 186   0.0000       0.132882         3.6159 
 187   0.0000       0.134126         3.6498 
 188   0.0000       0.136033         3.7017 
 189   0.0000       0.139110         3.7854 
 190   0.0000       0.139261         3.7895 
 191   0.0000       0.140681         3.8281 
 192   0.0000       0.144612         3.9351 
 193   0.0000       0.145617         3.9624 
 194   0.0000       0.146857         3.9962 
 195   0.0000       0.147646         4.0176 
 196   0.0000       0.150869         4.1054 
 197   0.0000       0.153535         4.1779 
 198   0.0000       0.158069         4.3013 
 199   0.0000       0.159438         4.3385 
 200   0.0000       0.159635         4.3439 
 201   0.0000       0.166207         4.5227 
 202   0.0000       0.166713         4.5365 
 203   0.0000       0.167443         4.5564 
 204   0.0000       0.168346         4.5809 
 205   0.0000       0.170674         4.6443 
 206   0.0000       0.172862         4.7038 
 207   0.0000       0.174384         4.7452 
 208   0.0000       0.176303         4.7974 
 209   0.0000       0.176545         4.8040 
 210   0.0000       0.179046         4.8721 
 211   0.0000       0.181819         4.9475 
 212   0.0000       0.183983         5.0064 
 213   0.0000       0.184981         5.0336 
 214   0.0000       0.188845         5.1387 
 215   0.0000       0.189163         5.1474 
 216   0.0000       0.190694         5.1891 
 217   0.0000       0.192115         5.2277 
 218   0.0000       0.195718         5.3258 
 219   0.0000       0.197862         5.3841 
 220   0.0000       0.199971         5.4415 
 221   0.0000       0.201798         5.4912 
 222   0.0000       0.205634         5.5956 
 223   0.0000       0.206166         5.6101 
 224   0.0000       0.210200         5.7198 
 225   0.0000       0.211255         5.7486 
 226   0.0000       0.213626         5.8131 
 227   0.0000       0.214126         5.8267 
 228   0.0000       0.214282         5.8309 
 229   0.0000       0.215680         5.8690 
 230   0.0000       0.216847         5.9007 
 231   0.0000       0.218330         5.9410 
 232   0.0000       0.220511         6.0004 
 233   0.0000       0.220928         6.0117 
 234   0.0000       0.220991         6.0135 
 235   0.0000       0.222539         6.0556 
 236   0.0000       0.226664         6.1678 
 237   0.0000       0.226886         6.1739 
 238   0.0000       0.227793         6.1986 
 239   0.0000       0.228946         6.2299 
 240   0.0000       0.229569         6.2469 
 241   0.0000       0.231437         6.2977 
 242   0.0000       0.233647         6.3579 
 243   0.0000       0.234549         6.3824 
 244   0.0000       0.234947         6.3932 
 245   0.0000       0.235282         6.4024 
 246   0.0000       0.236844         6.4448 
 247   0.0000       0.237405         6.4601 
 248   0.0000       0.242041         6.5863 
 249   0.0000       0.245076         6.6689 
 250   0.0000       0.245570         6.6823 
 251   0.0000       0.247668         6.7394 
 252   0.0000       0.247883         6.7452 
 253   0.0000       0.250096         6.8055 
 254   0.0000       0.250735         6.8228 
 255   0.0000       0.255195         6.9442 
 256   0.0000       0.255593         6.9550 
 257   0.0000       0.256631         6.9833 
 258   0.0000       0.258761         7.0412 
 259   0.0000       0.262927         7.1546 
 260   0.0000       0.263069         7.1585 
 261   0.0000       0.264594         7.2000 
 262   0.0000       0.264929         7.2091 
 263   0.0000       0.265691         7.2298 
 264   0.0000       0.269453         7.3322 
 265   0.0000       0.270461         7.3596 
 266   0.0000       0.270601         7.3634 
 267   0.0000       0.271979         7.4009 
 268   0.0000       0.273336         7.4379 
 269   0.0000       0.277291         7.5455 
 270   0.0000       0.277835         7.5603 
 271   0.0000       0.278388         7.5753 
 272   0.0000       0.280795         7.6408 
 273   0.0000       0.282251         7.6804 
 274   0.0000       0.283653         7.7186 
 275   0.0000       0.284173         7.7328 
 276   0.0000       0.285331         7.7643 
 277   0.0000       0.286472         7.7953 
 278   0.0000       0.287751         7.8301 
 279   0.0000       0.290286         7.8991 
 280   0.0000       0.292326         7.9546 
 281   0.0000       0.293957         7.9990 
 282   0.0000       0.294186         8.0052 
 283   0.0000       0.297304         8.0901 
 284   0.0000       0.298298         8.1171 
 285   0.0000       0.300069         8.1653 
 286   0.0000       0.301471         8.2034 
 287   0.0000       0.302613         8.2345 
 288   0.0000       0.305156         8.3037 
 289   0.0000       0.308888         8.4053 
 290   0.0000       0.311877         8.4866 
 291   0.0000       0.315108         8.5745 
 292   0.0000       0.315547         8.5865 
 293   0.0000       0.318025         8.6539 
 294   0.0000       0.319487         8.6937 
 295   0.0000       0.320307         8.7160 
 296   0.0000       0.321410         8.7460 
 297   0.0000       0.324122         8.8198 
 298   0.0000       0.324704         8.8356 
 299   0.0000       0.326123         8.8743 
 300   0.0000       0.327898         8.9226 
 301   0.0000       0.330696         8.9987 
 302   0.0000       0.331151         9.0111 
 303   0.0000       0.334380         9.0989 
 304   0.0000       0.336622         9.1600 
 305   0.0000       0.341206         9.2847 
 306   0.0000       0.341796         9.3007 
 307   0.0000       0.342317         9.3149 
 308   0.0000       0.344359         9.3705 
 309   0.0000       0.347683         9.4609 
 310   0.0000       0.348817         9.4918 
 311   0.0000       0.349564         9.5121 
 312   0.0000       0.351768         9.5721 
 313   0.0000       0.356408         9.6984 
 314   0.0000       0.356444         9.6993 
 315   0.0000       0.357295         9.7225 
 316   0.0000       0.358538         9.7563 
 317   0.0000       0.362305         9.8588 
 318   0.0000       0.362523         9.8648 
 319   0.0000       0.367743        10.0068 
 320   0.0000       0.368560        10.0290 
 321   0.0000       0.370377        10.0785 
 322   0.0000       0.371883        10.1194 
 323   0.0000       0.373411        10.1610 
 324   0.0000       0.378214        10.2917 
 325   0.0000       0.379357        10.3228 
 326   0.0000       0.381073        10.3695 
 327   0.0000       0.381493        10.3810 
 328   0.0000       0.382178        10.3996 
 329   0.0000       0.382926        10.4200 
 330   0.0000       0.386264        10.5108 
 331   0.0000       0.387528        10.5452 
 332   0.0000       0.390000        10.6124 
 333   0.0000       0.391247        10.6464 
 334   0.0000       0.392807        10.6888 
 335   0.0000       0.395663        10.7665 
 336   0.0000       0.396866        10.7993 
 337   0.0000       0.400461        10.8971 
 338   0.0000       0.401639        10.9291 
 339   0.0000       0.401851        10.9349 
 340   0.0000       0.407243        11.0816 
 341   0.0000       0.408310        11.1107 
 342   0.0000       0.408537        11.1168 
 343   0.0000       0.409834        11.1521 
 344   0.0000       0.411512        11.1978 
 345   0.0000       0.413371        11.2484 
 346   0.0000       0.413629        11.2554 
 347   0.0000       0.417904        11.3718 
 348   0.0000       0.418174        11.3791 
 349   0.0000       0.422750        11.5036 
 350   0.0000       0.424999        11.5648 
 351   0.0000       0.426178        11.5969 
 352   0.0000       0.428770        11.6674 
 353   0.0000       0.430378        11.7112 
 354   0.0000       0.431994        11.7552 
 355   0.0000       0.432471        11.7681 
 356   0.0000       0.436246        11.8709 
 357   0.0000       0.438258        11.9256 
 358   0.0000       0.438869        11.9422 
 359   0.0000       0.440692        11.9919 
 360   0.0000       0.444666        12.1000 
 361   0.0000       0.445278        12.1166 
 362   0.0000       0.447673        12.1818 
 363   0.0000       0.450868        12.2687 
 364   0.0000       0.451082        12.2746 
 365   0.0000       0.453043        12.3279 
 366   0.0000       0.453699        12.3458 
 367   0.0000       0.455814        12.4033 
 368   0.0000       0.457576        12.4513 
 369   0.0000       0.460326        12.5261 
 370   0.0000       0.461212        12.5502 
 371   0.0000       0.463128        12.6024 
 372   0.0000       0.465869        12.6769 
 373   0.0000       0.468146        12.7389 
 374   0.0000       0.468478        12.7479 
 375   0.0000       0.472980        12.8704 
 376   0.0000       0.474991        12.9252 
 377   0.0000       0.475103        12.9282 
 378   0.0000       0.476941        12.9782 
 379   0.0000       0.477603        12.9962 
 380   0.0000       0.482315        13.1244 
 381   0.0000       0.482586        13.1318 
 382   0.0000       0.484802        13.1921 
 383   0.0000       0.485731        13.2174 
 384   0.0000       0.491783        13.3821 
 385   0.0000       0.494736        13.4625 
 386   0.0000       0.495202        13.4751 
 387   0.0000       0.496946        13.5226 
 388   0.0000       0.497783        13.5454 
 389   0.0000       0.499892        13.6028 
 390   0.0000       0.500909        13.6304 
 391   0.0000       0.503735        13.7073 
 392   0.0000       0.506664        13.7870 
 393   0.0000       0.507835        13.8189 
 394   0.0000       0.508519        13.8375 
 395   0.0000       0.511705        13.9242 
 396   0.0000       0.512711        13.9516 
 397   0.0000       0.513789        13.9809 
 398   0.0000       0.516973        14.0676 
 399   0.0000       0.517693        14.0871 
 400   0.0000       0.517836        14.0910 
 401   0.0000       0.522939        14.2299 
 402   0.0000       0.523572        14.2471 
 403   0.0000       0.523828        14.2541 
 404   0.0000       0.525880        14.3099 
 405   0.0000       0.527469        14.3532 
 406   0.0000       0.530721        14.4417 
 407   0.0000       0.532657        14.4943 
 408   0.0000       0.533265        14.5109 
 409   0.0000       0.535274        14.5656 
 410   0.0000       0.539866        14.6905 
 411   0.0000       0.540817        14.7164 
 412   0.0000       0.541596        14.7376 
 413   0.0000       0.543715        14.7952 
 414   0.0000       0.545778        14.8514 
 415   0.0000       0.546351        14.8670 
 416   0.0000       0.547465        14.8973 
 417   0.0000       0.548821        14.9342 
 418   0.0000       0.553430        15.0596 
 419   0.0000       0.556773        15.1506 
 420   0.0000       0.558537        15.1986 
 421   0.0000       0.559348        15.2206 
 422   0.0000       0.561240        15.2721 
 423   0.0000       0.563682        15.3386 
 424   0.0000       0.565063        15.3762 
 425   0.0000       0.565605        15.3909 
 426   0.0000       0.567158        15.4332 
 427   0.0000       0.567574        15.4445 
 428   0.0000       0.574777        15.6405 
 429   0.0000       0.576067        15.6756 
 430   0.0000       0.578135        15.7319 
 431   0.0000       0.579425        15.7669 
 432   0.0000       0.580457        15.7950 
 433   0.0000       0.582619        15.8539 
 434   0.0000       0.583648        15.8819 
 435   0.0000       0.586303        15.9541 
 436   0.0000       0.589180        16.0324 
 437   0.0000       0.589441        16.0395 
 438   0.0000       0.593424        16.1479 
 439   0.0000       0.595595        16.2070 
 440   0.0000       0.596715        16.2374 
 441   0.0000       0.598052        16.2738 
 442   0.0000       0.598285        16.2802 
 443   0.0000       0.598508        16.2862 
 444   0.0000       0.598606        16.2889 
 445   0.0000       0.599747        16.3199 
 446   0.0000       0.606733        16.5100 
 447   0.0000       0.606938        16.5156 
 448   0.0000       0.608818        16.5668 
 449   0.0000       0.614129        16.7113 
 450   0.0000       0.615589        16.7510 
 451   0.0000       0.615898        16.7594 
 452   0.0000       0.616174        16.7670 
 453   0.0000       0.616495        16.7757 
 454   0.0000       0.618689        16.8354 
 455   0.0000       0.621647        16.9159 
 456   0.0000       0.622515        16.9395 
 457   0.0000       0.623346        16.9621 
 458   0.0000       0.624103        16.9827 
 459   0.0000       0.624623        16.9968 
 460   0.0000       0.628931        17.1141 
 461   0.0000       0.629363        17.1258 
 462   0.0000       0.630816        17.1654 
 463   0.0000       0.632722        17.2172 
 464   0.0000       0.633943        17.2505 
 465   0.0000       0.635184        17.2842 
 466   0.0000       0.636111        17.3095 
 467   0.0000       0.637195        17.3389 
 468   0.0000       0.638921        17.3859 
 469   0.0000       0.638992        17.3879 
 470   0.0000       0.643066        17.4987 
 471   0.0000       0.646369        17.5886 
 472   0.0000       0.648523        17.6472 
 473   0.0000       0.650131        17.6910 
 474   0.0000       0.651702        17.7337 
 475   0.0000       0.653738        17.7891 
 476   0.0000       0.654143        17.8001 
 477   0.0000       0.654373        17.8064 
 478   0.0000       0.656824        17.8731 
 479   0.0000       0.657301        17.8861 
 480   0.0000       0.661032        17.9876 
 481   0.0000       0.661440        17.9987 
 482   0.0000       0.662033        18.0148 
 483   0.0000       0.665991        18.1225 
 484   0.0000       0.666884        18.1468 
 485   0.0000       0.670194        18.2369 
 486   0.0000       0.670638        18.2490 
 487   0.0000       0.675038        18.3687 
 488   0.0000       0.676518        18.4090 
 489   0.0000       0.677263        18.4293 
 490   0.0000       0.679139        18.4803 
 491   0.0000       0.680976        18.5303 
 492   0.0000       0.682343        18.5675 
 493   0.0000       0.685402        18.6507 
 494   0.0000       0.687628        18.7113 
 495   0.0000       0.688394        18.7322 
 496   0.0000       0.688768        18.7423 
 497   0.0000       0.689710        18.7680 
 498   0.0000       0.691768        18.8240 
 499   0.0000       0.692146        18.8342 
 500   0.0000       0.695943        18.9376 
 501   0.0000       0.698962        19.0197 
 502   0.0000       0.700247        19.0547 
 503   0.0000       0.702463        19.1150 
 504   0.0000       0.703422        19.1411 
 505   0.0000       0.706429        19.2229 
 506   0.0000       0.707697        19.2574 
 507   0.0000       0.708023        19.2663 
 508   0.0000       0.709685        19.3115 
 509   0.0000       0.711730        19.3672 
 510   0.0000       0.713445        19.4138 
 511   0.0000       0.713833        19.4244 
 512   0.0000       0.717471        19.5234 
 513   0.0000       0.720209        19.5979 
 514   0.0000       0.723540        19.6885 
 515   0.0000       0.724048        19.7023 
 516   0.0000       0.724660        19.7190 
 517   0.0000       0.729097        19.8397 
 518   0.0000       0.730418        19.8757 
 519   0.0000       0.732796        19.9404 
 520   0.0000       0.734175        19.9779 
 521   0.0000       0.734783        19.9945 
 522   0.0000       0.737058        20.0564 
 523   0.0000       0.740955        20.1624 
 524   0.0000       0.742926        20.2160 
 525   0.0000       0.743730        20.2379 
 526   0.0000       0.744247        20.2520 
 527   0.0000       0.747102        20.3297 
 528   0.0000       0.749374        20.3915 
 529   0.0000       0.753263        20.4973 
 530   0.0000       0.754899        20.5419 
 531   0.0000       0.759874        20.6772 
 532   0.0000       0.760154        20.6848 
 533   0.0000       0.762152        20.7392 
 534   0.0000       0.765191        20.8219 
 535   0.0000       0.768029        20.8991 
 536   0.0000       0.768947        20.9241 
 537   0.0000       0.771771        21.0009 
 538   0.0000       0.772859        21.0306 
 539   0.0000       0.774237        21.0681 
 540   0.0000       0.774924        21.0868 
 541   0.0000       0.779899        21.2221 
 542   0.0000       0.780754        21.2454 
 543   0.0000       0.782233        21.2856 
 544   0.0000       0.784873        21.3575 
 545   0.0000       0.786156        21.3924 
 546   0.0000       0.790402        21.5079 
 547   0.0000       0.794063        21.6076 
 548   0.0000       0.794145        21.6098 
 549   0.0000       0.797787        21.7089 
 550   0.0000       0.799245        21.7486 
 551   0.0000       0.801485        21.8095 
 552   0.0000       0.802401        21.8345 
 553   0.0000       0.802903        21.8481 
 554   0.0000       0.804021        21.8785 
 555   0.0000       0.808545        22.0016 
 556   0.0000       0.809782        22.0353 
 557   0.0000       0.812456        22.1081 
 558   0.0000       0.817709        22.2510 
 559   0.0000       0.819300        22.2943 
 560   0.0000       0.821377        22.3508 
 561   0.0000       0.824660        22.4401 
 562   0.0000       0.825533        22.4639 
 563   0.0000       0.828760        22.5517 
 564   0.0000       0.830055        22.5869 
 565   0.0000       0.831172        22.6173 
 566   0.0000       0.833978        22.6937 
 567   0.0000       0.837029        22.7767 
 568   0.0000       0.840012        22.8579 
 569   0.0000       0.842289        22.9199 
 570   0.0000       0.844156        22.9707 
 571   0.0000       0.845216        22.9995 
 572   0.0000       0.851842        23.1798 
 573   0.0000       0.852690        23.2029 
 574   0.0000       0.855149        23.2698 
 575   0.0000       0.860975        23.4283 
 576   0.0000       0.863392        23.4941 
 577   0.0000       0.864805        23.5325 
 578   0.0000       0.865441        23.5498 
 579   0.0000       0.869223        23.6528 
 580   0.0000       0.872842        23.7512 
 581   0.0000       0.873870        23.7792 
 582   0.0000       0.874220        23.7887 
 583   0.0000       0.875018        23.8104 
 584   0.0000       0.877452        23.8767 
 585   0.0000       0.884984        24.0816 
 586   0.0000       0.887912        24.1613 
 587   0.0000       0.889045        24.1921 
 588   0.0000       0.897200        24.4140 
 589   0.0000       0.898771        24.4568 
 590   0.0000       0.900179        24.4951 
 591   0.0000       0.901285        24.5252 
 592   0.0000       0.903590        24.5879 
 593   0.0000       0.907557        24.6959 
 594   0.0000       0.907940        24.7063 
 595   0.0000       0.909968        24.7615 
 596   0.0000       0.912275        24.8243 
 597   0.0000       0.914789        24.8927 
 598   0.0000       0.917744        24.9731 
 599   0.0000       0.922837        25.1117 
 600   0.0000       0.925994        25.1976 
 601   0.0000       0.926588        25.2138 
 602   0.0000       0.929643        25.2969 
 603   0.0000       0.931124        25.3372 
 604   0.0000       0.936908        25.4946 
 605   0.0000       0.938071        25.5262 
 606   0.0000       0.940623        25.5957 
 607   0.0000       0.943773        25.6814 
 608   0.0000       0.945595        25.7310 
 609   0.0000       0.947499        25.7828 
 610   0.0000       0.954159        25.9640 
 611   0.0000       0.958359        26.0783 
 612   0.0000       0.959049        26.0970 
 613   0.0000       0.961659        26.1681 
 614   0.0000       0.963296        26.2126 
 615   0.0000       0.963819        26.2269 
 616   0.0000       0.970476        26.4080 
 617   0.0000       0.972462        26.4620 
 618   0.0000       0.976244        26.5650 
 619   0.0000       0.976972        26.5848 
 620   0.0000       0.984084        26.7783 
 621   0.0000       0.984626        26.7930 
 622   0.0000       0.985064        26.8050 
 623   0.0000       0.989951        26.9379 
 624   0.0000       0.994905        27.0727 
 625   0.0000       1.001310        27.2470 
 626   0.0000       1.002176        27.2706 
 627   0.0000       1.004978        27.3468 
 628   0.0000       1.006500        27.3882 
 629   0.0000       1.007883        27.4259 
 630   0.0000       1.010211        27.4892 
 631   0.0000       1.013000        27.5651 
 632   0.0000       1.017947        27.6997 
 633   0.0000       1.020263        27.7628 
 634   0.0000       1.024567        27.8799 
 635   0.0000       1.026567        27.9343 
 636   0.0000       1.033130        28.1129 
 637   0.0000       1.034410        28.1477 
 638   0.0000       1.036795        28.2126 
 639   0.0000       1.039178        28.2775 
 640   0.0000       1.045553        28.4509 
 641   0.0000       1.049087        28.5471 
 642   0.0000       1.050471        28.5848 
 643   0.0000       1.052835        28.6491 
 644   0.0000       1.054432        28.6925 
 645   0.0000       1.055128        28.7115 
 646   0.0000       1.056024        28.7359 
 647   0.0000       1.060467        28.8568 
 648   0.0000       1.066439        29.0193 
 649   0.0000       1.070348        29.1257 
 650   0.0000       1.072353        29.1802 
 651   0.0000       1.075480        29.2653 
 652   0.0000       1.075969        29.2786 
 653   0.0000       1.083563        29.4853 
 654   0.0000       1.085308        29.5327 
 655   0.0000       1.090859        29.6838 
 656   0.0000       1.093777        29.7632 
 657   0.0000       1.096241        29.8302 
 658   0.0000       1.098664        29.8962 
 659   0.0000       1.099384        29.9158 
 660   0.0000       1.100133        29.9361 
 661   0.0000       1.107829        30.1456 
 662   0.0000       1.110776        30.2258 
 663   0.0000       1.115993        30.3677 
 664   0.0000       1.117201        30.4006 
 665   0.0000       1.119869        30.4732 
 666   0.0000       1.124584        30.6015 
 667   0.0000       1.125720        30.6324 
 668   0.0000       1.125915        30.6377 
 669   0.0000       1.139261        31.0009 
 670   0.0000       1.141754        31.0687 
 671   0.0000       1.142378        31.0857 
 672   0.0000       1.147003        31.2115 
 673   0.0000       1.149551        31.2809 
 674   0.0000       1.154898        31.4264 
 675   0.0000       1.156611        31.4730 
 676   0.0000       1.158633        31.5280 
 677   0.0000       1.160821        31.5875 
 678   0.0000       1.165042        31.7024 
 679   0.0000       1.165512        31.7152 
 680   0.0000       1.168164        31.7874 
 681   0.0000       1.169138        31.8139 
 682   0.0000       1.176923        32.0257 
 683   0.0000       1.181904        32.1612 
 684   0.0000       1.184736        32.2383 
 685   0.0000       1.186371        32.2828 
 686   0.0000       1.187686        32.3186 
 687   0.0000       1.191404        32.4198 
 688   0.0000       1.197209        32.5777 
 689   0.0000       1.201720        32.7005 
 690   0.0000       1.205469        32.8025 
 691   0.0000       1.206312        32.8254 
 692   0.0000       1.207713        32.8635 
 693   0.0000       1.214574        33.0502 
 694   0.0000       1.217498        33.1298 
 695   0.0000       1.218073        33.1455 
 696   0.0000       1.218610        33.1601 
 697   0.0000       1.220802        33.2197 
 698   0.0000       1.228154        33.4198 
 699   0.0000       1.236215        33.6391 
 700   0.0000       1.238227        33.6939 
 701   0.0000       1.242831        33.8192 
 702   0.0000       1.243209        33.8294 
 703   0.0000       1.248335        33.9689 
 704   0.0000       1.250514        34.0282 
 705   0.0000       1.250983        34.0410 
 706   0.0000       1.251736        34.0615 
 707   0.0000       1.257422        34.2162 
 708   0.0000       1.264079        34.3973 
 709   0.0000       1.268202        34.5095 
 710   0.0000       1.270065        34.5602 
 711   0.0000       1.272851        34.6360 
 712   0.0000       1.273942        34.6657 
[...]
      py      :     0.088486
      dz2     :     0.009376  d :     0.029870
      dxz     :     0.006968
      dyz     :     0.007089
      dx2y2   :     0.003695
      dxy     :     0.002743
 61 H s       :     0.683692  s :     0.683692
      pz      :     0.091576  p :     0.305806
      px      :     0.091719
      py      :     0.122512
      dz2     :     0.002980  d :     0.030053
      dxz     :     0.001320
      dyz     :     0.008216
      dx2y2   :     0.009039
      dxy     :     0.008498
 62 H s       :     0.683009  s :     0.683009
      pz      :     0.085674  p :     0.315911
      px      :     0.151160
      py      :     0.079077
      dz2     :     0.002875  d :     0.029768
      dxz     :     0.009421
      dyz     :     0.000583
      dx2y2   :     0.007435
      dxy     :     0.009454
 63 C s       :     2.627431  s :     2.627431
      pz      :     0.909243  p :     2.678889
      px      :     0.869394
      py      :     0.900252
      dz2     :     0.078048  d :     0.553692
      dxz     :     0.130560
      dyz     :     0.108055
      dx2y2   :     0.101448
      dxy     :     0.135582
      f0      :     0.003526  f :     0.029514
      f+1     :     0.005078
      f-1     :     0.002469
      f+2     :     0.004494
      f-2     :     0.003592
      f+3     :     0.005446
      f-3     :     0.004909
 64 H s       :     0.690811  s :     0.690811
      pz      :     0.115977  p :     0.279988
      px      :     0.082067
      py      :     0.081943
      dz2     :     0.008947  d :     0.029876
      dxz     :     0.007856
      dyz     :     0.007896
      dx2y2   :     0.002601
      dxy     :     0.002577
 65 H s       :     0.681136  s :     0.681136
      pz      :     0.097333  p :     0.323521
      px      :     0.089023
      py      :     0.137166
      dz2     :     0.004436  d :     0.030218
      dxz     :     0.004059
      dyz     :     0.006260
      dx2y2   :     0.008186
      dxy     :     0.007276
 66 H s       :     0.679895  s :     0.679895
      pz      :     0.111831  p :     0.302190
      px      :     0.080311
      py      :     0.110048
      dz2     :     0.007572  d :     0.030097
      dxz     :     0.003845
      dyz     :     0.007889
      dx2y2   :     0.005088
      dxy     :     0.005704
 67 C s       :     2.627375  s :     2.627375
      pz      :     0.903033  p :     2.679922
      px      :     0.896634
      py      :     0.880256
      dz2     :     0.078178  d :     0.560636
      dxz     :     0.095597
      dyz     :     0.148634
      dx2y2   :     0.143039
      dxy     :     0.095188
      f0      :     0.002814  f :     0.029731
      f+1     :     0.004239
      f-1     :     0.004630
      f+2     :     0.004222
      f-2     :     0.004106
      f+3     :     0.004372
      f-3     :     0.005348
 68 H s       :     0.680230  s :     0.680230
      pz      :     0.119154  p :     0.309481
      px      :     0.087996
      py      :     0.102331
      dz2     :     0.007185  d :     0.030094
      dxz     :     0.004546
      dyz     :     0.007792
      dx2y2   :     0.005005
      dxy     :     0.005565
 69 H s       :     0.674273  s :     0.674273
      pz      :     0.096282  p :     0.341854
      px      :     0.147191
      py      :     0.098381
      dz2     :     0.003173  d :     0.030375
      dxz     :     0.009141
      dyz     :     0.001573
      dx2y2   :     0.008105
      dxy     :     0.008382
 70 H s       :     0.691532  s :     0.691532
      pz      :     0.110128  p :     0.279292
      px      :     0.090837
      py      :     0.078328
      dz2     :     0.009106  d :     0.029783
      dxz     :     0.006939
      dyz     :     0.007485
      dx2y2   :     0.003197
      dxy     :     0.003057


                      *****************************
                      * MAYER POPULATION ANALYSIS *
                      *****************************

  NA   - Mulliken gross atomic population
  ZA   - Total nuclear charge
  QA   - Mulliken gross atomic charge
  VA   - Mayer's total valence
  BVA  - Mayer's bonded valence
  FA   - Mayer's free valence

  ATOM       NA         ZA         QA         VA         BVA        FA
  0 W     15.1464    14.0000    -1.1464     6.6136     6.6136    -0.0000
  1 C      5.5121     6.0000     0.4879     2.2956     2.2956    -0.0000
  2 O      8.6158     8.0000    -0.6158     1.7350     1.7350    -0.0000
  3 C      5.1768     6.0000     0.8232     2.3251     2.3251    -0.0000
  4 O      8.6923     8.0000    -0.6923     1.6776     1.6776    -0.0000
  5 C      5.3291     6.0000     0.6709     2.2392     2.2392     0.0000
  6 O      8.6249     8.0000    -0.6249     1.7888     1.7888     0.0000
  7 H      1.4530     1.0000    -0.4530     2.5975     2.5975     0.0000
  8 H      1.4183     1.0000    -0.4183     2.6044     2.6044     0.0000
  9 P     14.7753    15.0000     0.2247     2.6847     2.6847    -0.0000
 10 C      4.8453     6.0000     1.1547    -1.7007    -1.7007    -0.0000
 11 H     -0.1538     1.0000     1.1538    -0.6045    -0.6045     0.0000
 12 C      4.4094     6.0000     1.5906    -1.9723    -1.9723     0.0000
 13 H     -0.0785     1.0000     1.0785    -0.3495    -0.3495     0.0000
 14 C      4.7845     6.0000     1.2155    -1.5759    -1.5759     0.0000
 15 H      0.0044     1.0000     0.9956    -0.0663    -0.0663     0.0000
 16 C      4.7829     6.0000     1.2171    -1.5841    -1.5841    -0.0000
 17 P     14.7810    15.0000     0.2190     2.6887     2.6887    -0.0000
 18 H     -0.1501     1.0000     1.1501    -0.5970    -0.5970    -0.0000
 19 H     -0.0018     1.0000     1.0018    -0.0782    -0.0782    -0.0000
 20 C      4.4112     6.0000     1.5888    -1.9619    -1.9619     0.0000
 21 H     -0.0793     1.0000     1.0793    -0.3528    -0.3528     0.0000
 22 C      9.1869     6.0000    -3.1869     1.0140     1.0140    -0.0000
 23 H      0.1011     1.0000     0.8989     0.3037     0.3037     0.0000
 24 H      0.4137     1.0000     0.5863     0.9856     0.9856    -0.0000
 25 H      0.4653     1.0000     0.5347     1.0547     1.0547    -0.0000
 26 C      8.6523     6.0000    -2.6523     2.0215     2.0215    -0.0000
 27 H      0.1662     1.0000     0.8338     0.3995     0.3995     0.0000
 28 H      0.6358     1.0000     0.3642     1.1920     1.1920    -0.0000
 29 H      0.5516     1.0000     0.4484     1.1831     1.1831    -0.0000
 30 C      9.1875     6.0000    -3.1875     1.0444     1.0444    -0.0000
 31 H      0.1869     1.0000     0.8131     0.4888     0.4888     0.0000
 32 H      0.4075     1.0000     0.5925     0.9300     0.9300    -0.0000
 33 H      0.4567     1.0000     0.5433     1.0148     1.0148    -0.0000
 34 C      8.8285     6.0000    -2.8285     1.3316     1.3316    -0.0000
 35 H      0.1231     1.0000     0.8769     0.3328     0.3328     0.0000
 36 H      0.6373     1.0000     0.3627     1.2093     1.2093    -0.0000
 37 H      0.4439     1.0000     0.5561     0.9850     0.9850     0.0000
 38 C      8.7737     6.0000    -2.7737     1.6030     1.6030     0.0000
 39 H      0.0925     1.0000     0.9075     0.2583     0.2583    -0.0000
 40 H      0.5245     1.0000     0.4755     0.9592     0.9592     0.0000
 41 H      0.5206     1.0000     0.4794     1.1813     1.1813     0.0000
 42 C      8.9429     6.0000    -2.9429     1.2052     1.2052    -0.0000
 43 H      0.5871     1.0000     0.4129     1.2211     1.2211    -0.0000
 44 H      0.5104     1.0000     0.4896     1.1027     1.1027    -0.0000
 45 H      0.0314     1.0000     0.9686     0.0913     0.0913     0.0000
 46 C      9.1838     6.0000    -3.1838     1.0504     1.0504     0.0000
 47 H      0.4076     1.0000     0.5924     0.9294     0.9294     0.0000
 48 H      0.1864     1.0000     0.8136     0.4870     0.4870    -0.0000
 49 H      0.4576     1.0000     0.5424     1.0156     1.0156     0.0000
 50 C      8.8257     6.0000    -2.8257     1.3237     1.3237     0.0000
 51 H      0.4449     1.0000     0.5551     0.9857     0.9857     0.0000
 52 C      8.9549     6.0000    -2.9549     1.1902     1.1902     0.0000
 53 H      0.6378     1.0000     0.3622     1.2077     1.2077     0.0000
 54 H      0.1223     1.0000     0.8777     0.3296     0.3296    -0.0000
 55 C      8.7708     6.0000    -2.7708     1.6095     1.6095    -0.0000
 56 H      0.5082     1.0000     0.4918     1.1003     1.1003    -0.0000
 57 H      0.0282     1.0000     0.9718     0.0835     0.0835    -0.0000
 58 H      0.5866     1.0000     0.4134     1.2209     1.2209    -0.0000
 59 C      4.8427     6.0000     1.1573    -1.7164    -1.7164     0.0000
 60 H      0.0912     1.0000     0.9088     0.2562     0.2562    -0.0000
 61 H      0.5215     1.0000     0.4785     1.1827     1.1827    -0.0000
 62 H      0.5278     1.0000     0.4722     0.9635     0.9635    -0.0000
 63 C      9.1927     6.0000    -3.1927     1.0134     1.0134     0.0000
 64 H      0.1020     1.0000     0.8980     0.3062     0.3062     0.0000
 65 H      0.4633     1.0000     0.5367     1.0507     1.0507     0.0000
 66 H      0.4126     1.0000     0.5874     0.9837     0.9837    -0.0000
 67 C      8.6508     6.0000    -2.6508     2.0210     2.0210    -0.0000
 68 H      0.5530     1.0000     0.4470     1.1859     1.1859    -0.0000
 69 H      0.6348     1.0000     0.3652     1.1960     1.1960    -0.0000
 70 H      0.1662     1.0000     0.8338     0.3988     0.3988     0.0000

  Mayer bond orders larger than 0.100000
B(  0-W ,  1-C ) :   1.0002 B(  0-W ,  2-O ) :  -0.1244 B(  0-W ,  3-C ) :   0.9107 
B(  0-W ,  4-O ) :   0.1627 B(  0-W ,  5-C ) :   1.0103 B(  0-W ,  6-O ) :  -0.1176 
B(  0-W ,  7-H ) :   0.6392 B(  0-W ,  8-H ) :   0.6048 B(  0-W ,  9-P ) :   0.5010 
B(  0-W , 15-H ) :   0.1110 B(  0-W , 17-P ) :   0.5055 B(  0-W , 19-H ) :   0.1037 
B(  0-W , 26-C ) :   0.1038 B(  0-W , 38-C ) :   0.1449 B(  0-W , 42-C ) :   0.1366 
B(  0-W , 52-C ) :   0.1364 B(  0-W , 55-C ) :   0.1515 B(  1-C ,  2-O ) :   1.7610 
B(  1-C ,  5-C ) :   0.1954 B(  3-C ,  4-O ) :   1.4668 B(  5-C ,  6-O ) :   1.7650 
B(  5-C ,  7-H ) :  -0.1838 B(  5-C ,  8-H ) :  -0.1718 B(  5-C ,  9-P ) :  -0.1295 
B(  5-C , 17-P ) :  -0.1231 B(  7-H ,  8-H ) :   2.6023 B(  7-H ,  9-P ) :  -0.4787 
B(  7-H , 10-C ) :  -0.2008 B(  7-H , 12-C ) :   0.2490 B(  7-H , 17-P ) :   0.1125 
B(  7-H , 20-C ) :  -0.2552 B(  7-H , 38-C ) :   0.6598 B(  7-H , 39-H ) :  -0.1212 
B(  7-H , 40-H ) :  -0.2185 B(  7-H , 42-C ) :  -0.2562 B(  7-H , 44-H ) :  -0.2400 
B(  7-H , 52-C ) :   0.2816 B(  7-H , 55-C ) :  -0.5031 B(  7-H , 56-H ) :   0.1332 
B(  7-H , 60-H ) :   0.1085 B(  7-H , 62-H ) :   0.1028 B(  8-H ,  9-P ) :   0.1322 
B(  8-H , 12-C ) :  -0.2567 B(  8-H , 17-P ) :  -0.4470 B(  8-H , 20-C ) :   0.2477 
B(  8-H , 38-C ) :  -0.5131 B(  8-H , 39-H ) :   0.1087 B(  8-H , 40-H ) :   0.1091 
B(  8-H , 42-C ) :   0.2743 B(  8-H , 44-H ) :   0.1327 B(  8-H , 52-C ) :  -0.2632 
B(  8-H , 55-C ) :   0.6400 B(  8-H , 56-H ) :  -0.2395 B(  8-H , 59-C ) :  -0.1999 
B(  8-H , 60-H ) :  -0.1212 B(  8-H , 62-H ) :  -0.2097 B(  9-P , 10-C ) :   0.5418 
B(  9-P , 11-H ) :  -0.2309 B(  9-P , 12-C ) :  -0.1549 B(  9-P , 13-H ) :  -0.2259 
B(  9-P , 14-C ) :   0.8803 B(  9-P , 20-C ) :   0.1770 B(  9-P , 22-C ) :   0.3380 
B(  9-P , 26-C ) :   0.5127 B(  9-P , 30-C ) :   0.2879 B(  9-P , 34-C ) :   0.1855 
B(  9-P , 36-H ) :  -0.1141 B(  9-P , 38-C ) :   0.2387 B(  9-P , 42-C ) :   0.4500 
B( 10-C , 11-H ) :  -0.1969 B( 10-C , 12-C ) :   0.1823 B( 10-C , 14-C ) :   0.4758 
B( 10-C , 38-C ) :  -0.7581 B( 10-C , 40-H ) :  -0.2702 B( 10-C , 41-H ) :  -0.1742 
B( 10-C , 42-C ) :  -1.0802 B( 10-C , 43-H ) :  -0.2505 B( 10-C , 44-H ) :  -0.3013 
B( 11-H , 38-C ) :  -0.1167 B( 11-H , 42-C ) :  -0.2515 B( 12-C , 13-H ) :   0.3424 
B( 12-C , 14-C ) :   0.2515 B( 12-C , 15-H ) :  -0.1186 B( 12-C , 17-P ) :   0.1706 
B( 12-C , 22-C ) :  -0.8125 B( 12-C , 24-H ) :  -0.3792 B( 12-C , 25-H ) :  -0.1945 
B( 12-C , 26-C ) :  -0.6976 B( 12-C , 28-H ) :  -0.1162 B( 12-C , 29-H ) :  -0.3259 
B( 12-C , 30-C ) :  -0.1130 B( 12-C , 34-C ) :   0.1069 B( 13-H , 22-C ) :  -0.4485 
B( 13-H , 23-H ) :   0.1046 B( 13-H , 26-C ) :  -0.2620 B( 14-C , 15-H ) :   0.1799 
B( 14-C , 30-C ) :  -1.2370 B( 14-C , 32-H ) :  -0.2674 B( 14-C , 33-H ) :  -0.2677 
B( 14-C , 34-C ) :  -0.9885 B( 14-C , 36-H ) :  -0.3135 B( 14-C , 37-H ) :  -0.2221 
B( 15-H , 30-C ) :  -0.2176 B( 15-H , 34-C ) :  -0.1583 B( 16-C , 17-P ) :   0.8749 
B( 16-C , 19-H ) :   0.1699 B( 16-C , 20-C ) :   0.2508 B( 16-C , 46-C ) :  -1.2362 
B( 16-C , 47-H ) :  -0.2668 B( 16-C , 49-H ) :  -0.2670 B( 16-C , 50-C ) :  -0.9877 
B( 16-C , 51-H ) :  -0.2234 B( 16-C , 53-H ) :  -0.3118 B( 16-C , 59-C ) :   0.4758 
B( 17-P , 18-H ) :  -0.2333 B( 17-P , 20-C ) :  -0.1429 B( 17-P , 21-H ) :  -0.2268 
B( 17-P , 46-C ) :   0.2961 B( 17-P , 50-C ) :   0.1912 B( 17-P , 52-C ) :   0.4539 
B( 17-P , 53-H ) :  -0.1126 B( 17-P , 55-C ) :   0.2396 B( 17-P , 59-C ) :   0.5236 
B( 17-P , 63-C ) :   0.3321 B( 17-P , 67-C ) :   0.4975 B( 18-H , 52-C ) :  -0.2539 
B( 18-H , 55-C ) :  -0.1164 B( 18-H , 59-C ) :  -0.1900 B( 19-H , 20-C ) :  -0.1179 
B( 19-H , 46-C ) :  -0.2179 B( 19-H , 50-C ) :  -0.1589 B( 20-C , 21-H ) :   0.3429 
B( 20-C , 46-C ) :  -0.1143 B( 20-C , 50-C ) :   0.1062 B( 20-C , 59-C ) :   0.1784 
B( 20-C , 63-C ) :  -0.8122 B( 20-C , 65-H ) :  -0.1941 B( 20-C , 66-H ) :  -0.3791 
B( 20-C , 67-C ) :  -0.6900 B( 20-C , 68-H ) :  -0.3267 B( 20-C , 69-H ) :  -0.1171 
B( 21-H , 63-C ) :  -0.4519 B( 21-H , 64-H ) :   0.1039 B( 21-H , 67-C ) :  -0.2629 
B( 22-C , 23-H ) :   0.1578 B( 22-C , 24-H ) :   1.1491 B( 22-C , 25-H ) :   0.9553 
B( 22-C , 26-C ) :  -0.2624 B( 22-C , 30-C ) :   0.1376 B( 23-H , 25-H ) :   0.1261 
B( 24-H , 25-H ) :   0.2153 B( 26-C , 27-H ) :   0.3636 B( 26-C , 28-H ) :   1.1421 
B( 26-C , 29-H ) :   1.1444 B( 28-H , 29-H ) :   0.3184 B( 30-C , 31-H ) :   0.3506 
B( 30-C , 32-H ) :   1.0293 B( 30-C , 33-H ) :   1.0069 B( 30-C , 34-C ) :  -0.2400 
B( 32-H , 33-H ) :   0.2108 B( 34-C , 35-H ) :   0.2145 B( 34-C , 36-H ) :   1.1909 
B( 34-C , 37-H ) :   1.0564 B( 36-H , 37-H ) :   0.2503 B( 38-C , 39-H ) :   0.1572 
B( 38-C , 40-H ) :   1.1312 B( 38-C , 41-H ) :   1.0640 B( 38-C , 42-C ) :  -0.2673 
B( 40-H , 41-H ) :   0.2237 B( 42-C , 43-H ) :   1.1198 B( 42-C , 44-H ) :   1.1750 
B( 43-H , 44-H ) :   0.3874 B( 46-C , 47-H ) :   1.0283 B( 46-C , 48-H ) :   0.3498 
B( 46-C , 49-H ) :   1.0086 B( 46-C , 50-C ) :  -0.2420 B( 46-C , 63-C ) :   0.1385 
B( 47-H , 49-H ) :   0.2106 B( 50-C , 51-H ) :   1.0598 B( 50-C , 53-H ) :   1.1856 
B( 50-C , 54-H ) :   0.2139 B( 51-H , 53-H ) :   0.2515 B( 52-C , 55-C ) :  -0.2674 
B( 52-C , 56-H ) :   1.1755 B( 52-C , 58-H ) :   1.1238 B( 52-C , 59-C ) :  -1.0956 
B( 55-C , 59-C ) :  -0.7480 B( 55-C , 60-H ) :   0.1544 B( 55-C , 61-H ) :   1.0653 
B( 55-C , 62-H ) :   1.1370 B( 56-H , 58-H ) :   0.3863 B( 56-H , 59-C ) :  -0.3024 
B( 58-H , 59-C ) :  -0.2515 B( 59-C , 61-H ) :  -0.1728 B( 59-C , 62-H ) :  -0.2733 
B( 61-H , 62-H ) :   0.2234 B( 63-C , 64-H ) :   0.1598 B( 63-C , 65-H ) :   0.9523 
B( 63-C , 66-H ) :   1.1455 B( 63-C , 67-C ) :  -0.2603 B( 64-H , 65-H ) :   0.1258 
B( 65-H , 66-H ) :   0.2142 B( 67-C , 68-H ) :   1.1450 B( 67-C , 69-H ) :   1.1463 
B( 67-C , 70-H ) :   0.3620 B( 68-H , 69-H ) :   0.3191 

-------
TIMINGS
-------

Total SCF time: 0 days 1 hours 43 min 28 sec 

Total time                  ....    6208.241 sec
Sum of individual times     ....    6204.225 sec  ( 99.9%)

Fock matrix formation       ....    6176.883 sec  ( 99.5%)
  XC integration            ....      59.154 sec  (  1.0% of F)
    Basis function eval.    ....       4.588 sec  (  7.8% of XC)
    Density eval.           ....      24.701 sec  ( 41.8% of XC)
    XC-Functional eval.     ....       0.826 sec  (  1.4% of XC)
    XC-Potential eval.      ....      24.848 sec  ( 42.0% of XC)
Diagonalization             ....       7.624 sec  (  0.1%)
Density matrix formation    ....       0.555 sec  (  0.0%)
Population analysis         ....       1.049 sec  (  0.0%)
Initial guess               ....       5.746 sec  (  0.1%)
Orbital Transformation      ....       0.000 sec  (  0.0%)
Orbital Orthonormalization  ....       0.000 sec  (  0.0%)
DIIS solution               ....      10.555 sec  (  0.2%)
Grid generation             ....       1.813 sec  (  0.0%)


-------------------------------------------------------------------------------
                          DFT DISPERSION CORRECTION                            
                                                                               
                              DFTD3 V3.1  Rev 1                                
                              USING zero damping                               
-------------------------------------------------------------------------------
The M06 functional is recognized
Active option DFTDOPT                   ...         3   

molecular C6(AA) [au] = 50503.017326 


            DFT-D V3
 parameters
 s6 scaling factor         :     1.0000 
 rs6 scaling factor        :     1.3250 
 s8 scaling factor         :     0.0000 
 rs8 scaling factor        :     1.0000 
 Damping factor alpha6     :    14.0000 
 Damping factor alpha8     :    16.0000 
 ad hoc parameters k1-k3   :    16.0000     1.3333    -4.0000 

 Edisp/kcal,au: -13.190451194613  -0.021020319745 
 E6   /kcal   : -13.190451195 
 E8   /kcal   :  -0.000000000 
 % E8         :   0.000000000 

-------------------------   ----------------
Dispersion correction           -0.021020320
-------------------------   ----------------


-------------------------   --------------------
FINAL SINGLE POINT ENERGY     -1801.987700379941
-------------------------   --------------------


                            ***************************************
                            *     ORCA property calculations      *
                            ***************************************

                                    ---------------------
                                    Active property flags
                                    ---------------------
   (+) Dipole Moment


------------------------------------------------------------------------------
                       ORCA ELECTRIC PROPERTIES CALCULATION
------------------------------------------------------------------------------

Dipole Moment Calculation                       ... on
Quadrupole Moment Calculation                   ... off
Polarizability Calculation                      ... off
GBWName                                         ... MOR27_pr07.gbw
Electron density file                           ... MOR27_pr07.scfp
The origin for moment calculation is the CENTER OF MASS  = ( 0.000014,  0.004958 -0.000129)

-------------
DIPOLE MOMENT
-------------
                                X             Y             Z
Electronic contribution:      0.02007      -1.49396      17.18306
Nuclear contribution   :     -0.02072       1.50197     -16.46211
                        -----------------------------------------
Total Dipole Moment    :     -0.00065       0.00801       0.72096
                        -----------------------------------------
Magnitude (a.u.)       :      0.72100
Magnitude (Debye)      :      1.83265



--------------------
Rotational spectrum 
--------------------
 
Rotational constants in cm-1:     0.008070     0.003719     0.003518 
Rotational constants in MHz :   241.945038   111.491092   105.477311 

 Dipole components along the rotational axes: 
x,y,z [a.u.] :    -0.000648     0.025594     0.720549 
x,y,z [Debye]:    -0.001646     0.065055     1.831490 

 

Timings for individual modules:

Sum of individual times         ...     6223.146 sec (= 103.719 min)
GTO integral calculation        ...       14.437 sec (=   0.241 min)   0.2 %
SCF iterations                  ...     6208.709 sec (= 103.478 min)  99.8 %
                             ****ORCA TERMINATED NORMALLY****
TOTAL RUN TIME: 0 days 1 hours 43 minutes 44 seconds 197 msec
