
                                 *****************
                                 * O   R   C   A *
                                 *****************

           --- An Ab Initio, DFT and Semiempirical electronic structure package ---

                  #######################################################
                  #                        -***-                        #
                  #          Department of theory and spectroscopy      #
                  #               Directorship: Frank Neese             #
                  #        Max Planck Institute fuer Kohlenforschung    #
                  #                Kaiser Wilhelm Platz 1               #
                  #                 D-45470 Muelheim/Ruhr               #
                  #                      Germany                        #
                  #                                                     #
                  #                  All rights reserved                #
                  #                        -***-                        #
                  #######################################################


                         Program Version 4.2.0 -  RELEASE  -


 With contributions from (in alphabetic order):
   Daniel Aravena         : Magnetic Suceptibility
   Michael Atanasov       : Ab Initio Ligand Field Theory (pilot matlab implementation)
   Alexander A. Auer      : GIAO ZORA, VPT2
   Ute Becker             : Parallelization
   Giovanni Bistoni       : ED, misc. LED, open-shell LED, HFLED
   Martin Brehm           : Molecular dynamics
   Dmytro Bykov           : SCF Hessian
   Vijay G. Chilkuri      : MRCI spin determinant printing, contributions to CSF-ICE
   Dipayan Datta          : RHF DLPNO-CCSD density
   Achintya Kumar Dutta   : EOM-CC, STEOM-CC
   Dmitry Ganyushin       : Spin-Orbit,Spin-Spin,Magnetic field MRCI
   Miquel Garcia          : C-PCM Hessian, Gaussian charge scheme
   Yang Guo               : DLPNO-NEVPT2, CIM, IAO-localization
   Andreas Hansen         : Spin unrestricted coupled pair/coupled cluster methods
   Benjamin Helmich-Paris : CASSCF linear response (MC-RPA)
   Lee Huntington         : MR-EOM, pCC
   Robert Izsak           : Overlap fitted RIJCOSX, COSX-SCS-MP3, EOM
   Christian Kollmar      : KDIIS, OOCD, Brueckner-CCSD(T), CCSD density
   Simone Kossmann        : Meta GGA functionals, TD-DFT gradient, OOMP2, MP2 Hessian
   Martin Krupicka        : AUTO-CI
   Lucas Lang             : DCDCAS
   Dagmar Lenk            : GEPOL surface, SMD
   Dimitrios Liakos       : Extrapolation schemes; Compound Job, initial MDCI parallelization
   Dimitrios Manganas     : Further ROCIS development; embedding schemes
   Dimitrios Pantazis     : SARC Basis sets
   Taras Petrenko         : DFT Hessian,TD-DFT gradient, ASA, ECA, R-Raman, ABS, FL, XAS/XES, NRVS
   Peter Pinski           : DLPNO-MP2, DLPNO-MP2 Gradient
   Christoph Reimann      : Effective Core Potentials
   Marius Retegan         : Local ZFS, SOC
   Christoph Riplinger    : Optimizer, TS searches, QM/MM, DLPNO-CCSD(T), (RO)-DLPNO pert. Triples
   Tobias Risthaus        : Range-separated hybrids, TD-DFT gradient, RPA, STAB
   Michael Roemelt        : Original ROCIS implementation
   Masaaki Saitow         : Open-shell DLPNO-CCSD energy and density
   Barbara Sandhoefer     : DKH picture change effects
   Avijit Sen             : IP-ROCIS
   Kantharuban Sivalingam : CASSCF convergence, NEVPT2, FIC-MRCI
   Bernardo de Souza      : ESD, SOC TD-DFT
   Georgi Stoychev        : AutoAux, RI-MP2 NMR
   Willem Van den Heuvel  : Paramagnetic NMR
   Boris Wezisla          : Elementary symmetry handling
   Frank Wennmohs         : Technical directorship


 We gratefully acknowledge several colleagues who have allowed us to
 interface, adapt or use parts of their codes:
   Stefan Grimme, W. Hujo, H. Kruse,             : VdW corrections, initial TS optimization,
                  C. Bannwarth                     DFT functionals, gCP, sTDA/sTD-DF
   Ed Valeev, F. Pavosevic, A. Kumar             : LibInt (2-el integral package), F12 methods
   Garnet Chan, S. Sharma, J. Yang, R. Olivares  : DMRG
   Ulf Ekstrom                                   : XCFun DFT Library
   Mihaly Kallay                                 : mrcc  (arbitrary order and MRCC methods)
   Andreas Klamt, Michael Diedenhofen            : otool_cosmo (COSMO solvation model)
   Jiri Pittner, Ondrej Demel                    : Mk-CCSD
   Frank Weinhold                                : gennbo (NPA and NBO analysis)
   Christopher J. Cramer and Donald G. Truhlar   : smd solvation model
   Lars Goerigk                                  : TD-DFT with DH, B97 family of functionals
   V. Asgeirsson, H. Jonsson                     : NEB implementation
   FAccTs GmbH                                   : IRC, NEB, NEB-TS, Multilevel, MM, QM/MM, CI optimization
   S Lehtola, MJT Oliveira, MAL Marques          : LibXC Library


 Your calculation uses the libint2 library for the computation of 2-el integrals
 For citations please refer to: http://libint.valeyev.net

 Your ORCA version has been built with support for libXC version: 4.2.3
 For citations please refer to: https://tddft.org/programs/libxc/

 This ORCA versions uses:
   CBLAS   interface :  Fast vector & matrix operations
   LAPACKE interface :  Fast linear algebra routines
   SCALAPACK package :  Parallel linear algebra routines


Your calculation utilizes the atom-pairwise dispersion correction
with the zero-damping scheme (D30)
Cite in your paper:
S.Grimme, J.Antony, S.Ehrlich and H.Krieg, J.Chem.Phys., 132, (2010), 154104 
   

XCFun DFT library Copyright 2009-2010 Ulf Ekstrom and contributors.
See http://admol.org/xcfun for more information. This is free soft-
ware; see the source code for copying conditions. There is ABSOLUTELY
NO WARRANTY; not even for MERCHANTABILITY or FITNESS FOR A PARTICULAR
PURPOSE. For details see the documentation. Scientific users of this 
library should cite U. Ekstrom, L. Visscher, R. Bast, A. J. Thorvald-
sen and K. Ruud; J.Chem.Theor.Comp. 2010, DOI: 10.1021/ct100117s
XCFun Version 0.99 
----- Orbital basis set information -----
Your calculation utilizes the basis: def2-TZVPPD
   F. Weigend and R. Ahlrichs, Phys. Chem. Chem. Phys. 7, 3297 (2005).
   D. Rappoport and F. Furche, J. Chem. Phys. 133 134105 (2010).

----- AuxJK basis set information -----
Your calculation utilizes the auxiliary basis: def2/JK
   H-Ba, Hf-Rn: F. Weigend, J. Comput. Chem. 29, 167 (2008).

cite the ECPs for Rh [Def2-ECP] as follows:
Ce-Yb(ecp-28): M. Dolg, H. Stoll, H.Preuss, J. Chem. Phys., 1989, 90, 1730-1734.
Y-Cd(ecp-28), Hf-Hg(ecp-46): D. Andrae,U. Haeussermann, M. Dolg, H. Stoll, H. Preuss, Theor. Chim. Acta, 1990, 77, 123-141.
In-Sb(ecp-28), Tl-Bi(ecp-46): B. Metz, H. Stoll, M. Dolg, J. Chem. Phys., 2000, 113, 2563-2569.
Te-Xe(ecp-28), Po-Rn(ecp-46): K. A. Peterson, D. Figgen, E. Goll, H. Stoll, M. Dolg, J. Chem. Phys., 2003, 119, 11113-11123.
Rb(ecp-28), Cs(ecp-46): T. Leininger, A. Nicklass, W. Kuechle, H. Stoll, M. Dolg, A. Bergner, Chem. Phys. Lett., 1996, 255, 274-280.
Sr(ecp-28), Ba(ecp-46): M. Kaupp, P. V. Schleyer, H. Stoll and H. Preuss, J. Chem. Phys., 1991, 94, 1360-1366.
La(ecp-46): M. Dolg, H. Stoll, A. Savin, H. Preuss, Theor. Chim. Acta, 1989, 75, 173-194.
Lu(ecp-28): X. Cao, M. Dolg, J. Chem. Phys., 2001, 115, 7348-7355.

ECP parameters for Rh [Def2-ECP] have been obtained from:
TURBOMOLE (7.0.2)

================================================================================
                                        WARNINGS
                       Please study these warnings very carefully!
================================================================================


WARNING: Minnesota functionals are quite sensitive to the integration grid.
         see SE Wheeler, KN Houk, JCTC 2010, 6, 395,
             N Mardirossian, M Head-Gordon, JCTC 2016, 12, 4303.
         Grid6 seems to be a minimum grid for reliable results with these functionals!
  ===> : Please increase the integration grid!


INFO   : the flag for use of LIBINT has been found!

================================================================================
                                       INPUT FILE
================================================================================
NAME = MOR28_pr09.in
|  1> #
|  2> # MOR28_pr09 M06-D3/Def2-TZVPPD
|  3> #
|  4> ! m06 d3zero def2-tzvppd def2/jk grid4 nofinalgrid
|  5> 
|  6> *xyz 0 1
|  7> Rh       0.002553    0.015324   -0.037445 
|  8> P       -2.290286    0.102034   -0.002141 
|  9> P        2.295185    0.104741   -0.029108 
| 10> H       -0.000447    1.293328    0.830281 
| 11> H        0.001130    1.304527   -0.889045 
| 12> Cl       0.007749   -2.380443   -0.037879 
| 13> C        3.048741    1.714400   -0.468454 
| 14> C        3.042509   -0.273930    1.598336 
| 15> C        3.097153   -1.069215   -1.172055 
| 16> C       -3.110022   -0.330980   -1.580554 
| 17> C       -3.050128   -1.025999    1.213911 
| 18> C       -3.019556    1.731005    0.405513 
| 19> C        4.221249    1.798414   -1.230361 
| 20> C        4.789108    3.041134   -1.513476 
| 21> C        4.197347    4.208872   -1.032572 
| 22> C        3.028536    4.131819   -0.272310 
| 23> C        2.452968    2.893237    0.001453 
| 24> H        4.686057    0.892043   -1.605584 
| 25> H        5.694526    3.094809   -2.111614 
| 26> H        4.640059    5.175809   -1.254830 
| 27> H        2.559280    5.038271    0.099833 
| 28> H        1.532532    2.831516    0.574445 
| 29> C        2.492740   -1.274577   -2.419700 
| 30> C        3.069210   -2.141848   -3.343202 
| 31> C        4.245283   -2.823200   -3.021963 
| 32> C        4.842886   -2.633499   -1.775820 
| 33> C        4.272633   -1.757382   -0.851682 
| 34> H        1.559916   -0.765736   -2.648777 
| 35> H        2.592837   -2.299617   -4.306681 
| 36> H        4.688326   -3.509606   -3.738122 
| 37> H        5.750981   -3.171899   -1.518950 
| 38> H        4.733770   -1.615306    0.121218 
| 39> C        2.573432   -1.401325    2.291237 
| 40> C        3.112349   -1.729837    3.532773 
| 41> C        4.110733   -0.934394    4.100320 
| 42> C        4.573407    0.190471    3.418246 
| 43> C        4.043987    0.520908    2.169837 
| 44> H        1.789551   -2.010529    1.847481 
| 45> H        2.746524   -2.605505    4.061892 
| 46> H        4.523765   -1.189174    5.072491 
| 47> H        5.347947    0.814312    3.855909 
| 48> H        4.408962    1.396682    1.642408 
| 49> C       -4.114004    1.861395    1.269146 
| 50> C       -4.661457    3.119187    1.526531 
| 51> C       -4.128475    4.254505    0.917253 
| 52> C       -3.037090    4.130954    0.054341 
| 53> C       -2.480194    2.878757   -0.192845 
| 54> H       -4.534614    0.980084    1.743054 
| 55> H       -5.505661    3.209295    2.204432 
| 56> H       -4.556024    5.232793    1.118339 
| 57> H       -2.613755    5.012384   -0.419158 
| 58> H       -1.618255    2.782567   -0.846864 
| 59> C       -4.156822    0.429958   -2.116482 
| 60> C       -4.751801    0.052668   -3.321119 
| 61> C       -4.309469   -1.085441   -3.994829 
| 62> C       -3.265632   -1.846455   -3.463206 
| 63> C       -2.661736   -1.471384   -2.265369 
| 64> H       -4.506373    1.315520   -1.594998 
| 65> H       -5.561640    0.650007   -3.730969 
| 66> H       -4.773990   -1.377169   -4.932751 
| 67> H       -2.915705   -2.732129   -3.986302 
| 68> H       -1.843939   -2.054854   -1.849211 
| 69> C       -2.377196   -1.225504    2.426817 
| 70> C       -2.923708   -2.054207    3.402951 
| 71> C       -4.138807   -2.701607    3.169380 
| 72> C       -4.805427   -2.517892    1.957599 
| 73> C       -4.264583   -1.681339    0.980942 
| 74> H       -1.416572   -0.742639    2.587014 
| 75> H       -2.394478   -2.207926    4.339105 
| 76> H       -4.559549   -3.357196    3.926721 
| 77> H       -5.744700   -3.030292    1.768738 
| 78> H       -4.779554   -1.544060    0.034665 
| 79> *
| 80> 
| 81> %maxcore 5000
| 82> 
| 83> %pal
| 84> nprocs = 24
| 85> end
| 86> 
| 87> 
| 88>                          ****END OF INPUT****
================================================================================

                       ****************************
                       * Single Point Calculation *
                       ****************************

---------------------------------
CARTESIAN COORDINATES (ANGSTROEM)
---------------------------------
  Rh     0.002553    0.015324   -0.037445
  P     -2.290286    0.102034   -0.002141
  P      2.295185    0.104741   -0.029108
  H     -0.000447    1.293328    0.830281
  H      0.001130    1.304527   -0.889045
  Cl     0.007749   -2.380443   -0.037879
  C      3.048741    1.714400   -0.468454
  C      3.042509   -0.273930    1.598336
  C      3.097153   -1.069215   -1.172055
  C     -3.110022   -0.330980   -1.580554
  C     -3.050128   -1.025999    1.213911
  C     -3.019556    1.731005    0.405513
  C      4.221249    1.798414   -1.230361
  C      4.789108    3.041134   -1.513476
  C      4.197347    4.208872   -1.032572
  C      3.028536    4.131819   -0.272310
  C      2.452968    2.893237    0.001453
  H      4.686057    0.892043   -1.605584
  H      5.694526    3.094809   -2.111614
  H      4.640059    5.175809   -1.254830
  H      2.559280    5.038271    0.099833
  H      1.532532    2.831516    0.574445
  C      2.492740   -1.274577   -2.419700
  C      3.069210   -2.141848   -3.343202
  C      4.245283   -2.823200   -3.021963
  C      4.842886   -2.633499   -1.775820
  C      4.272633   -1.757382   -0.851682
  H      1.559916   -0.765736   -2.648777
  H      2.592837   -2.299617   -4.306681
  H      4.688326   -3.509606   -3.738122
  H      5.750981   -3.171899   -1.518950
  H      4.733770   -1.615306    0.121218
  C      2.573432   -1.401325    2.291237
  C      3.112349   -1.729837    3.532773
  C      4.110733   -0.934394    4.100320
  C      4.573407    0.190471    3.418246
  C      4.043987    0.520908    2.169837
  H      1.789551   -2.010529    1.847481
  H      2.746524   -2.605505    4.061892
  H      4.523765   -1.189174    5.072491
  H      5.347947    0.814312    3.855909
  H      4.408962    1.396682    1.642408
  C     -4.114004    1.861395    1.269146
  C     -4.661457    3.119187    1.526531
  C     -4.128475    4.254505    0.917253
  C     -3.037090    4.130954    0.054341
  C     -2.480194    2.878757   -0.192845
  H     -4.534614    0.980084    1.743054
  H     -5.505661    3.209295    2.204432
  H     -4.556024    5.232793    1.118339
  H     -2.613755    5.012384   -0.419158
  H     -1.618255    2.782567   -0.846864
  C     -4.156822    0.429958   -2.116482
  C     -4.751801    0.052668   -3.321119
  C     -4.309469   -1.085441   -3.994829
  C     -3.265632   -1.846455   -3.463206
  C     -2.661736   -1.471384   -2.265369
  H     -4.506373    1.315520   -1.594998
  H     -5.561640    0.650007   -3.730969
  H     -4.773990   -1.377169   -4.932751
  H     -2.915705   -2.732129   -3.986302
  H     -1.843939   -2.054854   -1.849211
  C     -2.377196   -1.225504    2.426817
  C     -2.923708   -2.054207    3.402951
  C     -4.138807   -2.701607    3.169380
  C     -4.805427   -2.517892    1.957599
  C     -4.264583   -1.681339    0.980942
  H     -1.416572   -0.742639    2.587014
  H     -2.394478   -2.207926    4.339105
  H     -4.559549   -3.357196    3.926721
  H     -5.744700   -3.030292    1.768738
  H     -4.779554   -1.544060    0.034665

----------------------------
CARTESIAN COORDINATES (A.U.)
----------------------------
  NO LB      ZA    FRAG     MASS         X           Y           Z
   0 Rh   17.0000*   0   102.910    0.004824    0.028958   -0.070761
   1 P    15.0000    0    30.974   -4.328013    0.192816   -0.004046
   2 P    15.0000    0    30.974    4.337271    0.197932   -0.055006
   3 H     1.0000    0     1.008   -0.000845    2.444036    1.569004
   4 H     1.0000    0     1.008    0.002135    2.465199   -1.680052
   5 Cl   17.0000    0    35.453    0.014643   -4.498385   -0.071581
   6 C     6.0000    0    12.011    5.761286    3.239746   -0.885250
   7 C     6.0000    0    12.011    5.749509   -0.517653    3.020417
   8 C     6.0000    0    12.011    5.852771   -2.020524   -2.214863
   9 C     6.0000    0    12.011   -5.877090   -0.625462   -2.986814
  10 C     6.0000    0    12.011   -5.763907   -1.938857    2.293959
  11 C     6.0000    0    12.011   -5.706134    3.271125    0.766309
  12 C     6.0000    0    12.011    7.977005    3.398510   -2.325045
  13 C     6.0000    0    12.011    9.050103    5.746910   -2.860055
  14 C     6.0000    0    12.011    7.931836    7.953615   -1.951278
  15 C     6.0000    0    12.011    5.723104    7.808006   -0.514591
  16 C     6.0000    0    12.011    4.635438    5.467426    0.002746
  17 H     1.0000    0     1.008    8.855364    1.685717   -3.034114
  18 H     1.0000    0     1.008   10.761095    5.848341   -3.990372
  19 H     1.0000    0     1.008    8.768441    9.780862   -2.371285
  20 H     1.0000    0     1.008    4.836338    9.520952    0.188657
  21 H     1.0000    0     1.008    2.896066    5.350790    1.085544
  22 C     6.0000    0    12.011    4.710596   -2.408601   -4.572570
  23 C     6.0000    0    12.011    5.799966   -4.047506   -6.317736
  24 C     6.0000    0    12.011    8.022422   -5.335075   -5.710682
  25 C     6.0000    0    12.011    9.151728   -4.976592   -3.355813
  26 C     6.0000    0    12.011    8.074106   -3.320971   -1.609446
  27 H     1.0000    0     1.008    2.947814   -1.447031   -5.005463
  28 H     1.0000    0     1.008    4.899752   -4.345646   -8.138448
  29 H     1.0000    0     1.008    8.859652   -6.632194   -7.064027
  30 H     1.0000    0     1.008   10.867779   -5.994020   -2.870400
  31 H     1.0000    0     1.008    8.945529   -3.052486    0.229069
  32 C     6.0000    0    12.011    4.863082   -2.648120    4.329810
  33 C     6.0000    0    12.011    5.881487   -3.268918    6.675973
  34 C     6.0000    0    12.011    7.768160   -1.765749    7.748482
  35 C     6.0000    0    12.011    8.642487    0.359938    6.459549
  36 C     6.0000    0    12.011    7.642028    0.984373    4.100398
  37 H     1.0000    0     1.008    3.381761   -3.799349    3.491233
  38 H     1.0000    0     1.008    5.190178   -4.923691    7.675863
  39 H     1.0000    0     1.008    8.548677   -2.247213    9.585619
  40 H     1.0000    0     1.008   10.106155    1.538827    7.286612
  41 H     1.0000    0     1.008    8.331731    2.639346    3.103701
  42 C     6.0000    0    12.011   -7.774341    3.517527    2.398338
  43 C     6.0000    0    12.011   -8.808877    5.894409    2.884726
  44 C     6.0000    0    12.011   -7.801687    8.039849    1.733357
  45 C     6.0000    0    12.011   -5.739268    7.806372    0.102690
  46 C     6.0000    0    12.011   -4.686887    5.440062   -0.364424
  47 H     1.0000    0     1.008   -8.569179    1.852090    3.293895
  48 H     1.0000    0     1.008  -10.404191    6.064689    4.165773
  49 H     1.0000    0     1.008   -8.609638    9.888546    2.113354
  50 H     1.0000    0     1.008   -4.939281    9.472033   -0.792094
  51 H     1.0000    0     1.008   -3.058059    5.258290   -1.600341
  52 C     6.0000    0    12.011   -7.855255    0.812503   -3.999571
  53 C     6.0000    0    12.011   -8.979603    0.099528   -6.276005
  54 C     6.0000    0    12.011   -8.143716   -2.051186   -7.549133
  55 C     6.0000    0    12.011   -6.171150   -3.489294   -6.544511
  56 C     6.0000    0    12.011   -5.029952   -2.780513   -4.280927
  57 H     1.0000    0     1.008   -8.515811    2.485973   -3.014109
  58 H     1.0000    0     1.008  -10.509976    1.228335   -7.050510
  59 H     1.0000    0     1.008   -9.021534   -2.602472   -9.321548
  60 H     1.0000    0     1.008   -5.509884   -5.162976   -7.533019
  61 H     1.0000    0     1.008   -3.484540   -3.883111   -3.494502
  62 C     6.0000    0    12.011   -4.492249   -2.315867    4.586020
  63 C     6.0000    0    12.011   -5.525007   -3.881889    6.430645
  64 C     6.0000    0    12.011   -7.821212   -5.105297    5.989260
  65 C     6.0000    0    12.011   -9.080941   -4.758126    3.699326
  66 C     6.0000    0    12.011   -8.058894   -3.177270    1.853712
  67 H     1.0000    0     1.008   -2.676933   -1.403384    4.888748
  68 H     1.0000    0     1.008   -4.524908   -4.172375    8.199720
  69 H     1.0000    0     1.008   -8.616299   -6.344181    7.420427
  70 H     1.0000    0     1.008  -10.855910   -5.726422    3.342430
  71 H     1.0000    0     1.008   -9.032048   -2.917851    0.065507
* core charge reduced due to ECP

--------------------------------
INTERNAL COORDINATES (ANGSTROEM)
--------------------------------
 Rh     0   0   0     0.000000000000     0.00000000     0.00000000
 P      1   0   0     2.294749589048     0.00000000     0.00000000
 P      1   2   0     2.294390200659   175.46790937     0.00000000
 H      1   2   3     1.544749699819    87.60182724    20.27659786
 H      1   2   4     1.545078949484    88.62653194   292.34270864
 Cl     1   2   4     2.395772673911    92.28991802   145.80580958
 C      3   1   4     1.830812292162   116.40245330   310.16438078
 C      3   1   4     1.830425868576   113.77426055    69.89215437
 C      3   1   4     1.824185628649   114.32655176   189.38302179
 C      2   1   4     1.830534302454   115.16556931   140.42172529
 C      2   1   4     1.824445335097   113.76730973   260.35690386
 C      2   1   4     1.830727460726   115.78948979    20.28869998
 C      7   3   1     1.400833908395   121.85418118   217.68935157
 C     13   7   3     1.395339007376   120.29196881   181.87192107
 C     14  13   7     1.394654715326   120.20335537     0.39327954
 C     15  14  13     1.396443563906   119.77990362   359.61865988
 C     16  15  14     1.392950133177   120.12627032   359.79694213
 H     13   7   3     1.085517004120   119.75725034     2.17890224
 H     14  13   7     1.086476795607   119.65987214   180.45550880
 H     15  14  13     1.086443599768   120.11611573   180.07062138
 H     16  15  14     1.086437680812   120.12996905   180.38926888
 H     17  16  15     1.085970415804   120.29490122   181.30616847
 C      9   3   1     1.401465900990   117.54756577    38.71278201
 C     23   9   3     1.391880954804   120.22220890   178.95920467
 C     24  23   9     1.396632644740   120.00849461     0.76629328
 C     25  24  23     1.394986806912   119.99114663   359.94047337
 C     26  25  24     1.395277938169   120.13014470   359.59454838
 H     23   9   3     1.086994043308   119.28288780   357.69523632
 H     24  23   9     1.086330555554   119.82369727   179.72803905
 H     25  24  23     1.086427176559   120.00030433   179.23154526
 H     26  25  24     1.086505078647   120.12281742   179.23296441
 H     27  26  25     1.085986801276   120.13009380   179.54379502
 C      8   3   1     1.403981664323   117.93762956    46.91908620
 C     33   8   3     1.392753857050   120.00440915   179.96392340
 C     34  33   8     1.397000277349   120.29029753     0.62777363
 C     35  34  33     1.394493972729   119.84827752   359.74530276
 C     36  35  34     1.395707411548   120.17360413   359.84387374
 H     33   8   3     1.087436583582   119.29461448     0.00000000
 H     34  33   8     1.086549259357   119.59818563   180.18509434
 H     35  34  33     1.086565568507   120.10850415   179.53504400
 H     36  35  34     1.086571997822   120.17344383   179.84223614
 H     37  36  35     1.085526692321   119.87219591   180.10519873
 C     12   2   1     1.400242813048   122.11035621   222.45359428
 C     43  12   2     1.395705033558   120.28088791   181.65678806
 C     44  43  12     1.394358796986   120.21561404     0.48444701
 C     45  44  43     1.396783156961   119.77482488   359.54402726
 C     46  45  44     1.392562889144   120.11039039   359.76950852
 H     43  12   2     1.085454118461   119.77193331     1.92144314
 H     44  43  12     1.086438958746   119.64315136   180.47883602
 H     45  44  43     1.086407445547   120.12471973   179.97483472
 H     46  45  44     1.086431162166   120.12884899   180.34087972
 H     47  46  45     1.086246844958   120.25356306   181.30496413
 C     10   2   1     1.400726847400   122.41631937   225.72440542
 C     53  10   2     1.395527877296   120.13383855   180.28238152
 C     54  53  10     1.394573360639   120.16030917     0.17610373
 C     55  54  53     1.396911237300   119.85177045   359.81679258
 C     56  55  54     1.392904200735   120.30139682   359.79824218
 H     53  10   2     1.085519009369   120.00139571     0.32483229
 H     54  53  10     1.086568041745   119.65241460   180.14770669
 H     55  54  53     1.086546208640   120.03489159   180.01699768
 H     56  55  54     1.086506679603   120.10076697   180.19369707
 H     57  56  55     1.087389835833   120.71001166   180.44286715
 C     11   2   1     1.401349594671   117.70577026    35.54878052
 C     63  11   2     1.392214643763   120.20483192   178.69125724
 C     64  63  11     1.396476907021   120.01613499     0.71407556
 C     65  64  63     1.395186947182   119.99782435     0.00000000
 C     66  65  64     1.395059873193   120.11766724   359.59213207
 H     63  11   2     1.087023530753   119.25378599   357.45762701
 H     64  63  11     1.086323264768   119.81517582   179.72500257
 H     65  64  63     1.086455778100   120.00756179   179.30181581
 H     66  65  64     1.086487922551   120.12813246   179.23434248
 H     67  66  65     1.086039048751   120.12957891   179.53830482

---------------------------
INTERNAL COORDINATES (A.U.)
---------------------------
 Rh     0   0   0     0.000000000000     0.00000000     0.00000000
 P      1   0   0     4.336448269229     0.00000000     0.00000000
 P      1   2   0     4.335769123599   175.46790937     0.00000000
 H      1   2   3     2.919153878116    87.60182724    20.27659786
 H      1   2   4     2.919776069811    88.62653194   292.34270864
 Cl     1   2   4     4.527354232825    92.28991802   145.80580958
 C      3   1   4     3.459733834804   116.40245330   310.16438078
 C      3   1   4     3.459003600054   113.77426055    69.89215437
 C      3   1   4     3.447211255581   114.32655176   189.38302179
 C      2   1   4     3.459208510387   115.16556931   140.42172529
 C      2   1   4     3.447702029643   113.76730973   260.35690386
 C      2   1   4     3.459573526622   115.78948979    20.28869998
 C      7   3   1     2.647192445977   121.85418118   217.68935157
 C     13   7   3     2.636808587919   120.29196881   181.87192107
 C     14  13   7     2.635515463348   120.20335537     0.39327954
 C     15  14  13     2.638895897259   119.77990362   359.61865988
 C     16  15  14     2.632294269913   120.12627032   359.79694213
 H     13   7   3     2.051329851502   119.75725034     2.17890224
 H     14  13   7     2.053143594558   119.65987214   180.45550880
 H     15  14  13     2.053080863513   120.11611573   180.07062138
 H     16  15  14     2.053069678308   120.12996905   180.38926888
 H     17  16  15     2.052186675410   120.29490122   181.30616847
 C      9   3   1     2.648386738900   117.54756577    38.71278201
 C     23   9   3     2.630273815600   120.22220890   178.95920467
 C     24  23   9     2.639253208253   120.00849461     0.76629328
 C     25  24  23     2.636143025497   119.99114663   359.94047337
 C     26  25  24     2.636693183842   120.13014470   359.59454838
 H     23   9   3     2.054121051055   119.28288780   357.69523632
 H     24  23   9     2.052867240908   119.82369727   179.72803905
 H     25  24  23     2.053049828146   120.00030433   179.23154526
 H     26  25  24     2.053197041757   120.12281742   179.23296441
 H     27  26  25     2.052217639464   120.13009380   179.54379502
 C      8   3   1     2.653140842617   117.93762956    46.91908620
 C     33   8   3     2.631923361788   120.00440915   179.96392340
 C     34  33   8     2.639947933202   120.29029753     0.62777363
 C     35  34  33     2.635211703861   119.84827752   359.74530276
 C     36  35  34     2.637504770910   120.17360413   359.84387374
 H     33   8   3     2.054957330977   119.29461448     0.00000000
 H     34  33   8     2.053280531200   119.59818563   180.18509434
 H     35  34  33     2.053311351027   120.10850415   179.53504400
 H     36  35  34     2.053323500670   120.17344383   179.84223614
 H     37  36  35     2.051348159549   119.87219591   180.10519873
 C     12   2   1     2.646075437653   122.11035621   222.45359428
 C     43  12   2     2.637500277159   120.28088791   181.65678806
 C     44  43  12     2.634956258727   120.21561404     0.48444701
 C     45  44  43     2.639537635130   119.77482488   359.54402726
 C     46  45  44     2.631562484744   120.11039039   359.76950852
 H     43  12   2     2.051211014829   119.77193331     1.92144314
 H     44  43  12     2.053072093252   119.64315136   180.47883602
 H     45  44  43     2.053012541938   120.12471973   179.97483472
 H     46  45  44     2.053057359852   120.12884899   180.34087972
 H     47  46  45     2.052709050807   120.25356306   181.30496413
 C     10   2   1     2.646990130017   122.41631937   225.72440542
 C     53  10   2     2.637165500342   120.13383855   180.28238152
 C     54  53  10     2.635361725271   120.16030917     0.17610373
 C     55  54  53     2.639779671893   119.85177045   359.81679258
 C     56  55  54     2.632207470178   120.30139682   359.79824218
 H     53  10   2     2.051333640873   120.00139571     0.32483229
 H     54  53  10     2.053316024770   119.65241460   180.14770669
 H     55  54  53     2.053274766179   120.03489159   180.01699768
 H     56  55  54     2.053200067125   120.10076697   180.19369707
 H     57  56  55     2.054868990534   120.71001166   180.44286715
 C     11   2   1     2.648166951810   117.70577026    35.54878052
 C     63  11   2     2.630904396347   120.20483192   178.69125724
 C     64  63  11     2.638958906614   120.01613499     0.71407556
 C     65  64  63     2.636521235795   119.99782435     0.00000000
 C     66  65  64     2.636281100758   120.11766724   359.59213207
 H     63  11   2     2.054176774251   119.25378599   357.45762701
 H     64  63  11     2.052853463319   119.81517582   179.72500257
 H     65  64  63     2.053103877225   120.00756179   179.30181581
 H     66  65  64     2.053164621435   120.12813246   179.23434248
 H     67  66  65     2.052316372883   120.12957891   179.53830482

---------------------
BASIS SET INFORMATION
---------------------
There are 5 groups of distinct atoms

 Group   1 Type Rh  : 7s7p6d2f1g contracted to 6s4p3d2f1g pattern {211111/4111/411/11/1}
 Group   2 Type P   : 15s9p4d1f contracted to 6s5p4d1f pattern {732111/51111/1111/1}
 Group   3 Type H   : 5s3p1d contracted to 3s3p1d pattern {311/111/1}
 Group   4 Type Cl  : 15s10p4d1f contracted to 6s6p4d1f pattern {732111/511111/1111/1}
 Group   5 Type C   : 12s6p3d1f contracted to 6s3p3d1f pattern {621111/411/111/1}

Atom   0Rh   basis set group =>   1
Atom   1P    basis set group =>   2
Atom   2P    basis set group =>   2
Atom   3H    basis set group =>   3
Atom   4H    basis set group =>   3
Atom   5Cl   basis set group =>   4
Atom   6C    basis set group =>   5
Atom   7C    basis set group =>   5
Atom   8C    basis set group =>   5
Atom   9C    basis set group =>   5
Atom  10C    basis set group =>   5
Atom  11C    basis set group =>   5
Atom  12C    basis set group =>   5
Atom  13C    basis set group =>   5
Atom  14C    basis set group =>   5
Atom  15C    basis set group =>   5
Atom  16C    basis set group =>   5
Atom  17H    basis set group =>   3
Atom  18H    basis set group =>   3
Atom  19H    basis set group =>   3
Atom  20H    basis set group =>   3
Atom  21H    basis set group =>   3
Atom  22C    basis set group =>   5
Atom  23C    basis set group =>   5
Atom  24C    basis set group =>   5
Atom  25C    basis set group =>   5
Atom  26C    basis set group =>   5
Atom  27H    basis set group =>   3
Atom  28H    basis set group =>   3
Atom  29H    basis set group =>   3
Atom  30H    basis set group =>   3
Atom  31H    basis set group =>   3
Atom  32C    basis set group =>   5
Atom  33C    basis set group =>   5
Atom  34C    basis set group =>   5
Atom  35C    basis set group =>   5
Atom  36C    basis set group =>   5
Atom  37H    basis set group =>   3
Atom  38H    basis set group =>   3
Atom  39H    basis set group =>   3
Atom  40H    basis set group =>   3
Atom  41H    basis set group =>   3
Atom  42C    basis set group =>   5
Atom  43C    basis set group =>   5
Atom  44C    basis set group =>   5
Atom  45C    basis set group =>   5
Atom  46C    basis set group =>   5
Atom  47H    basis set group =>   3
Atom  48H    basis set group =>   3
Atom  49H    basis set group =>   3
Atom  50H    basis set group =>   3
Atom  51H    basis set group =>   3
Atom  52C    basis set group =>   5
Atom  53C    basis set group =>   5
Atom  54C    basis set group =>   5
Atom  55C    basis set group =>   5
Atom  56C    basis set group =>   5
Atom  57H    basis set group =>   3
Atom  58H    basis set group =>   3
Atom  59H    basis set group =>   3
Atom  60H    basis set group =>   3
Atom  61H    basis set group =>   3
Atom  62C    basis set group =>   5
Atom  63C    basis set group =>   5
Atom  64C    basis set group =>   5
Atom  65C    basis set group =>   5
Atom  66C    basis set group =>   5
Atom  67H    basis set group =>   3
Atom  68H    basis set group =>   3
Atom  69H    basis set group =>   3
Atom  70H    basis set group =>   3
Atom  71H    basis set group =>   3
----------------------------------
AUXILIARY/JK BASIS SET INFORMATION
----------------------------------
There are 5 groups of distinct atoms

 Group   1 Type Rh  : 13s12p10d9f6g3h2i contracted to 11s10p9d8f6g3h2i pattern {31111111111/3111111111/211111111/21111111/111111/111/11}
 Group   2 Type P   : 16s12p10d4f1g contracted to 13s11p9d4f1g pattern {4111111111111/21111111111/211111111/1111/1}
 Group   3 Type H   : 4s2p2d contracted to 2s2p2d pattern {31/11/11}
 Group   4 Type Cl  : 16s12p10d4f1g contracted to 13s11p9d4f1g pattern {4111111111111/21111111111/211111111/1111/1}
 Group   5 Type C   : 14s10p6d2f1g contracted to 10s8p5d1f1g pattern {5111111111/31111111/21111/2/1}

Atom   0Rh   basis set group =>   1
Atom   1P    basis set group =>   2
Atom   2P    basis set group =>   2
Atom   3H    basis set group =>   3
Atom   4H    basis set group =>   3
Atom   5Cl   basis set group =>   4
Atom   6C    basis set group =>   5
Atom   7C    basis set group =>   5
Atom   8C    basis set group =>   5
Atom   9C    basis set group =>   5
Atom  10C    basis set group =>   5
Atom  11C    basis set group =>   5
Atom  12C    basis set group =>   5
Atom  13C    basis set group =>   5
Atom  14C    basis set group =>   5
Atom  15C    basis set group =>   5
Atom  16C    basis set group =>   5
Atom  17H    basis set group =>   3
Atom  18H    basis set group =>   3
Atom  19H    basis set group =>   3
Atom  20H    basis set group =>   3
Atom  21H    basis set group =>   3
Atom  22C    basis set group =>   5
Atom  23C    basis set group =>   5
Atom  24C    basis set group =>   5
Atom  25C    basis set group =>   5
Atom  26C    basis set group =>   5
Atom  27H    basis set group =>   3
Atom  28H    basis set group =>   3
Atom  29H    basis set group =>   3
Atom  30H    basis set group =>   3
Atom  31H    basis set group =>   3
Atom  32C    basis set group =>   5
Atom  33C    basis set group =>   5
Atom  34C    basis set group =>   5
Atom  35C    basis set group =>   5
Atom  36C    basis set group =>   5
Atom  37H    basis set group =>   3
Atom  38H    basis set group =>   3
Atom  39H    basis set group =>   3
Atom  40H    basis set group =>   3
Atom  41H    basis set group =>   3
Atom  42C    basis set group =>   5
Atom  43C    basis set group =>   5
Atom  44C    basis set group =>   5
Atom  45C    basis set group =>   5
Atom  46C    basis set group =>   5
Atom  47H    basis set group =>   3
Atom  48H    basis set group =>   3
Atom  49H    basis set group =>   3
Atom  50H    basis set group =>   3
Atom  51H    basis set group =>   3
Atom  52C    basis set group =>   5
Atom  53C    basis set group =>   5
Atom  54C    basis set group =>   5
Atom  55C    basis set group =>   5
Atom  56C    basis set group =>   5
Atom  57H    basis set group =>   3
Atom  58H    basis set group =>   3
Atom  59H    basis set group =>   3
Atom  60H    basis set group =>   3
Atom  61H    basis set group =>   3
Atom  62C    basis set group =>   5
Atom  63C    basis set group =>   5
Atom  64C    basis set group =>   5
Atom  65C    basis set group =>   5
Atom  66C    basis set group =>   5
Atom  67H    basis set group =>   3
Atom  68H    basis set group =>   3
Atom  69H    basis set group =>   3
Atom  70H    basis set group =>   3
Atom  71H    basis set group =>   3
-------------------------
ECP PARAMETER INFORMATION
-------------------------

 Group 1, Type Rh ECP Def2-ECP (replacing 28 core electrons, lmax=3)

Atom   0Rh   ECP group =>   1



           ************************************************************
           *        Program running with 24 parallel MPI-processes    *
           *              working on a common directory               *
           ************************************************************
------------------------------------------------------------------------------
                           ORCA GTO INTEGRAL CALCULATION
------------------------------------------------------------------------------

                         BASIS SET STATISTICS AND STARTUP INFO

 # of primitive gaussian shells          ... 1191
 # of primitive gaussian functions       ... 2771
 # of contracted shells                  ...  757
 # of contracted basis functions         ... 2079
 Highest angular momentum                ...    4
 Maximum contraction depth               ...    7
 Integral package used                   ... LIBINT
 Integral threshhold            Thresh   ...  1.000e-10
 Primitive cut-off              TCut     ...  1.000e-11


------------------------------ INTEGRAL EVALUATION ----------------------------


 * One electron integrals 

   ECP integrals                         ... done
 Pre-screening matrix                    ... done
 Shell pair data                         ... done (   0.059 sec)



           ************************************************************
           *        Program running with 24 parallel MPI-processes    *
           *              working on a common directory               *
           ************************************************************
-------------------------------------------------------------------------------
                                 ORCA SCF
-------------------------------------------------------------------------------

------------
SCF SETTINGS
------------
Hamiltonian:
 Density Functional     Method          .... DFT(GTOs)
 Exchange Functional    Exchange        .... M06
 Correlation Functional Correlation     .... M06
 Gradients option       PostSCFGGA      .... off
 Hybrid DFT is turned on
   Fraction HF Exchange ScalHFX         ....  0.270000
   Scaling of DF-GGA-X  ScalDFX         ....  0.730000
   Scaling of DF-GGA-C  ScalDFC         ....  1.000000
   Scaling of DF-LDA-C  ScalLDAC        ....  1.000000
   Perturbative correction              ....  0.000000
   Density functional embedding theory  .... OFF


General Settings:
 Integral files         IntName         .... MOR28_pr09
 Hartree-Fock type      HFTyp           .... RHF
 Total Charge           Charge          ....    0
 Multiplicity           Mult            ....    1
 Number of Electrons    NEL             ....  312
 Basis Dimension        Dim             .... 2079
 Nuclear Repulsion      ENuc            ....   5365.2837436785 Eh

Convergence Acceleration:
 DIIS                   CNVDIIS         .... on
   Start iteration      DIISMaxIt       ....    12
   Startup error        DIISStart       ....  0.200000
   # of expansion vecs  DIISMaxEq       ....     5
   Bias factor          DIISBfac        ....   1.050
   Max. coefficient     DIISMaxC        ....  10.000
 Newton-Raphson         CNVNR           .... off
 SOSCF                  CNVSOSCF        .... off
 Level Shifting         CNVShift        .... on
   Level shift para.    LevelShift      ....    0.2500
   Turn off err/grad.   ShiftErr        ....    0.0010
 Zerner damping         CNVZerner       .... off
 Static damping         CNVDamp         .... on
   Fraction old density DampFac         ....    0.7000
   Max. Damping (<1)    DampMax         ....    0.9800
   Min. Damping (>=0)   DampMin         ....    0.0000
   Turn off err/grad.   DampErr         ....    0.1000
 Fernandez-Rico         CNVRico         .... off

SCF Procedure:
 Maximum # iterations   MaxIter         ....   125
 SCF integral mode      SCFMode         .... Direct
   Integral package                     .... LIBINT
 Reset frequency        DirectResetFreq ....    20
 Integral Threshold     Thresh          ....  1.000e-10 Eh
 Primitive CutOff       TCut            ....  1.000e-11 Eh

Convergence Tolerance:
 Convergence Check Mode ConvCheckMode   .... Total+1el-Energy
 Convergence forced     ConvForced      .... 0
 Energy Change          TolE            ....  1.000e-06 Eh
 1-El. energy change                    ....  1.000e-03 Eh
 DIIS Error             TolErr          ....  1.000e-06


Diagonalization of the overlap matrix:
Smallest eigenvalue                        ... 2.955e-07
Time for diagonalization                   ...    0.593 sec
Threshold for overlap eigenvalues          ... 1.000e-08
Number of eigenvalues below threshold      ... 0
Time for construction of square roots      ...    0.546 sec
Total time needed                          ...    1.151 sec

-------------------
DFT GRID GENERATION
-------------------

General Integration Accuracy     IntAcc      ...  4.670
Radial Grid Type                 RadialGrid  ... Gauss-Chebyshev
Angular Grid (max. acc.)         AngularGrid ... Lebedev-302
Angular grid pruning method      GridPruning ... 3 (G Style)
Weight generation scheme         WeightScheme... Becke
Basis function cutoff            BFCut       ...    1.0000e-10
Integration weight cutoff        WCut        ...    1.0000e-14
Grids for H and He will be reduced by one unit

# of grid points (after initial pruning)     ... 363268 (   0.0 sec)
# of grid points (after weights+screening)   ... 308893 (   0.5 sec)
nearest neighbour list constructed           ...    0.0 sec
Grid point re-assignment to atoms done       ...    0.0 sec
Grid point division into batches done        ...    0.9 sec
Reduced shell lists constructed in    1.6 sec

Total number of grid points                  ...   308893
Total number of batches                      ...     4862
Average number of points per batch           ...       63
Average number of grid points per atom       ...     4290
Average number of shells per batch           ...   367.94 (48.60%)
Average number of basis functions per batch  ...   982.58 (47.26%)
Average number of large shells per batch     ...   246.85 (67.09%)
Average number of large basis fcns per batch ...   663.85 (67.56%)
Maximum spatial batch extension              ...   2.39,  2.29,  2.72 au
Average spatial batch extension              ...   0.04,  0.04,  0.04 au

Time for grid setup =    2.260 sec

------------------------------
INITIAL GUESS: MODEL POTENTIAL
------------------------------
Loading Hartree-Fock densities                     ... done
  calling /sw/apps/orca/orca_4_2_0_linux_x86-64_openmpi314/orca MOR28_pr09_atom45.inp > MOR28_pr09_atom45.out in order to generate an atomic fitting density for atom 0 (Rh with ECP) on-the-fly... 
    atom 0 (Rh), assumed electronic state with S=4: 1s2 2s2 2p6 3s2 3p6 4s2 3d10 4p6 5s2 4d7           ... done
Calculating cut-offs                               ... done
Setting up the integral package                    ... done
Initializing the effective Hamiltonian             ... done
Starting the Coulomb interaction                   ... done (   0.9 sec)
Reading the grid                                   ... done
Mapping shells                                     ... done
Starting the XC term evaluation                    ... done (   1.8 sec)
  promolecular density results
     # of electrons  =    339.984399097
     EX              =   -399.586790270
     EC              =    -12.469204043
     EX+EC           =   -412.055994313
Transforming the Hamiltonian                       ... done (   0.3 sec)
Diagonalizing the Hamiltonian                      ... done (   0.5 sec)
Back transforming the eigenvectors                 ... done (   0.2 sec)
Now organizing SCF variables                       ... done
                      ------------------
                      INITIAL GUESS DONE (   7.8 sec)
                      ------------------
--------------
SCF ITERATIONS
--------------
ITER       Energy         Delta-E        Max-DP      RMS-DP      [F,P]     Damp
               ***  Starting incremental Fock matrix formation  ***
  0  -2643.2922524856   0.000000000000 2.64328142  0.00702828  0.4581102 0.7000
  1  -2643.6403908793  -0.348138393763 2.61352540  0.00670787  0.3091573 0.7000
  2  -2643.7905493620  -0.150158482703 1.90949549  0.00450942  0.2118252 0.7000
                               ***Turning on DIIS***
  3  -2643.8756098177  -0.085060455634 1.30421493  0.00353574  0.1492425 0.7000
  4  -2643.9347150521  -0.059105234422 2.51494118  0.01217707  0.1059373 0.7000
  5  -2643.9765682419  -0.041853189775549264.07277138 2319.11440584  0.0738158 0.0000
  6 -1698690.2797139531-1696046.3031457113106316.76459975 22.79180744 18.2176992 0.7000
  7 -1677238.685025798421451.5946881547575391.20772425 19.71658603 18.5298461 0.7000
  8 -1659731.365502469717507.319523328682632.50458591  3.58610228 18.7373069 0.7000
  9 -1662150.3764960030-2419.01099353330223177.87207292 80.60300802 18.6876101 0.7000
 10 -1596354.965410295465795.411085707601361549.32765783 1138.10965039 18.9031701 0.7000
 11 -2337445.9785984349-741091.013188139535251447.39849010 790.79264409 15.5157579 0.7000
 12 -2929721.9043931388-592275.925794703886177669.77557985 558.05617260 12.0016393 0.7000
 13 -3387325.7921230877-457603.887729948852125845.56233596 394.21890460  8.9474469 0.7000
 14 -3730319.2115482935-342993.41942520579388654.88451226 277.22633658  6.5348770 0.7000
 15 -3981455.1072938009-251135.89574550744162366.72223960 194.74466213  4.7083949 0.7000
 16 -4162675.0157816475-181219.90848784660943656.09350371 136.19994501  3.3646433 0.7000
 17 -4292144.5438250639-129469.52804341632930514.50446340 95.18238194  2.3866791 0.7000
 18 -4384080.5150452582-91935.97122019436221333.44169124 66.55327181  1.6856769 0.7000
 19 -4449078.4288837397-64997.91383848153114920.41691740 46.55718222  1.1874328 0.7000
               *** Restarting incremental Fock matrix formation ***
                                   *** Resetting DIIS ***
 20 -4494891.0152007425-45812.58631700277310367.17018738 32.47390701  0.8349366 0.7000
 21 -4527119.1943036085-32228.1791028659797245.79558866 22.65489738  0.5869206 0.7000
 22 -4549746.5472958218-22627.3529922133315105.01870845 15.95405525  0.4099820 0.7000
 23 -4565622.1742256200-15875.6269297981633593.20366863 11.22965841  0.2867254 0.7000
 24 -4576753.5341261113-11131.3599004913122525.83552792  7.89620783  0.2005335 0.7000
 25 -4584554.7980398498-7801.2639137385411776.77284400  5.55828501  0.1402190 0.7000
 26 -4590020.3674814003-5465.5694415504114158.13170889 13.02300173  0.0980855 0.0000
 27 -4602789.1882518334-12768.82077043317372.65071681  0.28338165  0.0936516 0.0000
 28 -4602789.2593896752  -0.07113784179138.56725595  0.13879143  0.0035450 0.0000
 29 -4602789.2768357247  -0.01744604948921.30777096  0.07624963  0.0002745 0.0000
 30 -4602789.2787531232  -0.00191739853514.98485223  0.04813277  0.0000813 0.0000
 31 -4602789.2838690095  -0.005115886219 1.59287948  0.00807204  0.0000234 0.0000
 32 -4602789.2615510533   0.022317956202 1.34366441  0.00472637  0.0000101 0.0000
 33 -4602789.2966441652  -0.035093111917 0.82184083  0.00340287  0.0000040 0.0000
                            ***DIIS convergence achieved***

               *****************************************************
               *                     SUCCESS                       *
               *           SCF CONVERGED AFTER  34 CYCLES          *
               *****************************************************


----------------
TOTAL SCF ENERGY
----------------

Total Energy       :     -4602789.29982234 Eh      -125248264.34688 eV

Components:
Nuclear Repulsion  :         5365.28374368 Eh          145996.79300 eV
Electronic Energy  :     -4608154.58356602 Eh      -125394261.13988 eV
One Electron Energy:        -9386.15287927 Eh         -255410.20465 eV
Two Electron Energy:     -4598768.43068675 Eh      -125138850.93523 eV

Virial components:
Potential Energy   :     -4604206.94922056 Eh      -125286840.54819 eV
Kinetic Energy     :         1417.64939822 Eh           38576.20130 eV
Virial Ratio       :         3247.77547607


DFT components:
N(Alpha)           :      156.137511668877 electrons
N(Beta)            :      156.137511668877 electrons
N(Total)           :      312.275023337754 electrons
E(XC)              :      -98.520682061068 Eh       
DFET-embed. en.    :        0.000000000000 Eh       

---------------
SCF CONVERGENCE
---------------

  Last Energy change         ...   -3.1782e-03  Tolerance :   1.0000e-06
  Last MAX-Density change    ...    1.5133e-01  Tolerance :   1.0000e-05
  Last RMS-Density change    ...    7.9403e-04  Tolerance :   1.0000e-06
  Last DIIS Error            ...    1.0311e-06  Tolerance :   1.0000e-06

================================================================================
                                        WARNING
Check your MOs and check whether a frozen core calculation is appropriate
MO 0 should be a C  d core orbital but seems to be delocalized with a C  p orbital (51.5% vs. 47.3%)
================================================================================
================================================================================
                                        WARNING
Check your MOs and check whether a frozen core calculation is appropriate
MO 1 should be a C  d core orbital but seems to be delocalized with a C  p orbital (51.3% vs. 47.0%)
================================================================================
================================================================================
                                        WARNING
Check your MOs and check whether a frozen core calculation is appropriate
MO 2 should be a C  d core orbital but seems to be delocalized with a C  p orbital (63.3% vs. 31.5%)
================================================================================
================================================================================
                                        WARNING
Check your MOs and check whether a frozen core calculation is appropriate
MO 3 should be a C  d core orbital but seems to be delocalized with a C  p orbital (67.8% vs. 26.1%)
================================================================================
================================================================================
                                        WARNING
Check your MOs and check whether a frozen core calculation is appropriate
MO 4 should be a C  d core orbital but seems to be delocalized with a C  p orbital (63.2% vs. 29.6%)
================================================================================
================================================================================
                                        WARNING
Check your MOs and check whether a frozen core calculation is appropriate
MO 5 should be a C  d core orbital but seems to be delocalized with a C  p orbital (74.1% vs. 25.5%)
================================================================================
================================================================================
                                        WARNING
Check your MOs and check whether a frozen core calculation is appropriate
MO 6 should be a C  d core orbital but seems to be delocalized with a C  p orbital (68.9% vs. 18.8%)
================================================================================
================================================================================
                                        WARNING
Check your MOs and check whether a frozen core calculation is appropriate
MO 7 should be a C  d core orbital but seems to be delocalized with a C  s orbital (80.4% vs. 14.4%)
================================================================================
================================================================================
                                        WARNING
Check your MOs and check whether a frozen core calculation is appropriate
MO 8 should be a C  d core orbital but seems to be delocalized with a C  s orbital (75.6% vs. 12.9%)
================================================================================
================================================================================
                                        WARNING
Check your MOs and check whether a frozen core calculation is appropriate
MO 9 should be a C  d core orbital but seems to be delocalized with a C  p orbital (73.2% vs. 24.1%)
================================================================================
================================================================================
                                        WARNING
Check your MOs and check whether a frozen core calculation is appropriate
MO 10 should be a C  d core orbital but seems to be delocalized with a C  p orbital (70.3% vs. 23.2%)
================================================================================
================================================================================
                                        WARNING
Check your MOs and check whether a frozen core calculation is appropriate
MO 11 should be a C  d core orbital but seems to be delocalized with a C  p orbital (66.6% vs. 25.9%)
================================================================================
================================================================================
                                        WARNING
Check your MOs and check whether a frozen core calculation is appropriate
MO 12 should be a C  d core orbital but seems to be delocalized with a C  p orbital (62.3% vs. 29.4%)
================================================================================
================================================================================
                                        WARNING
Check your MOs and check whether a frozen core calculation is appropriate
MO 13 should be a C  d core orbital but seems to be delocalized with a C  p orbital (71.9% vs. 15.0%)
================================================================================
================================================================================
                                        WARNING
Check your MOs and check whether a frozen core calculation is appropriate
MO 14 should be a C  d core orbital but seems to be delocalized with a C  p orbital (64.2% vs. 21.7%)
================================================================================
================================================================================
                                        WARNING
Check your MOs and check whether a frozen core calculation is appropriate
MO 15 should be a C  d core orbital but seems to be delocalized with a C  p orbital (59.4% vs. 19.4%)
================================================================================
================================================================================
                                        WARNING
Check your MOs and check whether a frozen core calculation is appropriate
MO 16 should be a C  d core orbital but seems to be delocalized with a C  p orbital (68.4% vs. 20.3%)
================================================================================
================================================================================
                                        WARNING
Check your MOs and check whether a frozen core calculation is appropriate
MO 17 should be a C  d core orbital but seems to be delocalized with a C  p orbital (61.6% vs. 20.4%)
================================================================================
================================================================================
                                        WARNING
Check your MOs and check whether a frozen core calculation is appropriate
MO 18 should be a C  d core orbital but seems to be delocalized with a C  p orbital (65.6% vs. 24.9%)
================================================================================
================================================================================
                                        WARNING
Check your MOs and check whether a frozen core calculation is appropriate
MO 19 should be a C  d core orbital but seems to be delocalized with a C  p orbital (55.7% vs. 32.8%)
================================================================================
================================================================================
                                        WARNING
Check your MOs and check whether a frozen core calculation is appropriate
MO 20 should be a C  d core orbital but seems to be delocalized with a C  p orbital (54.3% vs. 22.5%)
================================================================================
================================================================================
                                        WARNING
Check your MOs and check whether a frozen core calculation is appropriate
MO 21 should be a C  d core orbital but seems to be delocalized with a C  p orbital (69.0% vs. 13.9%)
================================================================================
================================================================================
                                        WARNING
Check your MOs and check whether a frozen core calculation is appropriate
MO 22 should be a C  d core orbital but seems to be delocalized with a C  p orbital (56.6% vs. 24.6%)
================================================================================
================================================================================
                                        WARNING
Check your MOs and check whether a frozen core calculation is appropriate
MO 23 should be a C  d core orbital but seems to be delocalized with a C  p orbital (52.2% vs. 24.9%)
================================================================================
================================================================================
                                        WARNING
Check your MOs and check whether a frozen core calculation is appropriate
MO 24 should be a C  d core orbital but seems to be delocalized with a C  p orbital (58.4% vs. 12.7%)
================================================================================
================================================================================
                                        WARNING
Check your MOs and check whether a frozen core calculation is appropriate
MO 25 should be a C  d core orbital but seems to be delocalized with a C  p orbital (51.9% vs. 25.1%)
================================================================================
================================================================================
                                        WARNING
Check your MOs and check whether a frozen core calculation is appropriate
MO 26 should be a C  d core orbital but seems to be delocalized with a C  p orbital (42.0% vs. 19.6%)
================================================================================
================================================================================
                                        WARNING
Check your MOs and check whether a frozen core calculation is appropriate
MO 27 should be a C  d core orbital but seems to be delocalized with a C  p orbital (55.7% vs. 12.4%)
================================================================================
================================================================================
                                        WARNING
Check your MOs and check whether a frozen core calculation is appropriate
MO 28 should be a C  d core orbital but seems to be delocalized with a C  p orbital (62.2% vs. 15.7%)
================================================================================
================================================================================
                                        WARNING
Check your MOs and check whether a frozen core calculation is appropriate
MO 29 should be a C  d core orbital but seems to be delocalized with a P  d orbital (38.8% vs. 15.7%)
================================================================================
================================================================================
                                        WARNING
Check your MOs and check whether a frozen core calculation is appropriate
MO 30 should be a C  d core orbital but seems to be delocalized with a C  s orbital (54.8% vs. 15.2%)
================================================================================
================================================================================
                                        WARNING
Check your MOs and check whether a frozen core calculation is appropriate
MO 31 should be a C  d core orbital but seems to be delocalized with a C  p orbital (53.7% vs. 23.8%)
================================================================================
================================================================================
                                        WARNING
Check your MOs and check whether a frozen core calculation is appropriate
MO 32 should be a C  d core orbital but seems to be delocalized with a C  s orbital (46.9% vs. 15.4%)
================================================================================
================================================================================
                                        WARNING
Check your MOs and check whether a frozen core calculation is appropriate
MO 33 should be a C  d core orbital but seems to be delocalized with a C  p orbital (46.6% vs. 16.5%)
================================================================================
================================================================================
                                        WARNING
Check your MOs and check whether a frozen core calculation is appropriate
MO 34 should be a C  d core orbital but seems to be delocalized with a C  p orbital (49.2% vs. 22.4%)
================================================================================
================================================================================
                                        WARNING
Check your MOs and check whether a frozen core calculation is appropriate
MO 35 should be a C  d core orbital but seems to be delocalized with a C  s orbital (52.7% vs. 13.7%)
================================================================================
*** Error in `/sw/apps/orca/orca_4_2_0_linux_x86-64_openmpi314/orca_scf_mpi': free(): invalid next size (fast): 0x000000000baa63e0 ***
*** Error in `/sw/apps/orca/orca_4_2_0_linux_x86-64_openmpi314/orca_scf_mpi': corrupted size vs. prev_size: 0x000000000a03c1f0 ***
*** Error in `/sw/apps/orca/orca_4_2_0_linux_x86-64_openmpi314/orca_scf_mpi': free(): invalid next size (fast): 0x000000000a7b04c0 ***
*** Error in `/sw/apps/orca/orca_4_2_0_linux_x86-64_openmpi314/orca_scf_mpi': corrupted size vs. prev_size: 0x000000000a2bb9d0 ***
*** Error in `/sw/apps/orca/orca_4_2_0_linux_x86-64_openmpi314/orca_scf_mpi': free(): invalid next size (fast): 0x000000000add9ba0 ***
*** Error in `/sw/apps/orca/orca_4_2_0_linux_x86-64_openmpi314/orca_scf_mpi': free(): invalid next size (fast): 0x000000000b2eac60 ***
*** Error in `/sw/apps/orca/orca_4_2_0_linux_x86-64_openmpi314/orca_scf_mpi': corrupted size vs. prev_size: 0x000000000b9b3e30 ***
*** Error in `/sw/apps/orca/orca_4_2_0_linux_x86-64_openmpi314/orca_scf_mpi': free(): invalid next size (fast): 0x000000000a4df240 ***
*** Error in `/sw/apps/orca/orca_4_2_0_linux_x86-64_openmpi314/orca_scf_mpi': corrupted size vs. prev_size: 0x000000000bf15230 ***
*** Error in `/sw/apps/orca/orca_4_2_0_linux_x86-64_openmpi314/orca_scf_mpi': corrupted size vs. prev_size: 0x000000000a98aa70 ***
*** Error in `/sw/apps/orca/orca_4_2_0_linux_x86-64_openmpi314/orca_scf_mpi': corrupted size vs. prev_size: 0x000000000a650cd0 ***
*** Error in `/sw/apps/orca/orca_4_2_0_linux_x86-64_openmpi314/orca_scf_mpi': corrupted size vs. prev_size: 0x000000000a5afa30 ***
*** Error in `/sw/apps/orca/orca_4_2_0_linux_x86-64_openmpi314/orca_scf_mpi': free(): invalid next size (fast): 0x000000000a0aef20 ***
*** Error in `/sw/apps/orca/orca_4_2_0_linux_x86-64_openmpi314/orca_scf_mpi': free(): invalid next size (fast): 0x000000000add9be0 ***
*** Error in `/sw/apps/orca/orca_4_2_0_linux_x86-64_openmpi314/orca_scf_mpi': free(): invalid next size (fast): 0x000000000bdb4140 ***
*** Error in `/sw/apps/orca/orca_4_2_0_linux_x86-64_openmpi314/orca_scf_mpi': corrupted size vs. prev_size: 0x000000000b684e90 ***
*** Error in `/sw/apps/orca/orca_4_2_0_linux_x86-64_openmpi314/orca_scf_mpi': corrupted size vs. prev_size: 0x000000000ad482b0 ***
*** Error in `/sw/apps/orca/orca_4_2_0_linux_x86-64_openmpi314/orca_scf_mpi': corrupted size vs. prev_size: 0x000000000bd95770 ***
*** Error in `/sw/apps/orca/orca_4_2_0_linux_x86-64_openmpi314/orca_scf_mpi': corrupted size vs. prev_size: 0x0000000009f44f70 ***
*** Error in `/sw/apps/orca/orca_4_2_0_linux_x86-64_openmpi314/orca_scf_mpi': free(): invalid next size (fast): 0x000000000ba3f940 ***
*** Error in `/sw/apps/orca/orca_4_2_0_linux_x86-64_openmpi314/orca_scf_mpi': free(): invalid next size (fast): 0x000000000a171ae0 ***
*** Error in `/sw/apps/orca/orca_4_2_0_linux_x86-64_openmpi314/orca_scf_mpi': free(): invalid next size (fast): 0x0000000009f65620 ***
*** Error in `/sw/apps/orca/orca_4_2_0_linux_x86-64_openmpi314/orca_scf_mpi': corrupted size vs. prev_size: 0x000000000ae584b0 ***
================================================================================
                                        WARNING
Check your MOs and check whether a frozen core calculation is appropriate
MO 137 should be a P  s core orbital but seems to be delocalized with a C  s orbital (55.4% vs. 27.0%)
================================================================================
================================================================================
                                        WARNING
Check your MOs and check whether a frozen core calculation is appropriate
MO 139 should be a P  s core orbital but seems to be delocalized with a C  p orbital (32.9% vs. 27.8%)
================================================================================
================================================================================
                                        WARNING
Number of found core electrons (80) does not match given number of chemical core electrons (102)
================================================================================

================================================================================
MOs in valence range (operator=0) identified as core orbitals.
Correct this by swapping MOs
================================================================================
                                        WARNING
Number of orbitals to swap in and swap out does not match (4, 4, 15)
SKIPPING Reordering!
================================================================================
*** Error in `/sw/apps/orca/orca_4_2_0_linux_x86-64_openmpi314/orca_scf_mpi': corrupted size vs. prev_size: 0x000000000ae0a350 ***
======= Backtrace: =========
/lib64/libc.so.6(+0x80ba7)[0x2b237f799ba7]
======= Backtrace: =========
/lib64/libc.so.6(+0x80ba7)[0x2adefc59fba7]
======= Backtrace: =========
/lib64/libc.so.6(+0x81299)[0x2afcade3d299]
/sw/apps/orca/orca_4_2_0_linux_x86-64_openmpi314/orca_scf_mpi[0x787ded]
======= Backtrace: =========
/lib64/libc.so.6(+0x80ba7)[0x2ad0588ccba7]
/lib64/libc.so.6(+0x8117e)[0x2ad0588cd17e]
======= Backtrace: =========
/lib64/libc.so.6(+0x81299)[0x2b3fb9699299]
/sw/apps/orca/orca_4_2_0_linux_x86-64_openmpi314/orca_scf_mpi[0x787ded]
/sw/apps/orca/orca_4_2_0_linux_x86-64_openmpi314/orca_scf_mpi[0xf19e44]
/sw/apps/orca/orca_4_2_0_linux_x86-64_openmpi314/orca_scf_mpi[0x46eae2]
/sw/apps/orca/orca_4_2_0_linux_x86-64_openmpi314/orca_scf_mpi[0x4704f1]
/sw/apps/orca/orca_4_2_0_linux_x86-64_openmpi314/orca_scf_mpi[0x4772cc]
======= Backtrace: =========
/lib64/libc.so.6(+0x81299)[0x2b839192c299]
/sw/apps/orca/orca_4_2_0_linux_x86-64_openmpi314/orca_scf_mpi[0x787ded]
/sw/apps/orca/orca_4_2_0_linux_x86-64_openmpi314/orca_scf_mpi[0xf19e44]
/sw/apps/orca/orca_4_2_0_linux_x86-64_openmpi314/orca_scf_mpi[0x46eae2]
======= Backtrace: =========
/lib64/libc.so.6(+0x80ba7)[0x2b36390b4ba7]
/lib64/libc.so.6(+0x8117e)[0x2b36390b517e]
/sw/apps/orca/orca_4_2_0_linux_x86-64_openmpi314/orca_scf_mpi[0x73cc28]
======= Backtrace: =========
/lib64/libc.so.6(+0x81299)[0x2b2fda76c299]
======= Backtrace: =========
/lib64/libc.so.6(+0x80ba7)[0x2b2c13d74ba7]
/lib64/libc.so.6(+0x8117e)[0x2b2c13d7517e]
/sw/apps/orca/orca_4_2_0_linux_x86-64_openmpi314/orca_scf_mpi[0x73cc28]
======= Backtrace: =========
/lib64/libc.so.6(+0x81299)[0x2adfabea5299]
/sw/apps/orca/orca_4_2_0_linux_x86-64_openmpi314/orca_scf_mpi[0x787ded]
/sw/apps/orca/orca_4_2_0_linux_x86-64_openmpi314/orca_scf_mpi[0xf19e44]
/sw/apps/orca/orca_4_2_0_linux_x86-64_openmpi314/orca_scf_mpi[0x46eae2]
/sw/apps/orca/orca_4_2_0_linux_x86-64_openmpi314/orca_scf_mpi[0x4704f1]
/sw/apps/orca/orca_4_2_0_linux_x86-64_openmpi314/orca_scf_mpi[0x4772cc]
======= Backtrace: =========
/lib64/libc.so.6(+0x81299)[0x2b8592bc2299]
/sw/apps/orca/orca_4_2_0_linux_x86-64_openmpi314/orca_scf_mpi[0x787ded]
/sw/apps/orca/orca_4_2_0_linux_x86-64_openmpi314/orca_scf_mpi[0xf19e44]
/sw/apps/orca/orca_4_2_0_linux_x86-64_openmpi314/orca_scf_mpi[0x46eae2]
/sw/apps/orca/orca_4_2_0_linux_x86-64_openmpi314/orca_scf_mpi[0x4704f1]
======= Backtrace: =========
/lib64/libc.so.6(+0x81299)[0x2ab772171299]
/sw/apps/orca/orca_4_2_0_linux_x86-64_openmpi314/orca_scf_mpi[0x787ded]
/sw/apps/orca/orca_4_2_0_linux_x86-64_openmpi314/orca_scf_mpi[0xf19e44]
/sw/apps/orca/orca_4_2_0_linux_x86-64_openmpi314/orca_scf_mpi[0x46eae2]
/sw/apps/orca/orca_4_2_0_linux_x86-64_openmpi314/orca_scf_mpi[0x4704f1]
/sw/apps/orca/orca_4_2_0_linux_x86-64_openmpi314/orca_scf_mpi[0x4772cc]
======= Backtrace: =========
/lib64/libc.so.6(+0x80ba7)[0x2b8368525ba7]
/lib64/libc.so.6(+0x8117e)[0x2b836852617e]
======= Backtrace: =========
/lib64/libc.so.6(+0x80ba7)[0x2b0ffb509ba7]
/lib64/libc.so.6(+0x8117e)[0x2b0ffb50a17e]
/lib64/libc.so.6(+0x8117e)[0x2b237f79a17e]
/sw/apps/orca/orca_4_2_0_linux_x86-64_openmpi314/orca_scf_mpi[0x73cc28]
/sw/apps/orca/orca_4_2_0_linux_x86-64_openmpi314/orca_scf_mpi[0xf19f50]
/sw/apps/orca/orca_4_2_0_linux_x86-64_openmpi314/orca_scf_mpi[0x46eae2]
/sw/apps/orca/orca_4_2_0_linux_x86-64_openmpi314/orca_scf_mpi[0x4704f1]
/lib64/libc.so.6(+0x8117e)[0x2adefc5a017e]
/sw/apps/orca/orca_4_2_0_linux_x86-64_openmpi314/orca_scf_mpi[0x73cc28]
/sw/apps/orca/orca_4_2_0_linux_x86-64_openmpi314/orca_scf_mpi[0xf19f50]
/sw/apps/orca/orca_4_2_0_linux_x86-64_openmpi314/orca_scf_mpi[0x46eae2]
/sw/apps/orca/orca_4_2_0_linux_x86-64_openmpi314/orca_scf_mpi[0x4704f1]
======= Backtrace: =========
/lib64/libc.so.6(+0x81299)[0x2b46c0c18299]
/sw/apps/orca/orca_4_2_0_linux_x86-64_openmpi314/orca_scf_mpi[0x787ded]
/sw/apps/orca/orca_4_2_0_linux_x86-64_openmpi314/orca_scf_mpi[0xf19e44]
/sw/apps/orca/orca_4_2_0_linux_x86-64_openmpi314/orca_scf_mpi[0x46eae2]
/sw/apps/orca/orca_4_2_0_linux_x86-64_openmpi314/orca_scf_mpi[0x4704f1]
/sw/apps/orca/orca_4_2_0_linux_x86-64_openmpi314/orca_scf_mpi[0xf19e44]
/sw/apps/orca/orca_4_2_0_linux_x86-64_openmpi314/orca_scf_mpi[0x46eae2]
/sw/apps/orca/orca_4_2_0_linux_x86-64_openmpi314/orca_scf_mpi[0x4704f1]
/sw/apps/orca/orca_4_2_0_linux_x86-64_openmpi314/orca_scf_mpi[0x4772cc]
/lib64/libc.so.6(__libc_start_main+0xf5)[0x2afcaddde555]
/sw/apps/orca/orca_4_2_0_linux_x86-64_openmpi314/orca_scf_mpi[0x462839]
======= Memory map: ========
/sw/apps/orca/orca_4_2_0_linux_x86-64_openmpi314/orca_scf_mpi[0x73cc28]
/sw/apps/orca/orca_4_2_0_linux_x86-64_openmpi314/orca_scf_mpi[0xf19f50]
/sw/apps/orca/orca_4_2_0_linux_x86-64_openmpi314/orca_scf_mpi[0x46eae2]
/sw/apps/orca/orca_4_2_0_linux_x86-64_openmpi314/orca_scf_mpi[0x4704f1]
/sw/apps/orca/orca_4_2_0_linux_x86-64_openmpi314/orca_scf_mpi[0x4772cc]
======= Backtrace: =========
/lib64/libc.so.6(+0x80ba7)[0x2b6b89ed4ba7]
/lib64/libc.so.6(+0x8117e)[0x2b6b89ed517e]
/sw/apps/orca/orca_4_2_0_linux_x86-64_openmpi314/orca_scf_mpi[0x73cc28]
/lib64/libc.so.6(__libc_start_main+0xf5)[0x2b3fb963a555]
/sw/apps/orca/orca_4_2_0_linux_x86-64_openmpi314/orca_scf_mpi[0x462839]
======= Memory map: ========
/sw/apps/orca/orca_4_2_0_linux_x86-64_openmpi314/orca_scf_mpi[0x4704f1]
/sw/apps/orca/orca_4_2_0_linux_x86-64_openmpi314/orca_scf_mpi[0x4772cc]
/lib64/libc.so.6(__libc_start_main+0xf5)[0x2b83918cd555]
/sw/apps/orca/orca_4_2_0_linux_x86-64_openmpi314/orca_scf_mpi[0x462839]
======= Memory map: ========
======= Backtrace: =========
/lib64/libc.so.6(+0x80ba7)[0x2acf70fc6ba7]
/lib64/libc.so.6(+0x8117e)[0x2acf70fc717e]
/sw/apps/orca/orca_4_2_0_linux_x86-64_openmpi314/orca_scf_mpi[0x73cc28]
/sw/apps/orca/orca_4_2_0_linux_x86-64_openmpi314/orca_scf_mpi[0xf19f50]
/sw/apps/orca/orca_4_2_0_linux_x86-64_openmpi314/orca_scf_mpi[0x46eae2]
/sw/apps/orca/orca_4_2_0_linux_x86-64_openmpi314/orca_scf_mpi[0x4704f1]
/sw/apps/orca/orca_4_2_0_linux_x86-64_openmpi314/orca_scf_mpi[0x4772cc]
/sw/apps/orca/orca_4_2_0_linux_x86-64_openmpi314/orca_scf_mpi[0xf19f50]
/sw/apps/orca/orca_4_2_0_linux_x86-64_openmpi314/orca_scf_mpi[0x46eae2]
/sw/apps/orca/orca_4_2_0_linux_x86-64_openmpi314/orca_scf_mpi[0x4704f1]
/sw/apps/orca/orca_4_2_0_linux_x86-64_openmpi314/orca_scf_mpi[0x4772cc]
/lib64/libc.so.6(__libc_start_main+0xf5)[0x2b3639056555]
/sw/apps/orca/orca_4_2_0_linux_x86-64_openmpi314/orca_scf_mpi[0x462839]
======= Memory map: ========
/sw/apps/orca/orca_4_2_0_linux_x86-64_openmpi314/orca_scf_mpi[0x787ded]
/sw/apps/orca/orca_4_2_0_linux_x86-64_openmpi314/orca_scf_mpi[0xf19e44]
/sw/apps/orca/orca_4_2_0_linux_x86-64_openmpi314/orca_scf_mpi[0x46eae2]
/sw/apps/orca/orca_4_2_0_linux_x86-64_openmpi314/orca_scf_mpi[0x4704f1]
/sw/apps/orca/orca_4_2_0_linux_x86-64_openmpi314/orca_scf_mpi[0x4772cc]
/lib64/libc.so.6(__libc_start_main+0xf5)[0x2b2fda70d555]
/sw/apps/orca/orca_4_2_0_linux_x86-64_openmpi314/orca_scf_mpi[0x462839]
======= Memory map: ========
======= Backtrace: =========
/lib64/libc.so.6(+0x81299)[0x2af5e04b2299]
/sw/apps/orca/orca_4_2_0_linux_x86-64_openmpi314/orca_scf_mpi[0x787ded]
/sw/apps/orca/orca_4_2_0_linux_x86-64_openmpi314/orca_scf_mpi[0xf19e44]
/sw/apps/orca/orca_4_2_0_linux_x86-64_openmpi314/orca_scf_mpi[0x46eae2]
/sw/apps/orca/orca_4_2_0_linux_x86-64_openmpi314/orca_scf_mpi[0x4704f1]
/sw/apps/orca/orca_4_2_0_linux_x86-64_openmpi314/orca_scf_mpi[0x4772cc]
/sw/apps/orca/orca_4_2_0_linux_x86-64_openmpi314/orca_scf_mpi[0xf19f50]
/sw/apps/orca/orca_4_2_0_linux_x86-64_openmpi314/orca_scf_mpi[0x46eae2]
/sw/apps/orca/orca_4_2_0_linux_x86-64_openmpi314/orca_scf_mpi[0x4704f1]
/sw/apps/orca/orca_4_2_0_linux_x86-64_openmpi314/orca_scf_mpi[0x4772cc]
/lib64/libc.so.6(__libc_start_main+0xf5)[0x2b2c13d16555]
/sw/apps/orca/orca_4_2_0_linux_x86-64_openmpi314/orca_scf_mpi[0x462839]
======= Memory map: ========
/lib64/libc.so.6(__libc_start_main+0xf5)[0x2adfabe46555]
/sw/apps/orca/orca_4_2_0_linux_x86-64_openmpi314/orca_scf_mpi[0x462839]
======= Memory map: ========
/sw/apps/orca/orca_4_2_0_linux_x86-64_openmpi314/orca_scf_mpi[0x4772cc]
/lib64/libc.so.6(__libc_start_main+0xf5)[0x2b8592b63555]
/sw/apps/orca/orca_4_2_0_linux_x86-64_openmpi314/orca_scf_mpi[0x462839]
======= Memory map: ========
======= Backtrace: =========
/lib64/libc.so.6(+0x80ba7)[0x2b80471dbba7]
/lib64/libc.so.6(+0x8117e)[0x2b80471dc17e]
/sw/apps/orca/orca_4_2_0_linux_x86-64_openmpi314/orca_scf_mpi[0x73cc28]
/sw/apps/orca/orca_4_2_0_linux_x86-64_openmpi314/orca_scf_mpi[0xf19f50]
/sw/apps/orca/orca_4_2_0_linux_x86-64_openmpi314/orca_scf_mpi[0x46eae2]
/sw/apps/orca/orca_4_2_0_linux_x86-64_openmpi314/orca_scf_mpi[0x4704f1]
/sw/apps/orca/orca_4_2_0_linux_x86-64_openmpi314/orca_scf_mpi[0x4772cc]
/lib64/libc.so.6(__libc_start_main+0xf5)[0x2b804717d555]
======= Backtrace: =========
/lib64/libc.so.6(+0x81299)[0x2b2206e90299]
/sw/apps/orca/orca_4_2_0_linux_x86-64_openmpi314/orca_scf_mpi[0x787ded]
/sw/apps/orca/orca_4_2_0_linux_x86-64_openmpi314/orca_scf_mpi[0xf19e44]
/sw/apps/orca/orca_4_2_0_linux_x86-64_openmpi314/orca_scf_mpi[0x46eae2]
/sw/apps/orca/orca_4_2_0_linux_x86-64_openmpi314/orca_scf_mpi[0x4704f1]
/sw/apps/orca/orca_4_2_0_linux_x86-64_openmpi314/orca_scf_mpi[0x4772cc]
/lib64/libc.so.6(__libc_start_main+0xf5)[0x2b2206e31555]
/sw/apps/orca/orca_4_2_0_linux_x86-64_openmpi314/orca_scf_mpi[0x462839]
======= Memory map: ========
/lib64/libc.so.6(__libc_start_main+0xf5)[0x2ab772112555]
/sw/apps/orca/orca_4_2_0_linux_x86-64_openmpi314/orca_scf_mpi[0x462839]
======= Memory map: ========
/sw/apps/orca/orca_4_2_0_linux_x86-64_openmpi314/orca_scf_mpi[0x73cc28]
/sw/apps/orca/orca_4_2_0_linux_x86-64_openmpi314/orca_scf_mpi[0xf19f50]
/sw/apps/orca/orca_4_2_0_linux_x86-64_openmpi314/orca_scf_mpi[0x46eae2]
/sw/apps/orca/orca_4_2_0_linux_x86-64_openmpi314/orca_scf_mpi[0x4704f1]
/sw/apps/orca/orca_4_2_0_linux_x86-64_openmpi314/orca_scf_mpi[0x4772cc]
/lib64/libc.so.6(__libc_start_main+0xf5)[0x2b83684c7555]
/sw/apps/orca/orca_4_2_0_linux_x86-64_openmpi314/orca_scf_mpi[0x462839]
======= Memory map: ========
/sw/apps/orca/orca_4_2_0_linux_x86-64_openmpi314/orca_scf_mpi[0x73cc28]
/sw/apps/orca/orca_4_2_0_linux_x86-64_openmpi314/orca_scf_mpi[0xf19f50]
/sw/apps/orca/orca_4_2_0_linux_x86-64_openmpi314/orca_scf_mpi[0x46eae2]
/sw/apps/orca/orca_4_2_0_linux_x86-64_openmpi314/orca_scf_mpi[0x4704f1]
/sw/apps/orca/orca_4_2_0_linux_x86-64_openmpi314/orca_scf_mpi[0x4772cc]
/lib64/libc.so.6(__libc_start_main+0xf5)[0x2b0ffb4ab555]
/sw/apps/orca/orca_4_2_0_linux_x86-64_openmpi314/orca_scf_mpi[0x462839]
======= Memory map: ========
/sw/apps/orca/orca_4_2_0_linux_x86-64_openmpi314/orca_scf_mpi[0x4772cc]
/lib64/libc.so.6(__libc_start_main+0xf5)[0x2b237f73b555]
/sw/apps/orca/orca_4_2_0_linux_x86-64_openmpi314/orca_scf_mpi[0x462839]
======= Memory map: ========
/sw/apps/orca/orca_4_2_0_linux_x86-64_openmpi314/orca_scf_mpi[0x4772cc]
/lib64/libc.so.6(__libc_start_main+0xf5)[0x2adefc541555]
/sw/apps/orca/orca_4_2_0_linux_x86-64_openmpi314/orca_scf_mpi[0x462839]
======= Memory map: ========
/sw/apps/orca/orca_4_2_0_linux_x86-64_openmpi314/orca_scf_mpi[0x4772cc]
/lib64/libc.so.6(__libc_start_main+0xf5)[0x2b46c0bb9555]
/sw/apps/orca/orca_4_2_0_linux_x86-64_openmpi314/orca_scf_mpi[0x462839]
======= Memory map: ========
/lib64/libc.so.6(__libc_start_main+0xf5)[0x2ad05886e555]
/sw/apps/orca/orca_4_2_0_linux_x86-64_openmpi314/orca_scf_mpi[0x462839]
======= Memory map: ========
/sw/apps/orca/orca_4_2_0_linux_x86-64_openmpi314/orca_scf_mpi[0xf19f50]
/sw/apps/orca/orca_4_2_0_linux_x86-64_openmpi314/orca_scf_mpi[0x46eae2]
[...]
2b805e9d2000-2b805ebd2000 ---p 00016000 00:29 53687523181                /sw/lang/gcc-9.1.0/lib64/libgcc_s.so.1
2b805ebd2000-2b805ebd3000 r--p 00016000 00:29 53687523181                /sw/lang/gcc-9.1.0/lib64/libgcc_s.so.1
2b805ebd3000-2b805ebd4000 rw-p 00017000 00:29 53687523181                /sw/lang/gcc-9.1.0/lib64/libgcc_s.so.1
2b805fa3c000-2b8063c36000 rw-p 00000000 00:00 0 
2b8065d30000-2b8066db0000 rw-p 00000000 00:00 0 
2b8068596000-2b806985c000 rw-p 00000000 00:00 0 
2b806c000000-2b806c021000 rw-p 00000000 00:00 0 
2b806c021000-2b8070000000 ---p 00000000 00:00 0 
7ffd61efe000-7ffd62037000 rw-p 00000000 00:00 0                          [stack]
7ffd620d0000-7ffd620d2000 r-xp 00000000 00:00 0                          [vdso]
ffffffffff600000-ffffffffff601000 r-xp 00000000 00:00 0                  [vsyscall]
[bp1-compute00212:81623] *** Process received signal ***
[bp1-compute00212:81623] Signal: Aborted (6)
[bp1-compute00212:81623] Signal code:  (-6)
[bp1-compute00212:81623] [ 0] /lib64/libc.so.6(+0x36400)[0x2b8047191400]
[bp1-compute00212:81623] [ 1] /lib64/libc.so.6(gsignal+0x37)[0x2b8047191387]
[bp1-compute00212:81623] [ 2] /lib64/libc.so.6(abort+0x148)[0x2b8047192a78]
[bp1-compute00212:81623] [ 3] /lib64/libc.so.6(+0x78ed7)[0x2b80471d3ed7]
[bp1-compute00212:81623] [ 4] /lib64/libc.so.6(+0x80ba7)[0x2b80471dbba7]
[bp1-compute00212:81623] [ 5] /lib64/libc.so.6(+0x8117e)[0x2b80471dc17e]
[bp1-compute00212:81623] [ 6] /sw/apps/orca/orca_4_2_0_linux_x86-64_openmpi314/orca_scf_mpi[0x73cc28]
[bp1-compute00212:81623] [ 7] /sw/apps/orca/orca_4_2_0_linux_x86-64_openmpi314/orca_scf_mpi[0xf19f50]
[bp1-compute00212:81623] [ 8] /sw/apps/orca/orca_4_2_0_linux_x86-64_openmpi314/orca_scf_mpi[0x46eae2]
[bp1-compute00212:81623] [ 9] /sw/apps/orca/orca_4_2_0_linux_x86-64_openmpi314/orca_scf_mpi[0x4704f1]
[bp1-compute00212:81623] [10] /sw/apps/orca/orca_4_2_0_linux_x86-64_openmpi314/orca_scf_mpi[0x4772cc]
[bp1-compute00212:81623] [11] /lib64/libc.so.6(__libc_start_main+0xf5)[0x2b804717d555]
[bp1-compute00212:81623] [12] /sw/apps/orca/orca_4_2_0_linux_x86-64_openmpi314/orca_scf_mpi[0x462839]
[bp1-compute00212:81623] *** End of error message ***
ad0001.21
2b6435865000-2b6435c66000 rw-s 00000000 00:13 167186341                  /dev/shm/vader_segment.bp1-compute00212.acad0001.22
2b6435c66000-2b6436067000 rw-s 00000000 00:13 167431264                  /dev/shm/vader_segment.bp1-compute00212.acad0001.23
2b6436067000-2b64370e7000 rw-p 00000000 00:00 0 
2b6438167000-2b643c361000 rw-p 00000000 00:00 0 
2b643e45b000-2b643f4db000 rw-p 00000000 00:00 0 
2b6440c6f000-2b6441eee000 rw-p 00000000 00:00 0 
2b6444000000-2b6444021000 rw-p 00000000 00:00 0 
2b6444021000-2b6448000000 ---p 00000000 00:00 0 
7ffe9a52a000-7ffe9a664000 rw-p 00000000 00:00 0                          [stack]
7ffe9a717000-7ffe9a719000 r-xp 00000000 00:00 0                          [vdso]
ffffffffff600000-ffffffffff601000 r-xp 00000000 00:00 0                  [vsyscall]
[bp1-compute00212:81612] *** Process received signal ***
[bp1-compute00212:81612] Signal: Aborted (6)
[bp1-compute00212:81612] Signal code:  (-6)
[bp1-compute00212:81612] [ 0] /lib64/libc.so.6(+0x36400)[0x2b641f77c400]
[bp1-compute00212:81612] [ 1] /lib64/libc.so.6(gsignal+0x37)[0x2b641f77c387]
[bp1-compute00212:81612] [ 2] /lib64/libc.so.6(abort+0x148)[0x2b641f77da78]
[bp1-compute00212:81612] [ 3] /lib64/libc.so.6(+0x78ed7)[0x2b641f7beed7]
[bp1-compute00212:81612] [ 4] /lib64/libc.so.6(+0x81299)[0x2b641f7c7299]
[bp1-compute00212:81612] [ 5] /sw/apps/orca/orca_4_2_0_linux_x86-64_openmpi314/orca_scf_mpi[0x787ded]
[bp1-compute00212:81612] [ 6] /sw/apps/orca/orca_4_2_0_linux_x86-64_openmpi314/orca_scf_mpi[0xf19e44]
[bp1-compute00212:81612] [ 7] /sw/apps/orca/orca_4_2_0_linux_x86-64_openmpi314/orca_scf_mpi[0x46eae2]
[bp1-compute00212:81612] [ 8] /sw/apps/orca/orca_4_2_0_linux_x86-64_openmpi314/orca_scf_mpi[0x4704f1]
[bp1-compute00212:81612] [ 9] /sw/apps/orca/orca_4_2_0_linux_x86-64_openmpi314/orca_scf_mpi[0x4772cc]
[bp1-compute00212:81612] [10] /lib64/libc.so.6(__libc_start_main+0xf5)[0x2b641f768555]
[bp1-compute00212:81612] [11] /sw/apps/orca/orca_4_2_0_linux_x86-64_openmpi314/orca_scf_mpi[0x462839]
[bp1-compute00212:81612] *** End of error message ***
 00:13 167429758                  /dev/shm/vader_segment.bp1-compute00212.acad0001.17
2adb20339000-2adb2073a000 rw-s 00000000 00:13 167453738                  /dev/shm/vader_segment.bp1-compute00212.acad0001.18
2adb2073a000-2adb20b3b000 rw-s 00000000 00:13 167419479                  /dev/shm/vader_segment.bp1-compute00212.acad0001.19
2adb20b3b000-2adb20f3c000 rw-s 00000000 00:13 167403631                  /dev/shm/vader_segment.bp1-compute00212.acad0001.20
2adb20f3c000-2adb2133d000 rw-s 00000000 00:13 167450648                  /dev/shm/vader_segment.bp1-compute00212.acad0001.21
2adb2133d000-2adb2173e000 rw-s 00000000 00:13 167186341                  /dev/shm/vader_segment.bp1-compute00212.acad0001.22
2adb2173e000-2adb21b3f000 rw-s 00000000 00:13 167431264                  /dev/shm/vader_segment.bp1-compute00212.acad0001.23
2adb21b3f000-2adb22bbf000 rw-p 00000000 00:00 0 
2adb22bbf000-2adb22bd5000 r-xp 00000000 00:29 53687523181                /sw/lang/gcc-9.1.0/lib64/libgcc_s.so.1
2adb22bd5000-2adb22dd5000 ---p 00016000 00:29 53687523181                /sw/lang/gcc-9.1.0/lib64/libgcc_s.so.1
2adb22dd5000-2adb22dd6000 r--p 00016000 00:29 53687523181                /sw/lang/gcc-9.1.0/lib64/libgcc_s.so.1
2adb22dd6000-2adb22dd7000 rw-p 00017000 00:29 53687523181                /sw/lang/gcc-9.1.0/lib64/libgcc_s.so.1
2adb23c3f000-2adb27e39000 rw-p 00000000 00:00 0 
2adb29f33000-2adb2afb3000 rw-p 00000000 00:00 0 
2adb2c772000-2adb2da0c000 rw-p 00000000 00:00 0 
2adb30000000-2adb30021000 rw-p 00000000 00:00 0 
2adb30021000-2adb34000000 ---p 00000000 00:00 0 
7fff05542000-7fff0567c000 rw-p 00000000 00:00 0                          [stack]
7fff057f8000-7fff057fa000 r-xp 00000000 00:00 0                          [vdso]
ffffffffff600000-ffffffffff601000 r-xp 00000000 00:00 0                  [vsyscall]
[bp1-compute00212:81610] *** Process received signal ***
[bp1-compute00212:81610] Signal: Aborted (6)
[bp1-compute00212:81610] Signal code:  (-6)
[bp1-compute00212:81610] [ 0] /lib64/libc.so.6(+0x36400)[0x2adb0b3c2400]
[bp1-compute00212:81610] [ 1] /lib64/libc.so.6(gsignal+0x37)[0x2adb0b3c2387]
[bp1-compute00212:81610] [ 2] /lib64/libc.so.6(abort+0x148)[0x2adb0b3c3a78]
[bp1-compute00212:81610] [ 3] /lib64/libc.so.6(+0x78ed7)[0x2adb0b404ed7]
[bp1-compute00212:81610] [ 4] /lib64/libc.so.6(+0x80ba7)[0x2adb0b40cba7]
[bp1-compute00212:81610] [ 5] /lib64/libc.so.6(+0x8117e)[0x2adb0b40d17e]
[bp1-compute00212:81610] [ 6] /sw/apps/orca/orca_4_2_0_linux_x86-64_openmpi314/orca_scf_mpi[0x73cc28]
[bp1-compute00212:81610] [ 7] /sw/apps/orca/orca_4_2_0_linux_x86-64_openmpi314/orca_scf_mpi[0xf19f50]
[bp1-compute00212:81610] [ 8] /sw/apps/orca/orca_4_2_0_linux_x86-64_openmpi314/orca_scf_mpi[0x46eae2]
[bp1-compute00212:81610] [ 9] /sw/apps/orca/orca_4_2_0_linux_x86-64_openmpi314/orca_scf_mpi[0x4704f1]
[bp1-compute00212:81610] [10] /sw/apps/orca/orca_4_2_0_linux_x86-64_openmpi314/orca_scf_mpi[0x4772cc]
[bp1-compute00212:81610] [11] /lib64/libc.so.6(__libc_start_main+0xf5)[0x2adb0b3ae555]
[bp1-compute00212:81610] [12] /sw/apps/orca/orca_4_2_0_linux_x86-64_openmpi314/orca_scf_mpi[0x462839]
[bp1-compute00212:81610] *** End of error message ***
ompute00212:81607] [ 1] /lib64/libc.so.6(gsignal+0x37)[0x2adefc555387]
[bp1-compute00212:81607] [ 2] /lib64/libc.so.6(abort+0x148)[0x2adefc556a78]
[bp1-compute00212:81607] [ 3] /lib64/libc.so.6(+0x78ed7)[0x2adefc597ed7]
[bp1-compute00212:81607] [ 4] /lib64/libc.so.6(+0x80ba7)[0x2adefc59fba7]
[bp1-compute00212:81607] [ 5] /lib64/libc.so.6(+0x8117e)[0x2adefc5a017e]
[bp1-compute00212:81607] [ 6] /sw/apps/orca/orca_4_2_0_linux_x86-64_openmpi314/orca_scf_mpi[0x73cc28]
[bp1-compute00212:81607] [ 7] /sw/apps/orca/orca_4_2_0_linux_x86-64_openmpi314/orca_scf_mpi[0xf19f50]
[bp1-compute00212:81607] [ 8] /sw/apps/orca/orca_4_2_0_linux_x86-64_openmpi314/orca_scf_mpi[0x46eae2]
[bp1-compute00212:81607] [ 9] /sw/apps/orca/orca_4_2_0_linux_x86-64_openmpi314/orca_scf_mpi[0x4704f1]
[bp1-compute00212:81607] [10] /sw/apps/orca/orca_4_2_0_linux_x86-64_openmpi314/orca_scf_mpi[0x4772cc]
[bp1-compute00212:81607] [11] /lib64/libc.so.6(__libc_start_main+0xf5)[0x2adefc541555]
[bp1-compute00212:81607] [12] /sw/apps/orca/orca_4_2_0_linux_x86-64_openmpi314/orca_scf_mpi[0x462839]
[bp1-compute00212:81607] *** End of error message ***
 00:13 166972959                  /dev/shm/vader_segment.bp1-compute00212.acad0001.16
2afcc2d1e000-2afcc311f000 rw-s 00000000 00:13 167429758                  /dev/shm/vader_segment.bp1-compute00212.acad0001.17
2afcc311f000-2afcc3520000 rw-s 00000000 00:13 167453738                  /dev/shm/vader_segment.bp1-compute00212.acad0001.18
2afcc3520000-2afcc3921000 rw-s 00000000 00:13 167419479                  /dev/shm/vader_segment.bp1-compute00212.acad0001.19
2afcc3921000-2afcc3d22000 rw-s 00000000 00:13 167403631                  /dev/shm/vader_segment.bp1-compute00212.acad0001.20
2afcc3d22000-2afcc4123000 rw-s 00000000 00:13 167450648                  /dev/shm/vader_segment.bp1-compute00212.acad0001.21
2afcc4123000-2afcc4524000 rw-s 00000000 00:13 167186341                  /dev/shm/vader_segment.bp1-compute00212.acad0001.22
2afcc4524000-2afcc55a4000 rw-p 00000000 00:00 0 
2afcc55a4000-2afcc55ba000 r-xp 00000000 00:29 53687523181                /sw/lang/gcc-9.1.0/lib64/libgcc_s.so.1
2afcc55ba000-2afcc57ba000 ---p 00016000 00:29 53687523181                /sw/lang/gcc-9.1.0/lib64/libgcc_s.so.1
2afcc57ba000-2afcc57bb000 r--p 00016000 00:29 53687523181                /sw/lang/gcc-9.1.0/lib64/libgcc_s.so.1
2afcc57bb000-2afcc57bc000 rw-p 00017000 00:29 53687523181                /sw/lang/gcc-9.1.0/lib64/libgcc_s.so.1
2afcc6624000-2afcca81e000 rw-p 00000000 00:00 0 
2afccc918000-2afccd998000 rw-p 00000000 00:00 0 
2afccf0e4000-2afcd0363000 rw-p 00000000 00:00 0 
2afcd4000000-2afcd4021000 rw-p 00000000 00:00 0 
2afcd4021000-2afcd8000000 ---p 00000000 00:00 0 
7ffef1b7d000-7ffef1cb7000 rw-p 00000000 00:00 0                          [stack]
7ffef1da2000-7ffef1da4000 r-xp 00000000 00:00 0                          [vdso]
ffffffffff600000-ffffffffff601000 r-xp 00000000 00:00 0                  [vsyscall]
[bp1-compute00212:81629] *** Process received signal ***
[bp1-compute00212:81629] Signal: Aborted (6)
[bp1-compute00212:81629] Signal code:  (-6)
[bp1-compute00212:81629] [ 0] /lib64/libc.so.6(+0x36400)[0x2afcaddf2400]
[bp1-compute00212:81629] [ 1] /lib64/libc.so.6(gsignal+0x37)[0x2afcaddf2387]
[bp1-compute00212:81629] [ 2] /lib64/libc.so.6(abort+0x148)[0x2afcaddf3a78]
[bp1-compute00212:81629] [ 3] /lib64/libc.so.6(+0x78ed7)[0x2afcade34ed7]
[bp1-compute00212:81629] [ 4] /lib64/libc.so.6(+0x81299)[0x2afcade3d299]
[bp1-compute00212:81629] [ 5] /sw/apps/orca/orca_4_2_0_linux_x86-64_openmpi314/orca_scf_mpi[0x787ded]
[bp1-compute00212:81629] [ 6] /sw/apps/orca/orca_4_2_0_linux_x86-64_openmpi314/orca_scf_mpi[0xf19e44]
[bp1-compute00212:81629] [ 7] /sw/apps/orca/orca_4_2_0_linux_x86-64_openmpi314/orca_scf_mpi[0x46eae2]
[bp1-compute00212:81629] [ 8] /sw/apps/orca/orca_4_2_0_linux_x86-64_openmpi314/orca_scf_mpi[0x4704f1]
[bp1-compute00212:81629] [ 9] /sw/apps/orca/orca_4_2_0_linux_x86-64_openmpi314/orca_scf_mpi[0x4772cc]
[bp1-compute00212:81629] [10] /lib64/libc.so.6(__libc_start_main+0xf5)[0x2afcaddde555]
[bp1-compute00212:81629] [11] /sw/apps/orca/orca_4_2_0_linux_x86-64_openmpi314/orca_scf_mpi[0x462839]
[bp1-compute00212:81629] *** End of error message ***
ment.bp1-compute00212.acad0001.13
2b46d50e8000-2b46d54e9000 rw-s 00000000 00:13 167446744                  /dev/shm/vader_segment.bp1-compute00212.acad0001.14
2b46d54e9000-2b46d58ea000 rw-s 00000000 00:13 167443508                  /dev/shm/vader_segment.bp1-compute00212.acad0001.15
2b46d58ea000-2b46d5ceb000 rw-s 00000000 00:13 166972959                  /dev/shm/vader_segment.bp1-compute00212.acad0001.16
2b46d5ceb000-2b46d60ec000 rw-s 00000000 00:13 167429758                  /dev/shm/vader_segment.bp1-compute00212.acad0001.17
2b46d60ec000-2b46d64ed000 rw-s 00000000 00:13 167453738                  /dev/shm/vader_segment.bp1-compute00212.acad0001.18
2b46d64ed000-2b46d68ee000 rw-s 00000000 00:13 167419479                  /dev/shm/vader_segment.bp1-compute00212.acad0001.19
2b46d68ee000-2b46d6cef000 rw-s 00000000 00:13 167403631                  /dev/shm/vader_segment.bp1-compute00212.acad0001.20
2b46d6cef000-2b46d70f0000 rw-s 00000000 00:13 167450648                  /dev/shm/vader_segment.bp1-compute00212.acad0001.21
2b46d70f0000-2b46d74f1000 rw-s 00000000 00:13 167186341                  /dev/shm/vader_segment.bp1-compute00212.acad0001.22
2b46d74f1000-2b46d78f2000 rw-s 00000000 00:13 167431264                  /dev/shm/vader_segment.bp1-compute00212.acad0001.23
2b46d78f2000-2b46d8972000 rw-p 00000000 00:00 0 
2b46d99f2000-2b46ddbec000 rw-p 00000000 00:00 0 
2b46dfce6000-2b46e0d66000 rw-p 00000000 00:00 0 
2b46e24f2000-2b46e36f8000 rw-p 00000000 00:00 0 
2b46e4000000-2b46e4021000 rw-p 00000000 00:00 0 
2b46e4021000-2b46e8000000 ---p 00000000 00:00 0 
7ffcd9d8b000-7ffcd9ec5000 rw-p 00000000 00:00 0                          [stack]
7ffcd9ff5000-7ffcd9ff7000 r-xp 00000000 00:00 0                          [vdso]
ffffffffff600000-ffffffffff601000 r-xp 00000000 00:00 0                  [vsyscall]
[bp1-compute00212:81611] *** Process received signal ***
[bp1-compute00212:81611] Signal: Aborted (6)
[bp1-compute00212:81611] Signal code:  (-6)
[bp1-compute00212:81611] [ 0] /lib64/libc.so.6(+0x36400)[0x2b46c0bcd400]
[bp1-compute00212:81611] [ 1] /lib64/libc.so.6(gsignal+0x37)[0x2b46c0bcd387]
[bp1-compute00212:81611] [ 2] /lib64/libc.so.6(abort+0x148)[0x2b46c0bcea78]
[bp1-compute00212:81611] [ 3] /lib64/libc.so.6(+0x78ed7)[0x2b46c0c0fed7]
[bp1-compute00212:81611] [ 4] /lib64/libc.so.6(+0x81299)[0x2b46c0c18299]
[bp1-compute00212:81611] [ 5] /sw/apps/orca/orca_4_2_0_linux_x86-64_openmpi314/orca_scf_mpi[0x787ded]
[bp1-compute00212:81611] [ 6] /sw/apps/orca/orca_4_2_0_linux_x86-64_openmpi314/orca_scf_mpi[0xf19e44]
[bp1-compute00212:81611] [ 7] /sw/apps/orca/orca_4_2_0_linux_x86-64_openmpi314/orca_scf_mpi[0x46eae2]
[bp1-compute00212:81611] [ 8] /sw/apps/orca/orca_4_2_0_linux_x86-64_openmpi314/orca_scf_mpi[0x4704f1]
[bp1-compute00212:81611] [ 9] /sw/apps/orca/orca_4_2_0_linux_x86-64_openmpi314/orca_scf_mpi[0x4772cc]
[bp1-compute00212:81611] [10] /lib64/libc.so.6(__libc_start_main+0xf5)[0x2b46c0bb9555]
[bp1-compute00212:81611] [11] /sw/apps/orca/orca_4_2_0_linux_x86-64_openmpi314/orca_scf_mpi[0x462839]
[bp1-compute00212:81611] *** End of error message ***
ompute00212:81609] [ 1] /lib64/libc.so.6(gsignal+0x37)[0x2ad058882387]
[bp1-compute00212:81609] [ 2] /lib64/libc.so.6(abort+0x148)[0x2ad058883a78]
[bp1-compute00212:81609] [ 3] /lib64/libc.so.6(+0x78ed7)[0x2ad0588c4ed7]
[bp1-compute00212:81609] [ 4] /lib64/libc.so.6(+0x80ba7)[0x2ad0588ccba7]
[bp1-compute00212:81609] [ 5] /lib64/libc.so.6(+0x8117e)[0x2ad0588cd17e]
[bp1-compute00212:81609] [ 6] /sw/apps/orca/orca_4_2_0_linux_x86-64_openmpi314/orca_scf_mpi[0x73cc28]
[bp1-compute00212:81609] [ 7] /sw/apps/orca/orca_4_2_0_linux_x86-64_openmpi314/orca_scf_mpi[0xf19f50]
[bp1-compute00212:81609] [ 8] /sw/apps/orca/orca_4_2_0_linux_x86-64_openmpi314/orca_scf_mpi[0x46eae2]
[bp1-compute00212:81609] [ 9] /sw/apps/orca/orca_4_2_0_linux_x86-64_openmpi314/orca_scf_mpi[0x4704f1]
[bp1-compute00212:81609] [10] /sw/apps/orca/orca_4_2_0_linux_x86-64_openmpi314/orca_scf_mpi[0x4772cc]
[bp1-compute00212:81609] [11] /lib64/libc.so.6(__libc_start_main+0xf5)[0x2ad05886e555]
[bp1-compute00212:81609] [12] /sw/apps/orca/orca_4_2_0_linux_x86-64_openmpi314/orca_scf_mpi[0x462839]
[bp1-compute00212:81609] *** End of error message ***
x86-64_openmpi314/orca_scf_mpi[0x462839]
[bp1-compute00212:81608] *** End of error message ***
 00:13 167429758                  /dev/shm/vader_segment.bp1-compute00212.acad0001.17
2b6b9ed21000-2b6b9f122000 rw-s 00000000 00:13 167453738                  /dev/shm/vader_segment.bp1-compute00212.acad0001.18
2b6b9f122000-2b6b9f523000 rw-s 00000000 00:13 167419479                  /dev/shm/vader_segment.bp1-compute00212.acad0001.19
2b6b9f523000-2b6b9f924000 rw-s 00000000 00:13 167403631                  /dev/shm/vader_segment.bp1-compute00212.acad0001.20
2b6b9f924000-2b6b9fd25000 rw-s 00000000 00:13 167450648                  /dev/shm/vader_segment.bp1-compute00212.acad0001.21
2b6b9fd25000-2b6ba0126000 rw-s 00000000 00:13 167186341                  /dev/shm/vader_segment.bp1-compute00212.acad0001.22
2b6ba0126000-2b6ba0527000 rw-s 00000000 00:13 167431264                  /dev/shm/vader_segment.bp1-compute00212.acad0001.23
2b6ba0527000-2b6ba15a7000 rw-p 00000000 00:00 0 
2b6ba15a7000-2b6ba15bd000 r-xp 00000000 00:29 53687523181                /sw/lang/gcc-9.1.0/lib64/libgcc_s.so.1
2b6ba15bd000-2b6ba17bd000 ---p 00016000 00:29 53687523181                /sw/lang/gcc-9.1.0/lib64/libgcc_s.so.1
2b6ba17bd000-2b6ba17be000 r--p 00016000 00:29 53687523181                /sw/lang/gcc-9.1.0/lib64/libgcc_s.so.1
2b6ba17be000-2b6ba17bf000 rw-p 00017000 00:29 53687523181                /sw/lang/gcc-9.1.0/lib64/libgcc_s.so.1
2b6ba2627000-2b6ba6821000 rw-p 00000000 00:00 0 
2b6ba891b000-2b6ba999b000 rw-p 00000000 00:00 0 
2b6bab12f000-2b6bac3ae000 rw-p 00000000 00:00 0 
2b6bb0000000-2b6bb0021000 rw-p 00000000 00:00 0 
2b6bb0021000-2b6bb4000000 ---p 00000000 00:00 0 
7fff66d7d000-7fff66eb7000 rw-p 00000000 00:00 0                          [stack]
7fff66fc2000-7fff66fc4000 r-xp 00000000 00:00 0                          [vdso]
ffffffffff600000-ffffffffff601000 r-xp 00000000 00:00 0                  [vsyscall]
[bp1-compute00212:81615] *** Process received signal ***
[bp1-compute00212:81615] Signal: Aborted (6)
[bp1-compute00212:81615] Signal code:  (-6)
[bp1-compute00212:81615] [ 0] /lib64/libc.so.6(+0x36400)[0x2b6b89e8a400]
[bp1-compute00212:81615] [ 1] /lib64/libc.so.6(gsignal+0x37)[0x2b6b89e8a387]
[bp1-compute00212:81615] [ 2] /lib64/libc.so.6(abort+0x148)[0x2b6b89e8ba78]
[bp1-compute00212:81615] [ 3] /lib64/libc.so.6(+0x78ed7)[0x2b6b89ecced7]
[bp1-compute00212:81615] [ 4] /lib64/libc.so.6(+0x80ba7)[0x2b6b89ed4ba7]
[bp1-compute00212:81615] [ 5] /lib64/libc.so.6(+0x8117e)[0x2b6b89ed517e]
[bp1-compute00212:81615] [ 6] /sw/apps/orca/orca_4_2_0_linux_x86-64_openmpi314/orca_scf_mpi[0x73cc28]
[bp1-compute00212:81615] [ 7] /sw/apps/orca/orca_4_2_0_linux_x86-64_openmpi314/orca_scf_mpi[0xf19f50]
[bp1-compute00212:81615] [ 8] /sw/apps/orca/orca_4_2_0_linux_x86-64_openmpi314/orca_scf_mpi[0x46eae2]
[bp1-compute00212:81615] [ 9] /sw/apps/orca/orca_4_2_0_linux_x86-64_openmpi314/orca_scf_mpi[0x4704f1]
[bp1-compute00212:81615] [10] /sw/apps/orca/orca_4_2_0_linux_x86-64_openmpi314/orca_scf_mpi[0x4772cc]
[bp1-compute00212:81615] [11] /lib64/libc.so.6(__libc_start_main+0xf5)[0x2b6b89e76555]
[bp1-compute00212:81615] [12] /sw/apps/orca/orca_4_2_0_linux_x86-64_openmpi314/orca_scf_mpi[0x462839]
[bp1-compute00212:81615] *** End of error message ***
--------------------------------------------------------------------------
Primary job  terminated normally, but 1 process returned
a non-zero exit code. Per user-direction, the job has been aborted.
--------------------------------------------------------------------------
--------------------------------------------------------------------------
mpirun noticed that process rank 8 with PID 0 on node bp1-compute00212 exited on signal 6 (Aborted).
--------------------------------------------------------------------------

ORCA finished by error termination in SCF
Calling Command: mpirun -np 24  /sw/apps/orca/orca_4_2_0_linux_x86-64_openmpi314/orca_scf_mpi MOR28_pr09.gbw b MOR28_pr09 
[file orca_tools/qcmsg.cpp, line 458]: 
  .... aborting the run

[file orca_tools/qcmsg.cpp, line 458]: 
  .... aborting the run

