
                                 *****************
                                 * O   R   C   A *
                                 *****************

           --- An Ab Initio, DFT and Semiempirical electronic structure package ---

                  #######################################################
                  #                        -***-                        #
                  #          Department of theory and spectroscopy      #
                  #               Directorship: Frank Neese             #
                  #        Max Planck Institute fuer Kohlenforschung    #
                  #                Kaiser Wilhelm Platz 1               #
                  #                 D-45470 Muelheim/Ruhr               #
                  #                      Germany                        #
                  #                                                     #
                  #                  All rights reserved                #
                  #                        -***-                        #
                  #######################################################


                         Program Version 4.2.0 -  RELEASE  -


 With contributions from (in alphabetic order):
   Daniel Aravena         : Magnetic Suceptibility
   Michael Atanasov       : Ab Initio Ligand Field Theory (pilot matlab implementation)
   Alexander A. Auer      : GIAO ZORA, VPT2
   Ute Becker             : Parallelization
   Giovanni Bistoni       : ED, misc. LED, open-shell LED, HFLED
   Martin Brehm           : Molecular dynamics
   Dmytro Bykov           : SCF Hessian
   Vijay G. Chilkuri      : MRCI spin determinant printing, contributions to CSF-ICE
   Dipayan Datta          : RHF DLPNO-CCSD density
   Achintya Kumar Dutta   : EOM-CC, STEOM-CC
   Dmitry Ganyushin       : Spin-Orbit,Spin-Spin,Magnetic field MRCI
   Miquel Garcia          : C-PCM Hessian, Gaussian charge scheme
   Yang Guo               : DLPNO-NEVPT2, CIM, IAO-localization
   Andreas Hansen         : Spin unrestricted coupled pair/coupled cluster methods
   Benjamin Helmich-Paris : CASSCF linear response (MC-RPA)
   Lee Huntington         : MR-EOM, pCC
   Robert Izsak           : Overlap fitted RIJCOSX, COSX-SCS-MP3, EOM
   Christian Kollmar      : KDIIS, OOCD, Brueckner-CCSD(T), CCSD density
   Simone Kossmann        : Meta GGA functionals, TD-DFT gradient, OOMP2, MP2 Hessian
   Martin Krupicka        : AUTO-CI
   Lucas Lang             : DCDCAS
   Dagmar Lenk            : GEPOL surface, SMD
   Dimitrios Liakos       : Extrapolation schemes; Compound Job, initial MDCI parallelization
   Dimitrios Manganas     : Further ROCIS development; embedding schemes
   Dimitrios Pantazis     : SARC Basis sets
   Taras Petrenko         : DFT Hessian,TD-DFT gradient, ASA, ECA, R-Raman, ABS, FL, XAS/XES, NRVS
   Peter Pinski           : DLPNO-MP2, DLPNO-MP2 Gradient
   Christoph Reimann      : Effective Core Potentials
   Marius Retegan         : Local ZFS, SOC
   Christoph Riplinger    : Optimizer, TS searches, QM/MM, DLPNO-CCSD(T), (RO)-DLPNO pert. Triples
   Tobias Risthaus        : Range-separated hybrids, TD-DFT gradient, RPA, STAB
   Michael Roemelt        : Original ROCIS implementation
   Masaaki Saitow         : Open-shell DLPNO-CCSD energy and density
   Barbara Sandhoefer     : DKH picture change effects
   Avijit Sen             : IP-ROCIS
   Kantharuban Sivalingam : CASSCF convergence, NEVPT2, FIC-MRCI
   Bernardo de Souza      : ESD, SOC TD-DFT
   Georgi Stoychev        : AutoAux, RI-MP2 NMR
   Willem Van den Heuvel  : Paramagnetic NMR
   Boris Wezisla          : Elementary symmetry handling
   Frank Wennmohs         : Technical directorship


 We gratefully acknowledge several colleagues who have allowed us to
 interface, adapt or use parts of their codes:
   Stefan Grimme, W. Hujo, H. Kruse,             : VdW corrections, initial TS optimization,
                  C. Bannwarth                     DFT functionals, gCP, sTDA/sTD-DF
   Ed Valeev, F. Pavosevic, A. Kumar             : LibInt (2-el integral package), F12 methods
   Garnet Chan, S. Sharma, J. Yang, R. Olivares  : DMRG
   Ulf Ekstrom                                   : XCFun DFT Library
   Mihaly Kallay                                 : mrcc  (arbitrary order and MRCC methods)
   Andreas Klamt, Michael Diedenhofen            : otool_cosmo (COSMO solvation model)
   Jiri Pittner, Ondrej Demel                    : Mk-CCSD
   Frank Weinhold                                : gennbo (NPA and NBO analysis)
   Christopher J. Cramer and Donald G. Truhlar   : smd solvation model
   Lars Goerigk                                  : TD-DFT with DH, B97 family of functionals
   V. Asgeirsson, H. Jonsson                     : NEB implementation
   FAccTs GmbH                                   : IRC, NEB, NEB-TS, Multilevel, MM, QM/MM, CI optimization
   S Lehtola, MJT Oliveira, MAL Marques          : LibXC Library


 Your calculation uses the libint2 library for the computation of 2-el integrals
 For citations please refer to: http://libint.valeyev.net

 Your ORCA version has been built with support for libXC version: 4.2.3
 For citations please refer to: https://tddft.org/programs/libxc/

 This ORCA versions uses:
   CBLAS   interface :  Fast vector & matrix operations
   LAPACKE interface :  Fast linear algebra routines
   SCALAPACK package :  Parallel linear algebra routines


Your calculation utilizes the atom-pairwise dispersion correction
with the zero-damping scheme (D30)
Cite in your paper:
S.Grimme, J.Antony, S.Ehrlich and H.Krieg, J.Chem.Phys., 132, (2010), 154104 
   

XCFun DFT library Copyright 2009-2010 Ulf Ekstrom and contributors.
See http://admol.org/xcfun for more information. This is free soft-
ware; see the source code for copying conditions. There is ABSOLUTELY
NO WARRANTY; not even for MERCHANTABILITY or FITNESS FOR A PARTICULAR
PURPOSE. For details see the documentation. Scientific users of this 
library should cite U. Ekstrom, L. Visscher, R. Bast, A. J. Thorvald-
sen and K. Ruud; J.Chem.Theor.Comp. 2010, DOI: 10.1021/ct100117s
XCFun Version 0.99 
----- Orbital basis set information -----
Your calculation utilizes the basis: def2-TZVPPD
   F. Weigend and R. Ahlrichs, Phys. Chem. Chem. Phys. 7, 3297 (2005).
   D. Rappoport and F. Furche, J. Chem. Phys. 133 134105 (2010).

----- AuxJK basis set information -----
Your calculation utilizes the auxiliary basis: def2/JK
   H-Ba, Hf-Rn: F. Weigend, J. Comput. Chem. 29, 167 (2008).

================================================================================
                                        WARNINGS
                       Please study these warnings very carefully!
================================================================================


WARNING: Minnesota functionals are quite sensitive to the integration grid.
         see SE Wheeler, KN Houk, JCTC 2010, 6, 395,
             N Mardirossian, M Head-Gordon, JCTC 2016, 12, 4303.
         Grid6 seems to be a minimum grid for reliable results with these functionals!
  ===> : Please increase the integration grid!


INFO   : the flag for use of LIBINT has been found!

================================================================================
                                       INPUT FILE
================================================================================
NAME = MOR21_mecn.in
|  1> #
|  2> # MOR21_mecn M06-D3/Def2-TZVPPD
|  3> #
|  4> ! m06 d3zero def2-tzvppd def2/jk grid4 nofinalgrid
|  5> 
|  6> *xyz 0 1
|  7> N        1.434594    0.083513   -0.053227 
|  8> C        0.278345    0.016206   -0.010325 
|  9> C       -1.176577   -0.068494    0.043652 
| 10> H       -1.556498   -0.572512   -0.849824 
| 11> H       -1.609231    0.934929    0.094890 
| 12> H       -1.487035   -0.633283    0.927565 
| 13> *
| 14> 
| 15> %maxcore 5000
| 16> 
| 17> %pal
| 18> nprocs = 24
| 19> end
| 20> 
| 21> 
| 22>                          ****END OF INPUT****
================================================================================

                       ****************************
                       * Single Point Calculation *
                       ****************************

---------------------------------
CARTESIAN COORDINATES (ANGSTROEM)
---------------------------------
  N      1.434594    0.083513   -0.053227
  C      0.278345    0.016206   -0.010325
  C     -1.176577   -0.068494    0.043652
  H     -1.556498   -0.572512   -0.849824
  H     -1.609231    0.934929    0.094890
  H     -1.487035   -0.633283    0.927565

----------------------------
CARTESIAN COORDINATES (A.U.)
----------------------------
  NO LB      ZA    FRAG     MASS         X           Y           Z
   0 N     7.0000    0    14.007    2.710990    0.157817   -0.100584
   1 C     6.0000    0    12.011    0.525996    0.030625   -0.019511
   2 C     6.0000    0    12.011   -2.223408   -0.129435    0.082490
   3 H     1.0000    0     1.008   -2.941355   -1.081891   -1.605935
   4 H     1.0000    0     1.008   -3.041006    1.766760    0.179316
   5 H     1.0000    0     1.008   -2.810089   -1.196731    1.752844

--------------------------------
INTERNAL COORDINATES (ANGSTROEM)
--------------------------------
 N      0   0   0     0.000000000000     0.00000000     0.00000000
 C      1   0   0     1.159000674656     0.00000000     0.00000000
 C      2   1   0     1.458384596947   179.99961392     0.00000000
 H      3   2   1     1.093925716464   110.06008476   344.27382145
 H      3   2   1     1.093925286886   110.06143026   224.27296768
 H      3   2   1     1.093925489169   110.06093723   104.27391271

---------------------------
INTERNAL COORDINATES (A.U.)
---------------------------
 N      0   0   0     0.000000000000     0.00000000     0.00000000
 C      1   0   0     2.190193864131     0.00000000     0.00000000
 C      2   1   0     2.755947486159   179.99961392     0.00000000
 H      3   2   1     2.067220014970   110.06008476   344.27382145
 H      3   2   1     2.067219203186   110.06143026   224.27296768
 H      3   2   1     2.067219585446   110.06093723   104.27391271

---------------------
BASIS SET INFORMATION
---------------------
There are 3 groups of distinct atoms

 Group   1 Type N   : 12s6p3d1f contracted to 6s3p3d1f pattern {621111/411/111/1}
 Group   2 Type C   : 12s6p3d1f contracted to 6s3p3d1f pattern {621111/411/111/1}
 Group   3 Type H   : 5s3p1d contracted to 3s3p1d pattern {311/111/1}

Atom   0N    basis set group =>   1
Atom   1C    basis set group =>   2
Atom   2C    basis set group =>   2
Atom   3H    basis set group =>   3
Atom   4H    basis set group =>   3
Atom   5H    basis set group =>   3
----------------------------------
AUXILIARY/JK BASIS SET INFORMATION
----------------------------------
There are 3 groups of distinct atoms

 Group   1 Type N   : 14s10p6d2f1g contracted to 10s8p4d2f1g pattern {5111111111/31111111/3111/11/1}
 Group   2 Type C   : 14s10p6d2f1g contracted to 10s8p5d1f1g pattern {5111111111/31111111/21111/2/1}
 Group   3 Type H   : 4s2p2d contracted to 2s2p2d pattern {31/11/11}

Atom   0N    basis set group =>   1
Atom   1C    basis set group =>   2
Atom   2C    basis set group =>   2
Atom   3H    basis set group =>   3
Atom   4H    basis set group =>   3
Atom   5H    basis set group =>   3


           ************************************************************
           *        Program running with 24 parallel MPI-processes    *
           *              working on a common directory               *
           ************************************************************
------------------------------------------------------------------------------
                           ORCA GTO INTEGRAL CALCULATION
------------------------------------------------------------------------------

                         BASIS SET STATISTICS AND STARTUP INFO

 # of primitive gaussian shells          ...   93
 # of primitive gaussian functions       ...  213
 # of contracted shells                  ...   60
 # of contracted basis functions         ...  162
 Highest angular momentum                ...    3
 Maximum contraction depth               ...    6
 Integral package used                   ... LIBINT
 Integral threshhold            Thresh   ...  1.000e-10
 Primitive cut-off              TCut     ...  1.000e-11


------------------------------ INTEGRAL EVALUATION ----------------------------


 * One electron integrals 
 Pre-screening matrix                    ... done
 Shell pair data                         ... done (   0.000 sec)



           ************************************************************
           *        Program running with 24 parallel MPI-processes    *
           *              working on a common directory               *
           ************************************************************
-------------------------------------------------------------------------------
                                 ORCA SCF
-------------------------------------------------------------------------------

------------
SCF SETTINGS
------------
Hamiltonian:
 Density Functional     Method          .... DFT(GTOs)
 Exchange Functional    Exchange        .... M06
 Correlation Functional Correlation     .... M06
 Gradients option       PostSCFGGA      .... off
 Hybrid DFT is turned on
   Fraction HF Exchange ScalHFX         ....  0.270000
   Scaling of DF-GGA-X  ScalDFX         ....  0.730000
   Scaling of DF-GGA-C  ScalDFC         ....  1.000000
   Scaling of DF-LDA-C  ScalLDAC        ....  1.000000
   Perturbative correction              ....  0.000000
   Density functional embedding theory  .... OFF


General Settings:
 Integral files         IntName         .... MOR21_mecn
 Hartree-Fock type      HFTyp           .... RHF
 Total Charge           Charge          ....    0
 Multiplicity           Mult            ....    1
 Number of Electrons    NEL             ....   22
 Basis Dimension        Dim             ....  162
 Nuclear Repulsion      ENuc            ....     58.3736252895 Eh

Convergence Acceleration:
 DIIS                   CNVDIIS         .... on
   Start iteration      DIISMaxIt       ....    12
   Startup error        DIISStart       ....  0.200000
   # of expansion vecs  DIISMaxEq       ....     5
   Bias factor          DIISBfac        ....   1.050
   Max. coefficient     DIISMaxC        ....  10.000
 Newton-Raphson         CNVNR           .... off
 SOSCF                  CNVSOSCF        .... on
   Start iteration      SOSCFMaxIt      ....   150
   Startup grad/error   SOSCFStart      ....  0.003300
 Level Shifting         CNVShift        .... on
   Level shift para.    LevelShift      ....    0.2500
   Turn off err/grad.   ShiftErr        ....    0.0010
 Zerner damping         CNVZerner       .... off
 Static damping         CNVDamp         .... on
   Fraction old density DampFac         ....    0.7000
   Max. Damping (<1)    DampMax         ....    0.9800
   Min. Damping (>=0)   DampMin         ....    0.0000
   Turn off err/grad.   DampErr         ....    0.1000
 Fernandez-Rico         CNVRico         .... off

SCF Procedure:
 Maximum # iterations   MaxIter         ....   125
 SCF integral mode      SCFMode         .... Direct
   Integral package                     .... LIBINT
 Reset frequency        DirectResetFreq ....    20
 Integral Threshold     Thresh          ....  1.000e-10 Eh
 Primitive CutOff       TCut            ....  1.000e-11 Eh

Convergence Tolerance:
 Convergence Check Mode ConvCheckMode   .... Total+1el-Energy
 Convergence forced     ConvForced      .... 0
 Energy Change          TolE            ....  1.000e-06 Eh
 1-El. energy change                    ....  1.000e-03 Eh
 Orbital Gradient       TolG            ....  5.000e-05
 Orbital Rotation angle TolX            ....  5.000e-05
 DIIS Error             TolErr          ....  1.000e-06


Diagonalization of the overlap matrix:
Smallest eigenvalue                        ... 1.197e-05
Time for diagonalization                   ...    0.006 sec
Threshold for overlap eigenvalues          ... 1.000e-08
Number of eigenvalues below threshold      ... 0
Time for construction of square roots      ...    0.003 sec
Total time needed                          ...    0.009 sec

-------------------
DFT GRID GENERATION
-------------------

General Integration Accuracy     IntAcc      ...  4.670
Radial Grid Type                 RadialGrid  ... Gauss-Chebyshev
Angular Grid (max. acc.)         AngularGrid ... Lebedev-302
Angular grid pruning method      GridPruning ... 3 (G Style)
Weight generation scheme         WeightScheme... Becke
Basis function cutoff            BFCut       ...    1.0000e-10
Integration weight cutoff        WCut        ...    1.0000e-14
Grids for H and He will be reduced by one unit

# of grid points (after initial pruning)     ...  28818 (   0.0 sec)
# of grid points (after weights+screening)   ...  27867 (   0.0 sec)
nearest neighbour list constructed           ...    0.0 sec
Grid point re-assignment to atoms done       ...    0.0 sec
Grid point division into batches done        ...    0.1 sec
Reduced shell lists constructed in    0.1 sec

Total number of grid points                  ...    27867
Total number of batches                      ...      439
Average number of points per batch           ...       63
Average number of grid points per atom       ...     4644
Average number of shells per batch           ...    14.10 (23.50%)
Average number of basis functions per batch  ...    34.50 (21.30%)
Average number of large shells per batch     ...     9.20 (65.25%)
Average number of large basis fcns per batch ...    23.40 (67.83%)
Maximum spatial batch extension              ...  15.83, 19.48, 16.05 au
Average spatial batch extension              ...   0.49,  0.59,  0.55 au

Time for grid setup =    0.166 sec

------------------------------
INITIAL GUESS: MODEL POTENTIAL
------------------------------
Loading Hartree-Fock densities                     ... done
Calculating cut-offs                               ... done
Setting up the integral package                    ... done
Initializing the effective Hamiltonian             ... done
Starting the Coulomb interaction                   ... done (   0.0 sec)
Reading the grid                                   ... done
Mapping shells                                     ... done
Starting the XC term evaluation                    ... done (   0.0 sec)
  promolecular density results
     # of electrons  =     21.998529606
     EX              =    -17.559347169
     EC              =     -0.692814598
     EX+EC           =    -18.252161767
Transforming the Hamiltonian                       ... done (   0.0 sec)
Diagonalizing the Hamiltonian                      ... done (   0.0 sec)
Back transforming the eigenvectors                 ... done (   0.0 sec)
Now organizing SCF variables                       ... done
                      ------------------
                      INITIAL GUESS DONE (   0.3 sec)
                      ------------------
--------------
SCF ITERATIONS
--------------
ITER       Energy         Delta-E        Max-DP      RMS-DP      [F,P]     Damp
               ***  Starting incremental Fock matrix formation  ***
  0   -132.5989290874   0.000000000000 0.32649831  0.00475696  0.2572562 0.7000
  1   -132.6531750754  -0.054245988027 0.27843978  0.00415239  0.0957073 0.7000
                               ***Turning on DIIS***
  2   -132.6715919549  -0.018416879540 0.48912774  0.00846839  0.0390538 0.0000
  3   -132.7037058826  -0.032113927643 0.13929783  0.00186404  0.0548723 0.0000
  4   -132.7094809181  -0.005775035461 0.02833327  0.00038581  0.0270853 0.0000
                      *** Initiating the SOSCF procedure ***
                           *** Shutting down DIIS ***
                      *** Re-Reading the Fockian *** 
                      *** Removing any level shift *** 
ITER      Energy       Delta-E        Grad      Rot      Max-DP    RMS-DP
  5   -132.71051817  -0.0010372545  0.000405  0.000405  0.005148  0.000144
               *** Restarting incremental Fock matrix formation ***
  6   -132.71053271  -0.0000145353  0.000165  0.000414  0.004322  0.000102
                 **** Energy Check signals convergence ****
              ***Rediagonalizing the Fockian in SOSCF/NRSCF***

               *****************************************************
               *                     SUCCESS                       *
               *           SCF CONVERGED AFTER   7 CYCLES          *
               *****************************************************


----------------
TOTAL SCF ENERGY
----------------

Total Energy       :         -132.71053282 Eh           -3611.23719 eV

Components:
Nuclear Repulsion  :           58.37362529 Eh            1588.42710 eV
Electronic Energy  :         -191.08415811 Eh           -5199.66429 eV
One Electron Energy:         -293.56457415 Eh           -7988.29818 eV
Two Electron Energy:          102.48041605 Eh            2788.63389 eV

Virial components:
Potential Energy   :         -264.75849771 Eh           -7204.44499 eV
Kinetic Energy     :          132.04796489 Eh            3593.20780 eV
Virial Ratio       :            2.00501763


DFT components:
N(Alpha)           :       10.999997175361 electrons
N(Beta)            :       10.999997175361 electrons
N(Total)           :       21.999994350723 electrons
E(XC)              :      -13.870085437358 Eh       
DFET-embed. en.    :        0.000000000000 Eh       

---------------
SCF CONVERGENCE
---------------

  Last Energy change         ...   -1.0779e-07  Tolerance :   1.0000e-06
  Last MAX-Density change    ...    1.6166e-03  Tolerance :   1.0000e-05
  Last RMS-Density change    ...    3.3221e-05  Tolerance :   1.0000e-06
  Last Orbital Gradient      ...    2.4320e-04  Tolerance :   5.0000e-05
  Last Orbital Rotation      ...    3.1490e-04  Tolerance :   5.0000e-05

             **** THE GBW FILE WAS UPDATED (MOR21_mecn.gbw) ****
             **** DENSITY FILE WAS UPDATED (MOR21_mecn.scfp) ****
             **** ENERGY FILE WAS UPDATED (MOR21_mecn.en.tmp) ****
             **** THE GBW FILE WAS UPDATED (MOR21_mecn.gbw) ****
             **** DENSITY FILE WAS UPDATED (MOR21_mecn.scfp) ****
----------------
ORBITAL ENERGIES
----------------

  NO   OCC          E(Eh)            E(eV) 
   0   2.0000     -14.384916      -391.4335 
   1   2.0000     -10.288247      -279.9574 
   2   2.0000     -10.279039      -279.7069 
   3   2.0000      -0.913316       -24.8526 
   4   2.0000      -0.789649       -21.4874 
   5   2.0000      -0.529724       -14.4145 
   6   2.0000      -0.478343       -13.0164 
   7   2.0000      -0.478319       -13.0157 
   8   2.0000      -0.375443       -10.2163 
   9   2.0000      -0.348376        -9.4798 
  10   2.0000      -0.348374        -9.4797 
  11   0.0000      -0.035550        -0.9674 
  12   0.0000       0.008063         0.2194 
  13   0.0000       0.018862         0.5132 
  14   0.0000       0.018869         0.5134 
  15   0.0000       0.050357         1.3703 
  16   0.0000       0.050369         1.3706 
  17   0.0000       0.069486         1.8908 
  18   0.0000       0.079654         2.1675 
  19   0.0000       0.079740         2.1698 
  20   0.0000       0.120601         3.2817 
  21   0.0000       0.123471         3.3598 
  22   0.0000       0.123588         3.3630 
  23   0.0000       0.161636         4.3983 
  24   0.0000       0.194332         5.2880 
  25   0.0000       0.194417         5.2903 
  26   0.0000       0.194638         5.2964 
  27   0.0000       0.225993         6.1496 
  28   0.0000       0.228948         6.2300 
  29   0.0000       0.228963         6.2304 
  30   0.0000       0.229066         6.2332 
  31   0.0000       0.236902         6.4464 
  32   0.0000       0.238197         6.4817 
  33   0.0000       0.238241         6.4829 
  34   0.0000       0.291400         7.9294 
  35   0.0000       0.330295         8.9878 
  36   0.0000       0.330409         8.9909 
  37   0.0000       0.347848         9.4654 
  38   0.0000       0.347907         9.4670 
  39   0.0000       0.380986        10.3672 
  40   0.0000       0.436781        11.8854 
  41   0.0000       0.436844        11.8871 
  42   0.0000       0.437068        11.8932 
  43   0.0000       0.459335        12.4991 
  44   0.0000       0.459356        12.4997 
  45   0.0000       0.504527        13.7289 
  46   0.0000       0.504622        13.7315 
  47   0.0000       0.509980        13.8773 
  48   0.0000       0.553385        15.0584 
  49   0.0000       0.553499        15.0615 
  50   0.0000       0.558642        15.2014 
  51   0.0000       0.619740        16.8640 
  52   0.0000       0.622872        16.9492 
  53   0.0000       0.622954        16.9514 
  54   0.0000       0.650112        17.6904 
  55   0.0000       0.679606        18.4930 
  56   0.0000       0.679665        18.4946 
  57   0.0000       0.731739        19.9116 
  58   0.0000       0.785116        21.3641 
  59   0.0000       0.785247        21.3677 
  60   0.0000       0.825976        22.4760 
  61   0.0000       0.826032        22.4775 
  62   0.0000       0.854434        23.2503 
  63   0.0000       0.923376        25.1263 
  64   0.0000       0.943607        25.6768 
  65   0.0000       1.085254        29.5313 
  66   0.0000       1.085323        29.5331 
  67   0.0000       1.120029        30.4775 
  68   0.0000       1.120316        30.4854 
  69   0.0000       1.145622        31.1740 
  70   0.0000       1.221980        33.2518 
  71   0.0000       1.222266        33.2595 
  72   0.0000       1.222426        33.2639 
  73   0.0000       1.413657        38.4676 
  74   0.0000       1.413718        38.4692 
  75   0.0000       1.430201        38.9177 
  76   0.0000       1.474189        40.1147 
  77   0.0000       1.474298        40.1177 
  78   0.0000       1.501648        40.8619 
  79   0.0000       1.504862        40.9494 
  80   0.0000       1.504950        40.9518 
  81   0.0000       1.598185        43.4888 
  82   0.0000       1.662633        45.2426 
  83   0.0000       1.662739        45.2454 
  84   0.0000       1.799385        48.9638 
  85   0.0000       1.799416        48.9646 
  86   0.0000       1.817396        49.4539 
  87   0.0000       1.996537        54.3285 
  88   0.0000       2.115906        57.5767 
  89   0.0000       2.116012        57.5796 
  90   0.0000       2.289479        62.2999 
  91   0.0000       2.467176        67.1353 
  92   0.0000       2.516659        68.4818 
  93   0.0000       2.549621        69.3787 
  94   0.0000       2.549650        69.3795 
  95   0.0000       2.592429        70.5436 
  96   0.0000       2.621470        71.3338 
  97   0.0000       2.645884        71.9982 
  98   0.0000       2.646150        72.0054 
  99   0.0000       2.755503        74.9810 
 100   0.0000       2.773449        75.4694 
 101   0.0000       2.773548        75.4721 
 102   0.0000       2.776635        75.5561 
 103   0.0000       2.824653        76.8627 
 104   0.0000       2.824965        76.8712 
 105   0.0000       2.948202        80.2247 
 106   0.0000       2.948366        80.2291 
 107   0.0000       3.041343        82.7591 
 108   0.0000       3.041666        82.7679 
 109   0.0000       3.086654        83.9921 
 110   0.0000       3.086932        83.9997 
 111   0.0000       3.199953        87.0751 
 112   0.0000       3.248630        88.3997 
 113   0.0000       3.248864        88.4061 
 114   0.0000       3.263458        88.8032 
 115   0.0000       3.349978        91.1575 
 116   0.0000       3.413249        92.8792 
 117   0.0000       3.413644        92.8900 
 118   0.0000       3.475855        94.5828 
 119   0.0000       3.519125        95.7603 
 120   0.0000       3.519327        95.7658 
 121   0.0000       3.606075        98.1263 
 122   0.0000       3.849483       104.7498 
 123   0.0000       3.849815       104.7588 
 124   0.0000       3.859992       105.0357 
 125   0.0000       3.898693       106.0888 
 126   0.0000       3.898959       106.0961 
 127   0.0000       3.980926       108.3265 
 128   0.0000       3.982628       108.3728 
 129   0.0000       4.074638       110.8766 
 130   0.0000       4.074762       110.8799 
 131   0.0000       4.076361       110.9234 
 132   0.0000       4.186679       113.9253 
 133   0.0000       4.325781       117.7105 
 134   0.0000       4.325971       117.7157 
 135   0.0000       4.379210       119.1644 
 136   0.0000       4.549153       123.7887 
 137   0.0000       4.549292       123.7925 
 138   0.0000       4.672049       127.1329 
 139   0.0000       4.690181       127.6263 
 140   0.0000       4.690652       127.6391 
 141   0.0000       4.762756       129.6012 
 142   0.0000       4.762772       129.6016 
 143   0.0000       4.799418       130.5988 
 144   0.0000       4.970502       135.2542 
 145   0.0000       5.092137       138.5641 
 146   0.0000       5.092201       138.5658 
 147   0.0000       5.126580       139.5013 
 148   0.0000       5.127351       139.5223 
 149   0.0000       5.184473       141.0767 
 150   0.0000       5.243075       142.6713 
 151   0.0000       5.243213       142.6751 
 152   0.0000       5.375651       146.2789 
 153   0.0000       5.550585       151.0391 
 154   0.0000       5.550955       151.0492 
 155   0.0000       5.621873       152.9789 
 156   0.0000       5.765686       156.8923 
 157   0.0000       5.765974       156.9001 
 158   0.0000       6.111690       166.3075 
 159   0.0000      23.470605       638.6676 
 160   0.0000      23.646231       643.4467 
 161   0.0000      32.378497       881.0637 

                    ********************************
                    * MULLIKEN POPULATION ANALYSIS *
                    ********************************

-----------------------
MULLIKEN ATOMIC CHARGES
-----------------------
   0 N :   -0.528107
   1 C :    0.394838
   2 C :   -1.052829
   3 H :    0.396459
   4 H :    0.393667
   5 H :    0.395973
Sum of atomic charges:    0.0000000

--------------------------------
MULLIKEN REDUCED ORBITAL CHARGES
--------------------------------
  0 N s       :     4.374163  s :     4.374163
      pz      :     1.085364  p :     3.094506
      px      :     0.924130
      py      :     1.085012
      dz2     :     0.002250  d :     0.057892
      dxz     :     0.024373
      dyz     :     0.000253
      dx2y2   :     0.006597
      dxy     :     0.024420
      f0      :     0.000394  f :     0.001546
      f+1     :    -0.000208
      f-1     :     0.000065
      f+2     :     0.000651
      f-2     :     0.000012
      f+3     :    -0.000328
      f-3     :     0.000959
  1 C s       :     3.341769  s :     3.341769
      pz      :     0.826749  p :     2.319189
      px      :     0.666252
      py      :     0.826189
      dz2     :    -0.028476  d :    -0.073051
      dxz     :     0.020492
      dyz     :    -0.001838
      dx2y2   :    -0.081622
      dxy     :     0.018393
      f0      :     0.002814  f :     0.017254
      f+1     :     0.000834
      f-1     :     0.000470
      f+2     :     0.004648
      f-2     :     0.000092
      f+3     :     0.001456
      f-3     :     0.006939
  2 C s       :     3.534278  s :     3.534278
      pz      :     1.382178  p :     3.407186
      px      :     0.644234
      py      :     1.380774
      dz2     :     0.018966  d :     0.111512
      dxz     :     0.030426
      dyz     :     0.029464
      dx2y2   :     0.000278
      dxy     :     0.032378
      f0      :    -0.000058  f :    -0.000147
      f+1     :     0.000032
      f-1     :     0.000111
      f+2     :    -0.000124
      f-2     :    -0.000384
      f+3     :     0.000399
      f-3     :    -0.000123
  3 H s       :     0.546635  s :     0.546635
      pz      :     0.023379  p :     0.055426
      px      :     0.004117
      py      :     0.027929
      dz2     :     0.000547  d :     0.001480
      dxz     :     0.000277
      dyz     :     0.000115
      dx2y2   :     0.000372
      dxy     :     0.000169
  4 H s       :     0.548697  s :     0.548697
      pz      :     0.029000  p :     0.056169
      px      :     0.005536
      py      :     0.021634
      dz2     :    -0.000083  d :     0.001467
      dxz     :     0.000134
      dyz     :     0.000678
      dx2y2   :     0.000534
      dxy     :     0.000203
  5 H s       :     0.546644  s :     0.546644
      pz      :     0.025538  p :     0.055934
      px      :     0.002557
      py      :     0.027838
      dz2     :     0.000535  d :     0.001449
      dxz     :     0.000380
      dyz     :    -0.000005
      dx2y2   :     0.000341
      dxy     :     0.000199


                     *******************************
                     * LOEWDIN POPULATION ANALYSIS *
                     *******************************

----------------------
LOEWDIN ATOMIC CHARGES
----------------------
   0 N :    0.108891
   1 C :   -0.229612
   2 C :    0.130202
   3 H :   -0.003174
   4 H :   -0.003187
   5 H :   -0.003121

-------------------------------
LOEWDIN REDUCED ORBITAL CHARGES
-------------------------------
  0 N s       :     3.275297  s :     3.275297
      pz      :     0.983202  p :     3.403024
      px      :     1.435709
      py      :     0.984113
      dz2     :     0.023889  d :     0.196316
      dxz     :     0.050366
      dyz     :     0.000227
      dx2y2   :     0.071229
      dxy     :     0.050606
      f0      :     0.001812  f :     0.016473
      f+1     :     0.002544
      f-1     :     0.000307
      f+2     :     0.002998
      f-2     :     0.000056
      f+3     :     0.004232
      f-3     :     0.004524
  1 C s       :     2.761235  s :     2.761235
      pz      :     0.785852  p :     2.675227
      px      :     1.102884
      py      :     0.786491
      dz2     :     0.071794  d :     0.732932
      dxz     :     0.221790
      dyz     :     0.003082
      dx2y2   :     0.211930
      dxy     :     0.224337
      f0      :     0.006743  f :     0.060217
      f+1     :     0.009058
      f-1     :     0.001144
      f+2     :     0.011118
      f-2     :     0.000270
      f+3     :     0.015035
      f-3     :     0.016848
  2 C s       :     2.649748  s :     2.649748
      pz      :     0.937200  p :     2.756743
      px      :     0.882442
      py      :     0.937102
      dz2     :     0.067764  d :     0.433749
      dxz     :     0.099553
      dyz     :     0.051817
      dx2y2   :     0.106538
      dxy     :     0.108077
      f0      :     0.001793  f :     0.029558
      f+1     :     0.005280
      f-1     :     0.004841
      f+2     :     0.003171
      f-2     :     0.003083
      f+3     :     0.006898
      f-3     :     0.004491
  3 H s       :     0.695083  s :     0.695083
      pz      :     0.113380  p :     0.278227
      px      :     0.076807
      py      :     0.088040
      dz2     :     0.009292  d :     0.029864
      dxz     :     0.006655
      dyz     :     0.007562
      dx2y2   :     0.003520
      dxy     :     0.002835
  4 H s       :     0.695092  s :     0.695092
      pz      :     0.076202  p :     0.278236
      px      :     0.078943
      py      :     0.123092
      dz2     :     0.002690  d :     0.029859
      dxz     :     0.001335
      dyz     :     0.008717
      dx2y2   :     0.008768
      dxy     :     0.008349
  5 H s       :     0.695058  s :     0.695058
      pz      :     0.112772  p :     0.278210
      px      :     0.074357
      py      :     0.091081
      dz2     :     0.009317  d :     0.029853
      dxz     :     0.006308
      dyz     :     0.007642
      dx2y2   :     0.003613
      dxy     :     0.002972


                      *****************************
                      * MAYER POPULATION ANALYSIS *
                      *****************************

  NA   - Mulliken gross atomic population
  ZA   - Total nuclear charge
  QA   - Mulliken gross atomic charge
  VA   - Mayer's total valence
  BVA  - Mayer's bonded valence
  FA   - Mayer's free valence

  ATOM       NA         ZA         QA         VA         BVA        FA
  0 N      7.5281     7.0000    -0.5281     1.9366     1.9366    -0.0000
  1 C      5.6052     6.0000     0.3948     2.1148     2.1148     0.0000
  2 C      7.0528     6.0000    -1.0528     3.2441     3.2441     0.0000
  3 H      0.6035     1.0000     0.3965     0.9446     0.9446     0.0000
  4 H      0.6063     1.0000     0.3937     0.9488     0.9488    -0.0000
  5 H      0.6040     1.0000     0.3960     0.9457     0.9457     0.0000

  Mayer bond orders larger than 0.100000
B(  0-N ,  1-C ) :   1.8270 B(  1-C ,  2-C ) :   0.4656 B(  2-C ,  3-H ) :   0.8999 
B(  2-C ,  4-H ) :   0.9042 B(  2-C ,  5-H ) :   0.9007 

-------
TIMINGS
-------

Total SCF time: 0 days 0 hours 0 min 2 sec 

Total time                  ....       2.561 sec
Sum of individual times     ....       2.360 sec  ( 92.1%)

Fock matrix formation       ....       2.024 sec  ( 79.0%)
  XC integration            ....       0.414 sec  ( 20.4% of F)
    Basis function eval.    ....       0.033 sec  (  8.1% of XC)
    Density eval.           ....       0.057 sec  ( 13.8% of XC)
    XC-Functional eval.     ....       0.064 sec  ( 15.4% of XC)
    XC-Potential eval.      ....       0.126 sec  ( 30.4% of XC)
Diagonalization             ....       0.022 sec  (  0.9%)
Density matrix formation    ....       0.005 sec  (  0.2%)
Population analysis         ....       0.005 sec  (  0.2%)
Initial guess               ....       0.126 sec  (  4.9%)
Orbital Transformation      ....       0.000 sec  (  0.0%)
Orbital Orthonormalization  ....       0.000 sec  (  0.0%)
DIIS solution               ....       0.007 sec  (  0.3%)
SOSCF solution              ....       0.004 sec  (  0.2%)
Grid generation             ....       0.166 sec  (  6.5%)


-------------------------------------------------------------------------------
                          DFT DISPERSION CORRECTION                            
                                                                               
                              DFTD3 V3.1  Rev 1                                
                              USING zero damping                               
-------------------------------------------------------------------------------
The M06 functional is recognized
Active option DFTDOPT                   ...         3   

molecular C6(AA) [au] = 386.358522 


            DFT-D V3
 parameters
 s6 scaling factor         :     1.0000 
 rs6 scaling factor        :     1.3250 
 s8 scaling factor         :     0.0000 
 rs8 scaling factor        :     1.0000 
 Damping factor alpha6     :    14.0000 
 Damping factor alpha8     :    16.0000 
 ad hoc parameters k1-k3   :    16.0000     1.3333    -4.0000 

 Edisp/kcal,au: -0.058106374451  -0.000092598392 
 E6   /kcal   :  -0.058106374 
 E8   /kcal   :  -0.000000000 
 % E8         :   0.000000000 

-------------------------   ----------------
Dispersion correction           -0.000092598
-------------------------   ----------------


-------------------------   --------------------
FINAL SINGLE POINT ENERGY      -132.710625414012
-------------------------   --------------------


                            ***************************************
                            *     ORCA property calculations      *
                            ***************************************

                                    ---------------------
                                    Active property flags
                                    ---------------------
   (+) Dipole Moment


------------------------------------------------------------------------------
                       ORCA ELECTRIC PROPERTIES CALCULATION
------------------------------------------------------------------------------

Dipole Moment Calculation                       ... on
Quadrupole Moment Calculation                   ... off
Polarizability Calculation                      ... off
GBWName                                         ... MOR21_mecn.gbw
Electron density file                           ... MOR21_mecn.scfp
The origin for moment calculation is the CENTER OF MASS  = ( 0.212467,  0.012369 -0.007883)

-------------
DIPOLE MOMENT
-------------
                                X             Y             Z
Electronic contribution:      3.11681       0.18147      -0.11536
Nuclear contribution   :     -4.67428      -0.27212       0.17343
                        -----------------------------------------
Total Dipole Moment    :     -1.55747      -0.09065       0.05807
                        -----------------------------------------
Magnitude (a.u.)       :      1.56118
Magnitude (Debye)      :      3.96821



--------------------
Rotational spectrum 
--------------------
 
Rotational constants in cm-1:     5.279638     0.306561     0.306561 
Rotational constants in MHz : 158279.554854  9190.460473  9190.452676 

 Dipole components along the rotational axes: 
x,y,z [a.u.] :     1.561183     0.000242     0.000141 
x,y,z [Debye]:     3.968211     0.000616     0.000358 

 

Timings for individual modules:

Sum of individual times         ...        3.591 sec (=   0.060 min)
GTO integral calculation        ...        0.664 sec (=   0.011 min)  18.5 %
SCF iterations                  ...        2.927 sec (=   0.049 min)  81.5 %
                             ****ORCA TERMINATED NORMALLY****
TOTAL RUN TIME: 0 days 0 hours 0 minutes 4 seconds 73 msec
