
                                 *****************
                                 * O   R   C   A *
                                 *****************

           --- An Ab Initio, DFT and Semiempirical electronic structure package ---

                  #######################################################
                  #                        -***-                        #
                  #          Department of theory and spectroscopy      #
                  #               Directorship: Frank Neese             #
                  #        Max Planck Institute fuer Kohlenforschung    #
                  #                Kaiser Wilhelm Platz 1               #
                  #                 D-45470 Muelheim/Ruhr               #
                  #                      Germany                        #
                  #                                                     #
                  #                  All rights reserved                #
                  #                        -***-                        #
                  #######################################################


                         Program Version 4.2.0 -  RELEASE  -


 With contributions from (in alphabetic order):
   Daniel Aravena         : Magnetic Suceptibility
   Michael Atanasov       : Ab Initio Ligand Field Theory (pilot matlab implementation)
   Alexander A. Auer      : GIAO ZORA, VPT2
   Ute Becker             : Parallelization
   Giovanni Bistoni       : ED, misc. LED, open-shell LED, HFLED
   Martin Brehm           : Molecular dynamics
   Dmytro Bykov           : SCF Hessian
   Vijay G. Chilkuri      : MRCI spin determinant printing, contributions to CSF-ICE
   Dipayan Datta          : RHF DLPNO-CCSD density
   Achintya Kumar Dutta   : EOM-CC, STEOM-CC
   Dmitry Ganyushin       : Spin-Orbit,Spin-Spin,Magnetic field MRCI
   Miquel Garcia          : C-PCM Hessian, Gaussian charge scheme
   Yang Guo               : DLPNO-NEVPT2, CIM, IAO-localization
   Andreas Hansen         : Spin unrestricted coupled pair/coupled cluster methods
   Benjamin Helmich-Paris : CASSCF linear response (MC-RPA)
   Lee Huntington         : MR-EOM, pCC
   Robert Izsak           : Overlap fitted RIJCOSX, COSX-SCS-MP3, EOM
   Christian Kollmar      : KDIIS, OOCD, Brueckner-CCSD(T), CCSD density
   Simone Kossmann        : Meta GGA functionals, TD-DFT gradient, OOMP2, MP2 Hessian
   Martin Krupicka        : AUTO-CI
   Lucas Lang             : DCDCAS
   Dagmar Lenk            : GEPOL surface, SMD
   Dimitrios Liakos       : Extrapolation schemes; Compound Job, initial MDCI parallelization
   Dimitrios Manganas     : Further ROCIS development; embedding schemes
   Dimitrios Pantazis     : SARC Basis sets
   Taras Petrenko         : DFT Hessian,TD-DFT gradient, ASA, ECA, R-Raman, ABS, FL, XAS/XES, NRVS
   Peter Pinski           : DLPNO-MP2, DLPNO-MP2 Gradient
   Christoph Reimann      : Effective Core Potentials
   Marius Retegan         : Local ZFS, SOC
   Christoph Riplinger    : Optimizer, TS searches, QM/MM, DLPNO-CCSD(T), (RO)-DLPNO pert. Triples
   Tobias Risthaus        : Range-separated hybrids, TD-DFT gradient, RPA, STAB
   Michael Roemelt        : Original ROCIS implementation
   Masaaki Saitow         : Open-shell DLPNO-CCSD energy and density
   Barbara Sandhoefer     : DKH picture change effects
   Avijit Sen             : IP-ROCIS
   Kantharuban Sivalingam : CASSCF convergence, NEVPT2, FIC-MRCI
   Bernardo de Souza      : ESD, SOC TD-DFT
   Georgi Stoychev        : AutoAux, RI-MP2 NMR
   Willem Van den Heuvel  : Paramagnetic NMR
   Boris Wezisla          : Elementary symmetry handling
   Frank Wennmohs         : Technical directorship


 We gratefully acknowledge several colleagues who have allowed us to
 interface, adapt or use parts of their codes:
   Stefan Grimme, W. Hujo, H. Kruse,             : VdW corrections, initial TS optimization,
                  C. Bannwarth                     DFT functionals, gCP, sTDA/sTD-DF
   Ed Valeev, F. Pavosevic, A. Kumar             : LibInt (2-el integral package), F12 methods
   Garnet Chan, S. Sharma, J. Yang, R. Olivares  : DMRG
   Ulf Ekstrom                                   : XCFun DFT Library
   Mihaly Kallay                                 : mrcc  (arbitrary order and MRCC methods)
   Andreas Klamt, Michael Diedenhofen            : otool_cosmo (COSMO solvation model)
   Jiri Pittner, Ondrej Demel                    : Mk-CCSD
   Frank Weinhold                                : gennbo (NPA and NBO analysis)
   Christopher J. Cramer and Donald G. Truhlar   : smd solvation model
   Lars Goerigk                                  : TD-DFT with DH, B97 family of functionals
   V. Asgeirsson, H. Jonsson                     : NEB implementation
   FAccTs GmbH                                   : IRC, NEB, NEB-TS, Multilevel, MM, QM/MM, CI optimization
   S Lehtola, MJT Oliveira, MAL Marques          : LibXC Library


 Your calculation uses the libint2 library for the computation of 2-el integrals
 For citations please refer to: http://libint.valeyev.net

 Your ORCA version has been built with support for libXC version: 4.2.3
 For citations please refer to: https://tddft.org/programs/libxc/

 This ORCA versions uses:
   CBLAS   interface :  Fast vector & matrix operations
   LAPACKE interface :  Fast linear algebra routines
   SCALAPACK package :  Parallel linear algebra routines


Your calculation utilizes the atom-pairwise dispersion correction
with the zero-damping scheme (D30)
Cite in your paper:
S.Grimme, J.Antony, S.Ehrlich and H.Krieg, J.Chem.Phys., 132, (2010), 154104 
   

XCFun DFT library Copyright 2009-2010 Ulf Ekstrom and contributors.
See http://admol.org/xcfun for more information. This is free soft-
ware; see the source code for copying conditions. There is ABSOLUTELY
NO WARRANTY; not even for MERCHANTABILITY or FITNESS FOR A PARTICULAR
PURPOSE. For details see the documentation. Scientific users of this 
library should cite U. Ekstrom, L. Visscher, R. Bast, A. J. Thorvald-
sen and K. Ruud; J.Chem.Theor.Comp. 2010, DOI: 10.1021/ct100117s
XCFun Version 0.99 
----- Orbital basis set information -----
Your calculation utilizes the basis: def2-TZVPPD
   F. Weigend and R. Ahlrichs, Phys. Chem. Chem. Phys. 7, 3297 (2005).
   D. Rappoport and F. Furche, J. Chem. Phys. 133 134105 (2010).

----- AuxJK basis set information -----
Your calculation utilizes the auxiliary basis: def2/JK
   H-Ba, Hf-Rn: F. Weigend, J. Comput. Chem. 29, 167 (2008).

================================================================================
                                        WARNINGS
                       Please study these warnings very carefully!
================================================================================


WARNING: Minnesota functionals are quite sensitive to the integration grid.
         see SE Wheeler, KN Houk, JCTC 2010, 6, 395,
             N Mardirossian, M Head-Gordon, JCTC 2016, 12, 4303.
         Grid6 seems to be a minimum grid for reliable results with these functionals!
  ===> : Please increase the integration grid!


INFO   : the flag for use of LIBINT has been found!

================================================================================
                                       INPUT FILE
================================================================================
NAME = MOR23_phseh.in
|  1> #
|  2> # MOR23_phseh M06-D3/Def2-TZVPPD
|  3> #
|  4> ! m06 d3zero def2-tzvppd def2/jk grid4 nofinalgrid
|  5> 
|  6> *xyz 0 1
|  7> C        0.099641    0.015172    0.000002 
|  8> C        0.811159    1.219454    0.000004 
|  9> C        2.205438    1.200000    0.000001 
| 10> C        2.898295   -0.010923    0.000001 
| 11> C        2.184022   -1.209573    0.000001 
| 12> C        0.790170   -1.202154    0.000003 
| 13> Se      -1.821201   -0.043502   -0.000002 
| 14> H       -1.984560    1.419830   -0.000002 
| 15> H        0.283594    2.168662    0.000009 
| 16> H        2.749671    2.140448   -0.000003 
| 17> H        3.983980   -0.020380    0.000003 
| 18> H        2.711288   -2.159513   -0.000002 
| 19> H        0.244496   -2.141840    0.000007 
| 20> *
| 21> 
| 22> %maxcore 5000
| 23> 
| 24> %pal
| 25> nprocs = 24
| 26> end
| 27> 
| 28> 
| 29>                          ****END OF INPUT****
================================================================================

                       ****************************
                       * Single Point Calculation *
                       ****************************

---------------------------------
CARTESIAN COORDINATES (ANGSTROEM)
---------------------------------
  C      0.099641    0.015172    0.000002
  C      0.811159    1.219454    0.000004
  C      2.205438    1.200000    0.000001
  C      2.898295   -0.010923    0.000001
  C      2.184022   -1.209573    0.000001
  C      0.790170   -1.202154    0.000003
  Se    -1.821201   -0.043502   -0.000002
  H     -1.984560    1.419830   -0.000002
  H      0.283594    2.168662    0.000009
  H      2.749671    2.140448   -0.000003
  H      3.983980   -0.020380    0.000003
  H      2.711288   -2.159513   -0.000002
  H      0.244496   -2.141840    0.000007

----------------------------
CARTESIAN COORDINATES (A.U.)
----------------------------
  NO LB      ZA    FRAG     MASS         X           Y           Z
   0 C     6.0000    0    12.011    0.188294    0.028671    0.000004
   1 C     6.0000    0    12.011    1.532868    2.304434    0.000008
   2 C     6.0000    0    12.011    4.167674    2.267671    0.000002
   3 C     6.0000    0    12.011    5.476984   -0.020641    0.000002
   4 C     6.0000    0    12.011    4.127203   -2.285762    0.000002
   5 C     6.0000    0    12.011    1.493205   -2.271742    0.000006
   6 Se   34.0000    0    78.960   -3.441571   -0.082207   -0.000004
   7 H     1.0000    0     1.008   -3.750275    2.683090   -0.000004
   8 H     1.0000    0     1.008    0.535915    4.098177    0.000017
   9 H     1.0000    0     1.008    5.196125    4.044861   -0.000006
  10 H     1.0000    0     1.008    7.528631   -0.038513    0.000006
  11 H     1.0000    0     1.008    5.123592   -4.080888   -0.000004
  12 H     1.0000    0     1.008    0.462030   -4.047491    0.000013

--------------------------------
INTERNAL COORDINATES (ANGSTROEM)
--------------------------------
 C      0   0   0     0.000000000000     0.00000000     0.00000000
 C      1   0   0     1.398768386779     0.00000000     0.00000000
 C      2   1   0     1.394414711614   119.77620744     0.00000000
 C      3   2   1     1.395129146129   120.57638934     0.00000000
 C      4   3   2     1.395330692355   119.43236668     0.00000000
 C      5   4   3     1.393871744268   120.48566165     0.00000000
 Se     1   2   3     1.921737918462   122.32519984   180.00027818
 H      7   1   2     1.472422054000    94.62022631     0.00000000
 H      2   1   3     1.085965310917   120.35932807   180.00006886
 H      3   2   1     1.086568911302   119.25839146   179.99966238
 H      4   3   2     1.085726187433   120.27607831   180.00026539
 H      5   4   3     1.086460049134   120.17682735   179.99981699
 H      6   5   4     1.086632363262   119.83869653   180.00024439

---------------------------
INTERNAL COORDINATES (A.U.)
---------------------------
 C      0   0   0     0.000000000000     0.00000000     0.00000000
 C      1   0   0     2.643289175799     0.00000000     0.00000000
 C      2   1   0     2.635061922062   119.77620744     0.00000000
 C      3   2   1     2.636412007635   120.57638934     0.00000000
 C      4   3   2     2.636792874806   119.43236668     0.00000000
 C      5   4   3     2.634035862478   120.48566165     0.00000000
 Se     1   2   3     3.631558367066   122.32519984   180.00027818
 H      7   1   2     2.782474435605    94.62022631     0.00000000
 H      2   1   3     2.052177028571   120.35932807   180.00006886
 H      3   2   1     2.053317667995   119.25839146   179.99966238
 H      4   3   2     2.051725150675   120.27607831   180.00026539
 H      5   4   3     2.053111948311   120.17682735   179.99981699
 H      6   5   4     2.053437574821   119.83869653   180.00024439

---------------------
BASIS SET INFORMATION
---------------------
There are 3 groups of distinct atoms

 Group   1 Type C   : 12s6p3d1f contracted to 6s3p3d1f pattern {621111/411/111/1}
 Group   2 Type Se  : 18s14p9d1f contracted to 7s6p5d1f pattern {8421111/641111/51111/1}
 Group   3 Type H   : 5s3p1d contracted to 3s3p1d pattern {311/111/1}

Atom   0C    basis set group =>   1
Atom   1C    basis set group =>   1
Atom   2C    basis set group =>   1
Atom   3C    basis set group =>   1
Atom   4C    basis set group =>   1
Atom   5C    basis set group =>   1
Atom   6Se   basis set group =>   2
Atom   7H    basis set group =>   3
Atom   8H    basis set group =>   3
Atom   9H    basis set group =>   3
Atom  10H    basis set group =>   3
Atom  11H    basis set group =>   3
Atom  12H    basis set group =>   3
----------------------------------
AUXILIARY/JK BASIS SET INFORMATION
----------------------------------
There are 3 groups of distinct atoms

 Group   1 Type C   : 14s10p6d2f1g contracted to 10s8p5d1f1g pattern {5111111111/31111111/21111/2/1}
 Group   2 Type Se  : 20s14p13d10f7g3h contracted to 17s13p12d9f6g3h pattern {41111111111111111/2111111111111/211111111111/211111111/211111/111}
 Group   3 Type H   : 4s2p2d contracted to 2s2p2d pattern {31/11/11}

Atom   0C    basis set group =>   1
Atom   1C    basis set group =>   1
Atom   2C    basis set group =>   1
Atom   3C    basis set group =>   1
Atom   4C    basis set group =>   1
Atom   5C    basis set group =>   1
Atom   6Se   basis set group =>   2
Atom   7H    basis set group =>   3
Atom   8H    basis set group =>   3
Atom   9H    basis set group =>   3
Atom  10H    basis set group =>   3
Atom  11H    basis set group =>   3
Atom  12H    basis set group =>   3


           ************************************************************
           *        Program running with 24 parallel MPI-processes    *
           *              working on a common directory               *
           ************************************************************
------------------------------------------------------------------------------
                           ORCA GTO INTEGRAL CALCULATION
------------------------------------------------------------------------------

                         BASIS SET STATISTICS AND STARTUP INFO

 # of primitive gaussian shells          ...  228
 # of primitive gaussian functions       ...  538
 # of contracted shells                  ...  139
 # of contracted basis functions         ...  381
 Highest angular momentum                ...    3
 Maximum contraction depth               ...    8
 Integral package used                   ... LIBINT
 Integral threshhold            Thresh   ...  1.000e-10
 Primitive cut-off              TCut     ...  1.000e-11


------------------------------ INTEGRAL EVALUATION ----------------------------


 * One electron integrals 
 Pre-screening matrix                    ... done
 Shell pair data                         ... done (   0.002 sec)



           ************************************************************
           *        Program running with 24 parallel MPI-processes    *
           *              working on a common directory               *
           ************************************************************
-------------------------------------------------------------------------------
                                 ORCA SCF
-------------------------------------------------------------------------------

------------
SCF SETTINGS
------------
Hamiltonian:
 Density Functional     Method          .... DFT(GTOs)
 Exchange Functional    Exchange        .... M06
 Correlation Functional Correlation     .... M06
 Gradients option       PostSCFGGA      .... off
 Hybrid DFT is turned on
   Fraction HF Exchange ScalHFX         ....  0.270000
   Scaling of DF-GGA-X  ScalDFX         ....  0.730000
   Scaling of DF-GGA-C  ScalDFC         ....  1.000000
   Scaling of DF-LDA-C  ScalLDAC        ....  1.000000
   Perturbative correction              ....  0.000000
   Density functional embedding theory  .... OFF


General Settings:
 Integral files         IntName         .... MOR23_phseh
 Hartree-Fock type      HFTyp           .... RHF
 Total Charge           Charge          ....    0
 Multiplicity           Mult            ....    1
 Number of Electrons    NEL             ....   76
 Basis Dimension        Dim             ....  381
 Nuclear Repulsion      ENuc            ....    439.5965001411 Eh

Convergence Acceleration:
 DIIS                   CNVDIIS         .... on
   Start iteration      DIISMaxIt       ....    12
   Startup error        DIISStart       ....  0.200000
   # of expansion vecs  DIISMaxEq       ....     5
   Bias factor          DIISBfac        ....   1.050
   Max. coefficient     DIISMaxC        ....  10.000
 Newton-Raphson         CNVNR           .... off
 SOSCF                  CNVSOSCF        .... on
   Start iteration      SOSCFMaxIt      ....   150
   Startup grad/error   SOSCFStart      ....  0.003300
 Level Shifting         CNVShift        .... on
   Level shift para.    LevelShift      ....    0.2500
   Turn off err/grad.   ShiftErr        ....    0.0010
 Zerner damping         CNVZerner       .... off
 Static damping         CNVDamp         .... on
   Fraction old density DampFac         ....    0.7000
   Max. Damping (<1)    DampMax         ....    0.9800
   Min. Damping (>=0)   DampMin         ....    0.0000
   Turn off err/grad.   DampErr         ....    0.1000
 Fernandez-Rico         CNVRico         .... off

SCF Procedure:
 Maximum # iterations   MaxIter         ....   125
 SCF integral mode      SCFMode         .... Direct
   Integral package                     .... LIBINT
 Reset frequency        DirectResetFreq ....    20
 Integral Threshold     Thresh          ....  1.000e-10 Eh
 Primitive CutOff       TCut            ....  1.000e-11 Eh

Convergence Tolerance:
 Convergence Check Mode ConvCheckMode   .... Total+1el-Energy
 Convergence forced     ConvForced      .... 0
 Energy Change          TolE            ....  1.000e-06 Eh
 1-El. energy change                    ....  1.000e-03 Eh
 Orbital Gradient       TolG            ....  5.000e-05
 Orbital Rotation angle TolX            ....  5.000e-05
 DIIS Error             TolErr          ....  1.000e-06


Diagonalization of the overlap matrix:
Smallest eigenvalue                        ... 6.009e-07
Time for diagonalization                   ...    0.023 sec
Threshold for overlap eigenvalues          ... 1.000e-08
Number of eigenvalues below threshold      ... 0
Time for construction of square roots      ...    0.019 sec
Total time needed                          ...    0.044 sec

-------------------
DFT GRID GENERATION
-------------------

General Integration Accuracy     IntAcc      ...  4.670
Radial Grid Type                 RadialGrid  ... Gauss-Chebyshev
Angular Grid (max. acc.)         AngularGrid ... Lebedev-302
Angular grid pruning method      GridPruning ... 3 (G Style)
Weight generation scheme         WeightScheme... Becke
Basis function cutoff            BFCut       ...    1.0000e-10
Integration weight cutoff        WCut        ...    1.0000e-14
Grids for H and He will be reduced by one unit

# of grid points (after initial pruning)     ...  67276 (   0.0 sec)
# of grid points (after weights+screening)   ...  62490 (   0.0 sec)
nearest neighbour list constructed           ...    0.0 sec
Grid point re-assignment to atoms done       ...    0.0 sec
Grid point division into batches done        ...    0.2 sec
Reduced shell lists constructed in    0.3 sec

Total number of grid points                  ...    62490
Total number of batches                      ...      983
Average number of points per batch           ...       63
Average number of grid points per atom       ...     4807
Average number of shells per batch           ...   104.07 (74.87%)
Average number of basis functions per batch  ...   298.17 (78.26%)
Average number of large shells per batch     ...    87.67 (84.24%)
Average number of large basis fcns per batch ...   249.52 (83.69%)
Maximum spatial batch extension              ...   3.87,  3.90, 15.36 au
Average spatial batch extension              ...   0.07,  0.08,  0.10 au

Time for grid setup =    0.340 sec

------------------------------
INITIAL GUESS: MODEL POTENTIAL
------------------------------
Loading Hartree-Fock densities                     ... done
Calculating cut-offs                               ... done
Setting up the integral package                    ... done
Initializing the effective Hamiltonian             ... done
Starting the Coulomb interaction                   ... done (   0.0 sec)
Reading the grid                                   ... done
Mapping shells                                     ... done
Starting the XC term evaluation                    ... done (   0.1 sec)
  promolecular density results
     # of electrons  =     75.996998702
     EX              =   -117.651772290
     EC              =     -3.039793123
     EX+EC           =   -120.691565413
Transforming the Hamiltonian                       ... done (   0.0 sec)
Diagonalizing the Hamiltonian                      ... done (   0.0 sec)
Back transforming the eigenvectors                 ... done (   0.0 sec)
Now organizing SCF variables                       ... done
                      ------------------
                      INITIAL GUESS DONE (   0.5 sec)
                      ------------------
--------------
SCF ITERATIONS
--------------
ITER       Energy         Delta-E        Max-DP      RMS-DP      [F,P]     Damp
               ***  Starting incremental Fock matrix formation  ***
  0  -2633.4475721312   0.000000000000 0.36033452  0.00584918  0.1491251 0.7000
  1  -2633.5262454507  -0.078673319532 0.37270731  0.00567707  0.0745260 0.7000
                               ***Turning on DIIS***
  2  -2633.5577105003  -0.031465049561 0.90474539  0.01338070  0.0276051 0.0000
  3  -2633.6018045635  -0.044094063266 0.17318854  0.00212965  0.0471482 0.0000
  4  -2633.6160684894  -0.014263925877 0.05682711  0.00089960  0.0080728 0.0000
  5  -2633.6167203478  -0.000651858416 0.04356536  0.00050665  0.0037980 0.0000
                      *** Initiating the SOSCF procedure ***
                           *** Shutting down DIIS ***
                      *** Re-Reading the Fockian *** 
                      *** Removing any level shift *** 
ITER      Energy       Delta-E        Grad      Rot      Max-DP    RMS-DP
  6  -2633.61676429  -0.0000439456  0.000447  0.000447  0.018529  0.000177
               *** Restarting incremental Fock matrix formation ***
  7  -2633.61677380  -0.0000095091  0.000188  0.000659  0.009292  0.000097
  8  -2633.61677533  -0.0000015277  0.000056  0.000369  0.006067  0.000073
  9  -2633.61677536  -0.0000000251  0.000050  0.000120  0.006271  0.000042
                 **** Energy Check signals convergence ****
              ***Rediagonalizing the Fockian in SOSCF/NRSCF***

               *****************************************************
               *                     SUCCESS                       *
               *           SCF CONVERGED AFTER  10 CYCLES          *
               *****************************************************


----------------
TOTAL SCF ENERGY
----------------

Total Energy       :        -2633.61677546 Eh          -71664.35581 eV

Components:
Nuclear Repulsion  :          439.59650014 Eh           11962.02891 eV
Electronic Energy  :        -3073.21327561 Eh          -83626.38471 eV
One Electron Energy:        -4529.70056613 Eh         -123259.41879 eV
Two Electron Energy:         1456.48729053 Eh           39633.03408 eV

Virial components:
Potential Energy   :        -5262.96257806 Eh         -143212.49253 eV
Kinetic Energy     :         2629.34580260 Eh           71548.13673 eV
Virial Ratio       :            2.00162435


DFT components:
N(Alpha)           :       38.000024823790 electrons
N(Beta)            :       38.000024823790 electrons
N(Total)           :       76.000049647579 electrons
E(XC)              :      -89.678296658749 Eh       
DFET-embed. en.    :        0.000000000000 Eh       

---------------
SCF CONVERGENCE
---------------

  Last Energy change         ...   -1.0959e-07  Tolerance :   1.0000e-06
  Last MAX-Density change    ...    1.0866e-02  Tolerance :   1.0000e-05
  Last RMS-Density change    ...    1.0396e-04  Tolerance :   1.0000e-06
  Last Orbital Gradient      ...    1.5037e-05  Tolerance :   5.0000e-05
  Last Orbital Rotation      ...    9.8002e-05  Tolerance :   5.0000e-05

             **** THE GBW FILE WAS UPDATED (MOR23_phseh.gbw) ****
             **** DENSITY FILE WAS UPDATED (MOR23_phseh.scfp) ****
             **** ENERGY FILE WAS UPDATED (MOR23_phseh.en.tmp) ****
             **** THE GBW FILE WAS UPDATED (MOR23_phseh.gbw) ****
             **** DENSITY FILE WAS UPDATED (MOR23_phseh.scfp) ****
----------------
ORBITAL ENERGIES
----------------

  NO   OCC          E(Eh)            E(eV) 
   0   2.0000    -454.216807    -12359.8677 
   1   2.0000     -58.386143     -1588.7677 
   2   2.0000     -52.339148     -1424.2206 
   3   2.0000     -52.337722     -1424.1818 
   4   2.0000     -52.335140     -1424.1116 
   5   2.0000     -10.277904      -279.6760 
   6   2.0000     -10.249429      -278.9011 
   7   2.0000     -10.249140      -278.8933 
   8   2.0000     -10.248686      -278.8809 
   9   2.0000     -10.248523      -278.8765 
  10   2.0000     -10.243981      -278.7529 
  11   2.0000      -7.971167      -216.9065 
  12   2.0000      -5.869372      -159.7137 
  13   2.0000      -5.864554      -159.5826 
  14   2.0000      -5.855854      -159.3459 
  15   2.0000      -2.168804       -59.0162 
  16   2.0000      -2.168583       -59.0101 
  17   2.0000      -2.160798       -58.7983 
  18   2.0000      -2.156879       -58.6917 
  19   2.0000      -2.155627       -58.6576 
  20   2.0000      -0.876688       -23.8559 
  21   2.0000      -0.784097       -21.3364 
  22   2.0000      -0.765318       -20.8254 
  23   2.0000      -0.705735       -19.2040 
  24   2.0000      -0.624739       -17.0000 
  25   2.0000      -0.604819       -16.4580 
  26   2.0000      -0.530546       -14.4369 
  27   2.0000      -0.477358       -12.9896 
  28   2.0000      -0.468503       -12.7486 
  29   2.0000      -0.441496       -12.0137 
  30   2.0000      -0.422472       -11.4961 
  31   2.0000      -0.395304       -10.7568 
  32   2.0000      -0.382575       -10.4104 
  33   2.0000      -0.364323        -9.9137 
  34   2.0000      -0.334545        -9.1034 
  35   2.0000      -0.303099        -8.2477 
  36   2.0000      -0.274789        -7.4774 
  37   2.0000      -0.229723        -6.2511 
  38   0.0000      -0.026684        -0.7261 
  39   0.0000      -0.022077        -0.6008 
  40   0.0000      -0.018743        -0.5100 
  41   0.0000      -0.018211        -0.4955 
  42   0.0000      -0.014564        -0.3963 
  43   0.0000      -0.007693        -0.2093 
  44   0.0000       0.006252         0.1701 
  45   0.0000       0.007137         0.1942 
  46   0.0000       0.011869         0.3230 
  47   0.0000       0.033777         0.9191 
  48   0.0000       0.039690         1.0800 
  49   0.0000       0.050479         1.3736 
  50   0.0000       0.060041         1.6338 
  51   0.0000       0.081766         2.2250 
  52   0.0000       0.087796         2.3890 
  53   0.0000       0.095763         2.6058 
  54   0.0000       0.098297         2.6748 
  55   0.0000       0.107960         2.9377 
  56   0.0000       0.115782         3.1506 
  57   0.0000       0.123412         3.3582 
  58   0.0000       0.126861         3.4521 
  59   0.0000       0.127419         3.4672 
  60   0.0000       0.138683         3.7738 
  61   0.0000       0.142735         3.8840 
  62   0.0000       0.145762         3.9664 
  63   0.0000       0.161379         4.3913 
  64   0.0000       0.168354         4.5811 
  65   0.0000       0.169593         4.6149 
  66   0.0000       0.173069         4.7094 
  67   0.0000       0.179200         4.8763 
  68   0.0000       0.191208         5.2030 
  69   0.0000       0.195423         5.3177 
  70   0.0000       0.202745         5.5170 
  71   0.0000       0.213467         5.8087 
  72   0.0000       0.217135         5.9086 
  73   0.0000       0.218677         5.9505 
  74   0.0000       0.220503         6.0002 
  75   0.0000       0.228215         6.2101 
  76   0.0000       0.244506         6.6533 
  77   0.0000       0.252806         6.8792 
  78   0.0000       0.253232         6.8908 
  79   0.0000       0.261807         7.1241 
  80   0.0000       0.265102         7.2138 
  81   0.0000       0.267049         7.2668 
  82   0.0000       0.275940         7.5087 
  83   0.0000       0.283550         7.7158 
  84   0.0000       0.284621         7.7449 
  85   0.0000       0.293597         7.9892 
  86   0.0000       0.299702         8.1553 
  87   0.0000       0.310136         8.4392 
  88   0.0000       0.312623         8.5069 
  89   0.0000       0.312975         8.5165 
  90   0.0000       0.321545         8.7497 
  91   0.0000       0.322605         8.7785 
  92   0.0000       0.328985         8.9521 
  93   0.0000       0.338877         9.2213 
  94   0.0000       0.343963         9.3597 
  95   0.0000       0.346113         9.4182 
  96   0.0000       0.346436         9.4270 
  97   0.0000       0.352928         9.6036 
  98   0.0000       0.358997         9.7688 
  99   0.0000       0.368347        10.0232 
 100   0.0000       0.378432        10.2977 
 101   0.0000       0.386135        10.5073 
 102   0.0000       0.388490        10.5714 
 103   0.0000       0.391920        10.6647 
 104   0.0000       0.403848        10.9893 
 105   0.0000       0.405737        11.0407 
 106   0.0000       0.410784        11.1780 
 107   0.0000       0.424695        11.5566 
 108   0.0000       0.433989        11.8094 
 109   0.0000       0.444082        12.0841 
 110   0.0000       0.446009        12.1365 
 111   0.0000       0.450312        12.2536 
 112   0.0000       0.454085        12.3563 
 113   0.0000       0.466248        12.6872 
 114   0.0000       0.481035        13.0896 
 115   0.0000       0.484215        13.1761 
 116   0.0000       0.493139        13.4190 
 117   0.0000       0.506053        13.7704 
 118   0.0000       0.526157        14.3175 
 119   0.0000       0.530597        14.4383 
 120   0.0000       0.534952        14.5568 
 121   0.0000       0.547858        14.9080 
 122   0.0000       0.556359        15.1393 
 123   0.0000       0.577743        15.7212 
 124   0.0000       0.579571        15.7709 
 125   0.0000       0.585419        15.9301 
 126   0.0000       0.587972        15.9995 
 127   0.0000       0.602603        16.3977 
 128   0.0000       0.611871        16.6499 
 129   0.0000       0.617361        16.7992 
 130   0.0000       0.618904        16.8412 
 131   0.0000       0.626525        17.0486 
 132   0.0000       0.636203        17.3120 
 133   0.0000       0.645125        17.5547 
 134   0.0000       0.656456        17.8631 
 135   0.0000       0.656631        17.8678 
 136   0.0000       0.666923        18.1479 
 137   0.0000       0.674830        18.3631 
 138   0.0000       0.682920        18.5832 
 139   0.0000       0.685252        18.6467 
 140   0.0000       0.685469        18.6526 
 141   0.0000       0.697490        18.9797 
 142   0.0000       0.707581        19.2543 
 143   0.0000       0.709300        19.3010 
 144   0.0000       0.717003        19.5107 
 145   0.0000       0.722059        19.6482 
 146   0.0000       0.742064        20.1926 
 147   0.0000       0.745036        20.2735 
 148   0.0000       0.751165        20.4402 
 149   0.0000       0.782862        21.3027 
 150   0.0000       0.790864        21.5205 
 151   0.0000       0.792059        21.5530 
 152   0.0000       0.832305        22.6482 
 153   0.0000       0.861542        23.4437 
 154   0.0000       0.867163        23.5967 
 155   0.0000       0.868458        23.6319 
 156   0.0000       0.877478        23.8774 
 157   0.0000       0.887159        24.1408 
 158   0.0000       0.898132        24.4394 
 159   0.0000       0.912814        24.8389 
 160   0.0000       0.920356        25.0442 
 161   0.0000       0.923011        25.1164 
 162   0.0000       0.955539        26.0015 
 163   0.0000       0.979387        26.6505 
 164   0.0000       1.006378        27.3849 
 165   0.0000       1.022730        27.8299 
 166   0.0000       1.036686        28.2096 
 167   0.0000       1.040893        28.3241 
 168   0.0000       1.057539        28.7771 
 169   0.0000       1.085073        29.5263 
 170   0.0000       1.089881        29.6572 
 171   0.0000       1.124552        30.6006 
 172   0.0000       1.144815        31.1520 
 173   0.0000       1.164030        31.6749 
 174   0.0000       1.186515        32.2867 
 175   0.0000       1.193940        32.4888 
 176   0.0000       1.200936        32.6791 
 177   0.0000       1.209389        32.9092 
 178   0.0000       1.222027        33.2530 
 179   0.0000       1.228956        33.4416 
 180   0.0000       1.251048        34.0428 
 181   0.0000       1.270063        34.5602 
 182   0.0000       1.292792        35.1787 
 183   0.0000       1.294689        35.2303 
 184   0.0000       1.332960        36.2717 
 185   0.0000       1.346886        36.6506 
 186   0.0000       1.367967        37.2243 
 187   0.0000       1.388585        37.7853 
 188   0.0000       1.397536        38.0289 
 189   0.0000       1.399146        38.0727 
 190   0.0000       1.419990        38.6399 
 191   0.0000       1.430285        38.9200 
 192   0.0000       1.443316        39.2746 
 193   0.0000       1.457429        39.6587 
 194   0.0000       1.465328        39.8736 
 195   0.0000       1.468347        39.9558 
 196   0.0000       1.505800        40.9749 
 197   0.0000       1.510491        41.1026 
 198   0.0000       1.518322        41.3157 
 199   0.0000       1.551913        42.2297 
 200   0.0000       1.567432        42.6520 
 201   0.0000       1.568314        42.6760 
 202   0.0000       1.603951        43.6457 
 203   0.0000       1.606012        43.7018 
 204   0.0000       1.627730        44.2928 
 205   0.0000       1.663189        45.2577 
 206   0.0000       1.671983        45.4970 
 207   0.0000       1.681521        45.7565 
 208   0.0000       1.685284        45.8589 
 209   0.0000       1.697983        46.2045 
 210   0.0000       1.713692        46.6319 
 211   0.0000       1.724738        46.9325 
 212   0.0000       1.736322        47.2477 
 213   0.0000       1.751067        47.6490 
 214   0.0000       1.788993        48.6810 
 215   0.0000       1.808058        49.1998 
 216   0.0000       1.809813        49.2475 
 217   0.0000       1.827419        49.7266 
 218   0.0000       1.848909        50.3114 
 219   0.0000       1.868615        50.8476 
 220   0.0000       1.882744        51.2321 
 221   0.0000       1.910593        51.9899 
 222   0.0000       1.911174        52.0057 
 223   0.0000       1.944154        52.9031 
 224   0.0000       1.964677        53.4616 
 225   0.0000       2.018040        54.9137 
 226   0.0000       2.075195        56.4689 
 227   0.0000       2.082452        56.6664 
 228   0.0000       2.121387        57.7259 
 229   0.0000       2.129060        57.9347 
 230   0.0000       2.173019        59.1309 
 231   0.0000       2.174999        59.1847 
 232   0.0000       2.199618        59.8546 
 233   0.0000       2.253387        61.3178 
 234   0.0000       2.342502        63.7427 
 235   0.0000       2.344858        63.8068 
 236   0.0000       2.364811        64.3498 
 237   0.0000       2.393747        65.1372 
 238   0.0000       2.397753        65.2462 
 239   0.0000       2.455206        66.8095 
 240   0.0000       2.478947        67.4556 
 241   0.0000       2.506221        68.1977 
 242   0.0000       2.572833        70.0103 
 243   0.0000       2.649699        72.1020 
 244   0.0000       2.681481        72.9668 
 245   0.0000       2.686630        73.1069 
 246   0.0000       2.706943        73.6597 
 247   0.0000       2.719022        73.9883 
 248   0.0000       2.719063        73.9895 
 249   0.0000       2.728098        74.2353 
 250   0.0000       2.786770        75.8319 
 251   0.0000       2.802005        76.2464 
 252   0.0000       2.820108        76.7390 
 253   0.0000       2.841466        77.3202 
 254   0.0000       2.850086        77.5548 
 255   0.0000       2.861016        77.8522 
 256   0.0000       2.905895        79.0734 
 257   0.0000       2.966972        80.7354 
 258   0.0000       2.972192        80.8774 
 259   0.0000       2.979411        81.0739 
 260   0.0000       2.994872        81.4946 
 261   0.0000       3.010754        81.9268 
 262   0.0000       3.024697        82.3062 
 263   0.0000       3.073669        83.6388 
 264   0.0000       3.081729        83.8581 
 265   0.0000       3.106834        84.5413 
 266   0.0000       3.115899        84.7879 
 267   0.0000       3.119592        84.8884 
 268   0.0000       3.129613        85.1611 
 269   0.0000       3.135183        85.3127 
 270   0.0000       3.140176        85.4485 
 271   0.0000       3.183792        86.6354 
 272   0.0000       3.214886        87.4815 
 273   0.0000       3.222698        87.6941 
 274   0.0000       3.248779        88.4038 
 275   0.0000       3.253966        88.5449 
 276   0.0000       3.301089        89.8272 
 277   0.0000       3.307201        89.9935 
 278   0.0000       3.314293        90.1865 
 279   0.0000       3.318397        90.2982 
 280   0.0000       3.326537        90.5197 
 281   0.0000       3.329699        90.6057 
 282   0.0000       3.335524        90.7642 
 283   0.0000       3.355543        91.3090 
 284   0.0000       3.365881        91.5903 
 285   0.0000       3.367035        91.6217 
 286   0.0000       3.417766        93.0021 
 287   0.0000       3.429045        93.3091 
 288   0.0000       3.454008        93.9883 
 289   0.0000       3.458459        94.1094 
 290   0.0000       3.467965        94.3681 
 291   0.0000       3.475878        94.5834 
 292   0.0000       3.489039        94.9416 
 293   0.0000       3.497802        95.1800 
 294   0.0000       3.540822        96.3507 
 295   0.0000       3.575451        97.2930 
 296   0.0000       3.598286        97.9143 
 297   0.0000       3.629941        98.7757 
 298   0.0000       3.640012        99.0498 
 299   0.0000       3.648131        99.2707 
 300   0.0000       3.691278       100.4448 
 301   0.0000       3.716142       101.1214 
 302   0.0000       3.722399       101.2916 
 303   0.0000       3.731528       101.5400 
 304   0.0000       3.734064       101.6090 
 305   0.0000       3.769699       102.5787 
 306   0.0000       3.773108       102.6715 
 307   0.0000       3.787484       103.0627 
 308   0.0000       3.815008       103.8117 
 309   0.0000       3.815804       103.8333 
 310   0.0000       3.831359       104.2566 
 311   0.0000       3.839870       104.4882 
 312   0.0000       3.860222       105.0420 
 313   0.0000       3.874888       105.4411 
 314   0.0000       3.892253       105.9136 
 315   0.0000       3.894212       105.9669 
 316   0.0000       3.948407       107.4416 
 317   0.0000       3.960229       107.7633 
 318   0.0000       3.981437       108.3404 
 319   0.0000       4.003854       108.9504 
 320   0.0000       4.036253       109.8320 
 321   0.0000       4.061847       110.5285 
 322   0.0000       4.088713       111.2595 
 323   0.0000       4.112918       111.9182 
 324   0.0000       4.132404       112.4484 
 325   0.0000       4.149455       112.9124 
 326   0.0000       4.189010       113.9888 
 327   0.0000       4.199982       114.2873 
 328   0.0000       4.208595       114.5217 
 329   0.0000       4.215764       114.7168 
 330   0.0000       4.225852       114.9913 
 331   0.0000       4.239457       115.3615 
 332   0.0000       4.250856       115.6717 
 333   0.0000       4.277398       116.3939 
 334   0.0000       4.311860       117.3317 
 335   0.0000       4.331077       117.8546 
 336   0.0000       4.344940       118.2318 
 337   0.0000       4.360829       118.6642 
 338   0.0000       4.378268       119.1387 
 339   0.0000       4.472358       121.6991 
 340   0.0000       4.520277       123.0030 
 341   0.0000       4.531860       123.3182 
 342   0.0000       4.554444       123.9327 
 343   0.0000       4.587465       124.8313 
 344   0.0000       4.614968       125.5797 
 345   0.0000       4.629611       125.9781 
 346   0.0000       4.653084       126.6168 
 347   0.0000       4.697944       127.8375 
 348   0.0000       4.726067       128.6028 
 349   0.0000       4.729483       128.6958 
 350   0.0000       4.750782       129.2753 
 351   0.0000       4.755812       129.4122 
 352   0.0000       4.764854       129.6583 
 353   0.0000       4.856335       132.1476 
 354   0.0000       4.866624       132.4276 
 355   0.0000       4.870114       132.5225 
 356   0.0000       4.917313       133.8069 
 357   0.0000       5.005877       136.2168 
 358   0.0000       5.089503       138.4924 
 359   0.0000       5.117496       139.2541 
 360   0.0000       5.221203       142.0762 
 361   0.0000       5.223481       142.1381 
 362   0.0000       5.225367       142.1895 
 363   0.0000       5.331188       145.0690 
 364   0.0000       5.365038       145.9901 
 365   0.0000       5.369608       146.1145 
 366   0.0000       5.585320       151.9843 
 367   0.0000       5.603240       152.4719 
 368   0.0000       5.672225       154.3491 
 369   0.0000       5.695015       154.9692 
 370   0.0000       5.838202       158.8656 
 371   0.0000       5.948430       161.8650 
 372   0.0000       6.086039       165.6095 
 373   0.0000       6.522597       177.4889 
 374   0.0000       7.474577       203.3936 
 375   0.0000      22.874220       622.4392 
 376   0.0000      23.112678       628.9279 
 377   0.0000      23.203266       631.3930 
 378   0.0000      23.264139       633.0494 
 379   0.0000      23.335258       634.9847 
 380   0.0000      24.040751       654.1821 

                    ********************************
                    * MULLIKEN POPULATION ANALYSIS *
                    ********************************

-----------------------
MULLIKEN ATOMIC CHARGES
-----------------------
   0 C :    0.845600
   1 C :   -0.401097
   2 C :   -0.585693
   3 C :   -0.614469
   4 C :   -0.563099
   5 C :   -0.706254
   6 Se:    0.175542
   7 H :    0.006197
   8 H :    0.236238
   9 H :    0.402739
  10 H :    0.471323
  11 H :    0.404176
  12 H :    0.328797
Sum of atomic charges:    0.0000000

--------------------------------
MULLIKEN REDUCED ORBITAL CHARGES
--------------------------------
  0 C s       :     3.290247  s :     3.290247
      pz      :     0.988169  p :     1.482055
      px      :     0.493029
      py      :     0.000857
      dz2     :    -0.021752  d :     0.374511
      dxz     :     0.036373
      dyz     :    -0.022912
      dx2y2   :     0.006257
      dxy     :     0.376546
      f0      :     0.002076  f :     0.007586
      f+1     :     0.000513
      f-1     :     0.000451
      f+2     :     0.000615
      f-2     :     0.001018
      f+3     :     0.000601
      f-3     :     0.002312
  1 C s       :     3.498660  s :     3.498660
      pz      :     1.008199  p :     3.158641
      px      :     1.348374
      py      :     0.802068
      dz2     :     0.000591  d :    -0.262849
      dxz     :    -0.015036
      dyz     :    -0.001443
      dx2y2   :    -0.113044
      dxy     :    -0.133917
      f0      :     0.001519  f :     0.006644
      f+1     :     0.000465
      f-1     :     0.000412
      f+2     :     0.000820
      f-2     :     0.000526
      f+3     :     0.000608
      f-3     :     0.002295
  2 C s       :     3.531775  s :     3.531775
      pz      :     0.971606  p :     3.022983
      px      :     0.964740
      py      :     1.086637
      dz2     :    -0.010203  d :     0.024564
      dxz     :     0.005626
      dyz     :     0.005942
      dx2y2   :     0.066115
      dxy     :    -0.042916
      f0      :     0.001528  f :     0.006372
      f+1     :     0.000364
      f-1     :     0.000424
      f+2     :     0.000913
      f-2     :     0.000480
      f+3     :     0.000565
      f-3     :     0.002098
  3 C s       :     3.605807  s :     3.605807
      pz      :     1.001213  p :     3.027586
      px      :     1.105705
      py      :     0.920668
      dz2     :    -0.000310  d :    -0.025290
      dxz     :     0.009507
      dyz     :     0.011234
      dx2y2   :    -0.037387
      dxy     :    -0.008334
      f0      :     0.001489  f :     0.006366
      f+1     :     0.000446
      f-1     :     0.000354
      f+2     :     0.000252
      f-2     :     0.001027
      f+3     :     0.000613
      f-3     :     0.002185
  4 C s       :     3.525388  s :     3.525388
      pz      :     0.970054  p :     3.012289
      px      :     1.002633
      py      :     1.039602
      dz2     :    -0.009830  d :     0.019040
      dxz     :     0.006456
      dyz     :     0.005817
      dx2y2   :     0.054045
      dxy     :    -0.037449
      f0      :     0.001528  f :     0.006382
      f+1     :     0.000361
      f-1     :     0.000423
      f+2     :     0.000894
      f-2     :     0.000504
      f+3     :     0.000567
      f-3     :     0.002107
  5 C s       :     3.476678  s :     3.476678
      pz      :     1.012684  p :     3.347281
      px      :     1.378468
      py      :     0.956130
      dz2     :    -0.006894  d :    -0.124387
      dxz     :    -0.002393
      dyz     :     0.005687
      dx2y2   :    -0.035580
      dxy     :    -0.085208
      f0      :     0.001541  f :     0.006681
      f+1     :     0.000467
      f-1     :     0.000402
      f+2     :     0.000852
      f-2     :     0.000511
      f+3     :     0.000592
      f-3     :     0.002317
  6 Ses       :     7.907001  s :     7.907001
      pz      :     5.848658  p :    15.821552
      px      :     5.000400
      py      :     4.972494
      dz2     :     2.012880  d :    10.082810
      dxz     :     2.016606
      dyz     :     2.001908
      dx2y2   :     2.038374
      dxy     :     2.013043
      f0      :     0.001249  f :     0.013095
      f+1     :     0.001832
      f-1     :     0.002168
      f+2     :     0.001377
      f-2     :     0.000069
      f+3     :     0.002182
      f-3     :     0.004219
  7 H s       :     0.960060  s :     0.960060
      pz      :     0.035561  p :     0.032494
      px      :     0.004447
      py      :    -0.007514
      dz2     :     0.000105  d :     0.001249
      dxz     :     0.000013
      dyz     :     0.000545
      dx2y2   :     0.000174
      dxy     :     0.000412
  8 H s       :     0.656638  s :     0.656638
      pz      :     0.015061  p :     0.105113
      px      :     0.090579
      py      :    -0.000527
      dz2     :    -0.000158  d :     0.002011
      dxz     :     0.000273
      dyz     :     0.000824
      dx2y2   :     0.001000
      dxy     :     0.000072
  9 H s       :     0.549055  s :     0.549055
      pz      :     0.014526  p :     0.046437
      px      :     0.027122
      py      :     0.004790
      dz2     :    -0.000176  d :     0.001769
      dxz     :     0.000266
      dyz     :     0.000754
      dx2y2   :     0.000906
      dxy     :     0.000019
 10 H s       :     0.477231  s :     0.477231
      pz      :     0.015428  p :     0.049702
      px      :    -0.006544
      py      :     0.040818
      dz2     :    -0.000181  d :     0.001745
      dxz     :     0.001029
      dyz     :     0.000009
      dx2y2   :    -0.000418
      dxy     :     0.001305
 11 H s       :     0.545321  s :     0.545321
      pz      :     0.014987  p :     0.048732
      px      :     0.029230
      py      :     0.004514
      dz2     :    -0.000179  d :     0.001771
      dxz     :     0.000251
      dyz     :     0.000774
      dx2y2   :     0.000850
      dxy     :     0.000075
 12 H s       :     0.609658  s :     0.609658
      pz      :     0.013870  p :     0.059511
      px      :     0.046317
      py      :    -0.000676
      dz2     :    -0.000146  d :     0.002034
      dxz     :     0.000287
      dyz     :     0.000798
      dx2y2   :     0.001053
      dxy     :     0.000043


                     *******************************
                     * LOEWDIN POPULATION ANALYSIS *
                     *******************************

----------------------
LOEWDIN ATOMIC CHARGES
----------------------
   0 C :   -0.575273
   1 C :   -0.049521
   2 C :    0.005314
   3 C :    0.001543
   4 C :    0.004673
   5 C :   -0.062061
   6 Se:    0.930837
   7 H :   -0.251561
   8 H :   -0.009476
   9 H :    0.004491
  10 H :    0.000514
  11 H :    0.004630
  12 H :   -0.004111

-------------------------------
LOEWDIN REDUCED ORBITAL CHARGES
-------------------------------
  0 C s       :     2.702189  s :     2.702189
      pz      :     0.790178  p :     2.702780
      px      :     0.911213
      py      :     1.001389
      dz2     :     0.095405  d :     1.121570
      dxz     :     0.224452
      dyz     :     0.141181
      dx2y2   :     0.381011
      dxy     :     0.279521
      f0      :     0.003939  f :     0.048733
      f+1     :     0.003479
      f-1     :     0.004364
      f+2     :     0.004003
      f-2     :     0.007207
      f+3     :     0.008604
      f-3     :     0.017136
  1 C s       :     2.647842  s :     2.647842
      pz      :     0.752856  p :     2.629189
      px      :     0.950824
      py      :     0.925509
      dz2     :     0.067929  d :     0.728661
      dxz     :     0.115971
      dyz     :     0.062323
      dx2y2   :     0.220921
      dxy     :     0.261517
      f0      :     0.002718  f :     0.043829
      f+1     :     0.003973
      f-1     :     0.003528
      f+2     :     0.005776
      f-2     :     0.003594
      f+3     :     0.008937
      f-3     :     0.015303
  2 C s       :     2.648912  s :     2.648912
      pz      :     0.728203  p :     2.610229
      px      :     0.947108
      py      :     0.934918
      dz2     :     0.061003  d :     0.692168
      dxz     :     0.113813
      dyz     :     0.062458
      dx2y2   :     0.201115
      dxy     :     0.253780
      f0      :     0.002664  f :     0.043377
      f+1     :     0.003762
      f-1     :     0.003392
      f+2     :     0.006354
      f-2     :     0.003282
      f+3     :     0.008714
      f-3     :     0.015208
  3 C s       :     2.648806  s :     2.648806
      pz      :     0.745014  p :     2.625626
      px      :     0.925405
      py      :     0.955208
      dz2     :     0.060457  d :     0.680996
      dxz     :     0.035052
      dyz     :     0.131228
      dx2y2   :     0.278932
      dxy     :     0.175327
      f0      :     0.002661  f :     0.043029
      f+1     :     0.003253
      f-1     :     0.003945
      f+2     :     0.001888
      f-2     :     0.007160
      f+3     :     0.008762
      f-3     :     0.015360
  4 C s       :     2.648590  s :     2.648590
      pz      :     0.727918  p :     2.610366
      px      :     0.948061
      py      :     0.934387
      dz2     :     0.061080  d :     0.692935
      dxz     :     0.115359
      dyz     :     0.060771
      dx2y2   :     0.204770
      dxy     :     0.250956
      f0      :     0.002667  f :     0.043435
      f+1     :     0.003774
      f-1     :     0.003380
      f+2     :     0.006182
      f-2     :     0.003452
      f+3     :     0.008712
      f-3     :     0.015267
  5 C s       :     2.650242  s :     2.650242
      pz      :     0.752823  p :     2.635707
      px      :     0.954737
      py      :     0.928147
      dz2     :     0.066958  d :     0.732268
      dxz     :     0.118170
      dyz     :     0.063993
      dx2y2   :     0.218947
      dxy     :     0.264200
      f0      :     0.002740  f :     0.043844
      f+1     :     0.003966
      f-1     :     0.003549
      f+2     :     0.005949
      f-2     :     0.003435
      f+3     :     0.008905
      f-3     :     0.015300
  6 Ses       :     7.165342  s :     7.165342
      pz      :     5.558868  p :    15.576774
      px      :     4.962639
      py      :     5.055267
      dz2     :     2.043135  d :    10.295673
      dxz     :     2.065144
      dyz     :     2.002216
      dx2y2   :     2.114118
      dxy     :     2.071059
      f0      :     0.002081  f :     0.031374
      f+1     :     0.003844
      f-1     :     0.003348
      f+2     :     0.003150
      f-2     :     0.000033
      f+3     :     0.007680
      f-3     :     0.011238
  7 H s       :     0.833150  s :     0.833150
      pz      :     0.128240  p :     0.399765
      px      :     0.066385
      py      :     0.205140
      dz2     :     0.002283  d :     0.018647
      dxz     :     0.000062
      dyz     :     0.005737
      dx2y2   :     0.007343
      dxy     :     0.003222
  8 H s       :     0.700989  s :     0.700989
      pz      :     0.074858  p :     0.278818
      px      :     0.093883
      py      :     0.110077
      dz2     :     0.002754  d :     0.029669
      dxz     :     0.002125
      dyz     :     0.006789
      dx2y2   :     0.009287
      dxy     :     0.008714
  9 H s       :     0.705458  s :     0.705458
      pz      :     0.073844  p :     0.260804
      px      :     0.079728
      py      :     0.107232
      dz2     :     0.002736  d :     0.029247
      dxz     :     0.002138
      dyz     :     0.006286
      dx2y2   :     0.009272
      dxy     :     0.008815
 10 H s       :     0.707303  s :     0.707303
      pz      :     0.076809  p :     0.262785
      px      :     0.120492
      py      :     0.065485
      dz2     :     0.002734  d :     0.029397
      dxz     :     0.008689
      dyz     :     0.000021
      dx2y2   :     0.008566
      dxy     :     0.009387
 11 H s       :     0.705450  s :     0.705450
      pz      :     0.073699  p :     0.260667
      px      :     0.078843
      py      :     0.108125
      dz2     :     0.002736  d :     0.029253
      dxz     :     0.002010
      dyz     :     0.006418
      dx2y2   :     0.009245
      dxy     :     0.008843
 12 H s       :     0.701935  s :     0.701935
      pz      :     0.074451  p :     0.272649
      px      :     0.088071
      py      :     0.110127
      dz2     :     0.002768  d :     0.029527
      dxz     :     0.002278
      dyz     :     0.006620
      dx2y2   :     0.009226
      dxy     :     0.008636


                      *****************************
                      * MAYER POPULATION ANALYSIS *
                      *****************************

  NA   - Mulliken gross atomic population
  ZA   - Total nuclear charge
  QA   - Mulliken gross atomic charge
  VA   - Mayer's total valence
  BVA  - Mayer's bonded valence
  FA   - Mayer's free valence

  ATOM       NA         ZA         QA         VA         BVA        FA
  0 C      5.1544     6.0000     0.8456     0.9876     0.9876    -0.0000
  1 C      6.4011     6.0000    -0.4011     2.3513     2.3513     0.0000
  2 C      6.5857     6.0000    -0.5857     3.0528     3.0528     0.0000
  3 C      6.6145     6.0000    -0.6145     2.5699     2.5699     0.0000
  4 C      6.5631     6.0000    -0.5631     3.0249     3.0249     0.0000
  5 C      6.7063     6.0000    -0.7063     2.7975     2.7975    -0.0000
  6 Se    33.8245    34.0000     0.1755     2.2296     2.2296    -0.0000
  7 H      0.9938     1.0000     0.0062     0.9874     0.9874    -0.0000
  8 H      0.7638     1.0000     0.2362     0.9747     0.9747     0.0000
  9 H      0.5973     1.0000     0.4027     0.8460     0.8460    -0.0000
 10 H      0.5287     1.0000     0.4713     0.7504     0.7504     0.0000
 11 H      0.5958     1.0000     0.4042     0.8504     0.8504     0.0000
 12 H      0.6712     1.0000     0.3288     0.8833     0.8833    -0.0000

  Mayer bond orders larger than 0.100000
B(  0-C ,  1-C ) :   0.3231 B(  0-C ,  2-C ) :  -0.1578 B(  0-C ,  3-C ) :  -0.1090 
B(  0-C ,  4-C ) :  -0.1532 B(  0-C ,  5-C ) :   0.5138 B(  0-C ,  6-Se) :   1.2006 
B(  0-C ,  8-H ) :  -0.3552 B(  0-C , 12-H ) :  -0.2834 B(  1-C ,  2-C ) :   1.1640 
B(  1-C ,  6-Se) :  -0.1702 B(  1-C ,  8-H ) :   1.1706 B(  1-C ,  9-H ) :  -0.1077 
B(  2-C ,  3-C ) :   0.9740 B(  2-C ,  9-H ) :   0.9757 B(  3-C ,  4-C ) :   0.9531 
B(  3-C , 10-H ) :   0.8323 B(  4-C ,  5-C ) :   1.2161 B(  4-C , 11-H ) :   0.9715 
B(  5-C , 12-H ) :   1.0750 B(  6-Se,  7-H ) :   0.9227 

-------
TIMINGS
-------

Total SCF time: 0 days 0 hours 0 min 34 sec 

Total time                  ....      34.521 sec
Sum of individual times     ....      34.172 sec  ( 99.0%)

Fock matrix formation       ....      33.211 sec  ( 96.2%)
  XC integration            ....       2.404 sec  (  7.2% of F)
    Basis function eval.    ....       0.199 sec  (  8.3% of XC)
    Density eval.           ....       0.506 sec  ( 21.1% of XC)
    XC-Functional eval.     ....       0.173 sec  (  7.2% of XC)
    XC-Potential eval.      ....       1.058 sec  ( 44.0% of XC)
Diagonalization             ....       0.192 sec  (  0.6%)
Density matrix formation    ....       0.024 sec  (  0.1%)
Population analysis         ....       0.028 sec  (  0.1%)
Initial guess               ....       0.202 sec  (  0.6%)
Orbital Transformation      ....       0.000 sec  (  0.0%)
Orbital Orthonormalization  ....       0.000 sec  (  0.0%)
DIIS solution               ....       0.089 sec  (  0.3%)
SOSCF solution              ....       0.086 sec  (  0.2%)
Grid generation             ....       0.340 sec  (  1.0%)


-------------------------------------------------------------------------------
                          DFT DISPERSION CORRECTION                            
                                                                               
                              DFTD3 V3.1  Rev 1                                
                              USING zero damping                               
-------------------------------------------------------------------------------
The M06 functional is recognized
Active option DFTDOPT                   ...         3   

molecular C6(AA) [au] = 3037.823371 


            DFT-D V3
 parameters
 s6 scaling factor         :     1.0000 
 rs6 scaling factor        :     1.3250 
 s8 scaling factor         :     0.0000 
 rs8 scaling factor        :     1.0000 
 Damping factor alpha6     :    14.0000 
 Damping factor alpha8     :    16.0000 
 ad hoc parameters k1-k3   :    16.0000     1.3333    -4.0000 

 Edisp/kcal,au: -0.635260106008  -0.001012351310 
 E6   /kcal   :  -0.635260106 
 E8   /kcal   :  -0.000000000 
 % E8         :   0.000000000 

-------------------------   ----------------
Dispersion correction           -0.001012351
-------------------------   ----------------


-------------------------   --------------------
FINAL SINGLE POINT ENERGY     -2633.617787816145
-------------------------   --------------------


                            ***************************************
                            *     ORCA property calculations      *
                            ***************************************

                                    ---------------------
                                    Active property flags
                                    ---------------------
   (+) Dipole Moment


------------------------------------------------------------------------------
                       ORCA ELECTRIC PROPERTIES CALCULATION
------------------------------------------------------------------------------

Dipole Moment Calculation                       ... on
Quadrupole Moment Calculation                   ... off
Polarizability Calculation                      ... off
GBWName                                         ... MOR23_phseh.gbw
Electron density file                           ... MOR23_phseh.scfp
The origin for moment calculation is the CENTER OF MASS  = (-0.334289, -0.022529 -0.000000)

-------------
DIPOLE MOMENT
-------------
                                X             Y             Z
Electronic contribution:    -25.11580      -1.52238      -0.00003
Nuclear contribution   :     25.40592       1.71219       0.00003
                        -----------------------------------------
Total Dipole Moment    :      0.29012       0.18982       0.00000
                        -----------------------------------------
Magnitude (a.u.)       :      0.34670
Magnitude (Debye)      :      0.88125



--------------------
Rotational spectrum 
--------------------
 
Rotational constants in cm-1:     0.185431     0.032154     0.027403 
Rotational constants in MHz :  5559.086830   963.964760   821.511792 

 Dipole components along the rotational axes: 
x,y,z [a.u.] :     0.291559    -0.187608     0.000000 
x,y,z [Debye]:     0.741083    -0.476862     0.000001 

 

Timings for individual modules:

Sum of individual times         ...       35.683 sec (=   0.595 min)
GTO integral calculation        ...        0.795 sec (=   0.013 min)   2.2 %
SCF iterations                  ...       34.889 sec (=   0.581 min)  97.8 %
                             ****ORCA TERMINATED NORMALLY****
TOTAL RUN TIME: 0 days 0 hours 0 minutes 36 seconds 206 msec
