
                                 *****************
                                 * O   R   C   A *
                                 *****************

           --- An Ab Initio, DFT and Semiempirical electronic structure package ---

                  #######################################################
                  #                        -***-                        #
                  #          Department of theory and spectroscopy      #
                  #               Directorship: Frank Neese             #
                  #        Max Planck Institute fuer Kohlenforschung    #
                  #                Kaiser Wilhelm Platz 1               #
                  #                 D-45470 Muelheim/Ruhr               #
                  #                      Germany                        #
                  #                                                     #
                  #                  All rights reserved                #
                  #                        -***-                        #
                  #######################################################


                         Program Version 4.2.0 -  RELEASE  -


 With contributions from (in alphabetic order):
   Daniel Aravena         : Magnetic Suceptibility
   Michael Atanasov       : Ab Initio Ligand Field Theory (pilot matlab implementation)
   Alexander A. Auer      : GIAO ZORA, VPT2
   Ute Becker             : Parallelization
   Giovanni Bistoni       : ED, misc. LED, open-shell LED, HFLED
   Martin Brehm           : Molecular dynamics
   Dmytro Bykov           : SCF Hessian
   Vijay G. Chilkuri      : MRCI spin determinant printing, contributions to CSF-ICE
   Dipayan Datta          : RHF DLPNO-CCSD density
   Achintya Kumar Dutta   : EOM-CC, STEOM-CC
   Dmitry Ganyushin       : Spin-Orbit,Spin-Spin,Magnetic field MRCI
   Miquel Garcia          : C-PCM Hessian, Gaussian charge scheme
   Yang Guo               : DLPNO-NEVPT2, CIM, IAO-localization
   Andreas Hansen         : Spin unrestricted coupled pair/coupled cluster methods
   Benjamin Helmich-Paris : CASSCF linear response (MC-RPA)
   Lee Huntington         : MR-EOM, pCC
   Robert Izsak           : Overlap fitted RIJCOSX, COSX-SCS-MP3, EOM
   Christian Kollmar      : KDIIS, OOCD, Brueckner-CCSD(T), CCSD density
   Simone Kossmann        : Meta GGA functionals, TD-DFT gradient, OOMP2, MP2 Hessian
   Martin Krupicka        : AUTO-CI
   Lucas Lang             : DCDCAS
   Dagmar Lenk            : GEPOL surface, SMD
   Dimitrios Liakos       : Extrapolation schemes; Compound Job, initial MDCI parallelization
   Dimitrios Manganas     : Further ROCIS development; embedding schemes
   Dimitrios Pantazis     : SARC Basis sets
   Taras Petrenko         : DFT Hessian,TD-DFT gradient, ASA, ECA, R-Raman, ABS, FL, XAS/XES, NRVS
   Peter Pinski           : DLPNO-MP2, DLPNO-MP2 Gradient
   Christoph Reimann      : Effective Core Potentials
   Marius Retegan         : Local ZFS, SOC
   Christoph Riplinger    : Optimizer, TS searches, QM/MM, DLPNO-CCSD(T), (RO)-DLPNO pert. Triples
   Tobias Risthaus        : Range-separated hybrids, TD-DFT gradient, RPA, STAB
   Michael Roemelt        : Original ROCIS implementation
   Masaaki Saitow         : Open-shell DLPNO-CCSD energy and density
   Barbara Sandhoefer     : DKH picture change effects
   Avijit Sen             : IP-ROCIS
   Kantharuban Sivalingam : CASSCF convergence, NEVPT2, FIC-MRCI
   Bernardo de Souza      : ESD, SOC TD-DFT
   Georgi Stoychev        : AutoAux, RI-MP2 NMR
   Willem Van den Heuvel  : Paramagnetic NMR
   Boris Wezisla          : Elementary symmetry handling
   Frank Wennmohs         : Technical directorship


 We gratefully acknowledge several colleagues who have allowed us to
 interface, adapt or use parts of their codes:
   Stefan Grimme, W. Hujo, H. Kruse,             : VdW corrections, initial TS optimization,
                  C. Bannwarth                     DFT functionals, gCP, sTDA/sTD-DF
   Ed Valeev, F. Pavosevic, A. Kumar             : LibInt (2-el integral package), F12 methods
   Garnet Chan, S. Sharma, J. Yang, R. Olivares  : DMRG
   Ulf Ekstrom                                   : XCFun DFT Library
   Mihaly Kallay                                 : mrcc  (arbitrary order and MRCC methods)
   Andreas Klamt, Michael Diedenhofen            : otool_cosmo (COSMO solvation model)
   Jiri Pittner, Ondrej Demel                    : Mk-CCSD
   Frank Weinhold                                : gennbo (NPA and NBO analysis)
   Christopher J. Cramer and Donald G. Truhlar   : smd solvation model
   Lars Goerigk                                  : TD-DFT with DH, B97 family of functionals
   V. Asgeirsson, H. Jonsson                     : NEB implementation
   FAccTs GmbH                                   : IRC, NEB, NEB-TS, Multilevel, MM, QM/MM, CI optimization
   S Lehtola, MJT Oliveira, MAL Marques          : LibXC Library


 Your calculation uses the libint2 library for the computation of 2-el integrals
 For citations please refer to: http://libint.valeyev.net

 Your ORCA version has been built with support for libXC version: 4.2.3
 For citations please refer to: https://tddft.org/programs/libxc/

 This ORCA versions uses:
   CBLAS   interface :  Fast vector & matrix operations
   LAPACKE interface :  Fast linear algebra routines
   SCALAPACK package :  Parallel linear algebra routines


Your calculation utilizes the atom-pairwise dispersion correction
with the zero-damping scheme (D30)
Cite in your paper:
S.Grimme, J.Antony, S.Ehrlich and H.Krieg, J.Chem.Phys., 132, (2010), 154104 
   

XCFun DFT library Copyright 2009-2010 Ulf Ekstrom and contributors.
See http://admol.org/xcfun for more information. This is free soft-
ware; see the source code for copying conditions. There is ABSOLUTELY
NO WARRANTY; not even for MERCHANTABILITY or FITNESS FOR A PARTICULAR
PURPOSE. For details see the documentation. Scientific users of this 
library should cite U. Ekstrom, L. Visscher, R. Bast, A. J. Thorvald-
sen and K. Ruud; J.Chem.Theor.Comp. 2010, DOI: 10.1021/ct100117s
XCFun Version 0.99 
----- Orbital basis set information -----
Your calculation utilizes the basis: def2-TZVPPD
   F. Weigend and R. Ahlrichs, Phys. Chem. Chem. Phys. 7, 3297 (2005).
   D. Rappoport and F. Furche, J. Chem. Phys. 133 134105 (2010).

----- AuxJK basis set information -----
Your calculation utilizes the auxiliary basis: def2/JK
   H-Ba, Hf-Rn: F. Weigend, J. Comput. Chem. 29, 167 (2008).

cite the ECPs for Mo [Def2-ECP] as follows:
Ce-Yb(ecp-28): M. Dolg, H. Stoll, H.Preuss, J. Chem. Phys., 1989, 90, 1730-1734.
Y-Cd(ecp-28), Hf-Hg(ecp-46): D. Andrae,U. Haeussermann, M. Dolg, H. Stoll, H. Preuss, Theor. Chim. Acta, 1990, 77, 123-141.
In-Sb(ecp-28), Tl-Bi(ecp-46): B. Metz, H. Stoll, M. Dolg, J. Chem. Phys., 2000, 113, 2563-2569.
Te-Xe(ecp-28), Po-Rn(ecp-46): K. A. Peterson, D. Figgen, E. Goll, H. Stoll, M. Dolg, J. Chem. Phys., 2003, 119, 11113-11123.
Rb(ecp-28), Cs(ecp-46): T. Leininger, A. Nicklass, W. Kuechle, H. Stoll, M. Dolg, A. Bergner, Chem. Phys. Lett., 1996, 255, 274-280.
Sr(ecp-28), Ba(ecp-46): M. Kaupp, P. V. Schleyer, H. Stoll and H. Preuss, J. Chem. Phys., 1991, 94, 1360-1366.
La(ecp-46): M. Dolg, H. Stoll, A. Savin, H. Preuss, Theor. Chim. Acta, 1989, 75, 173-194.
Lu(ecp-28): X. Cao, M. Dolg, J. Chem. Phys., 2001, 115, 7348-7355.

ECP parameters for Mo [Def2-ECP] have been obtained from:
TURBOMOLE (7.0.2)

================================================================================
                                        WARNINGS
                       Please study these warnings very carefully!
================================================================================


WARNING: Minnesota functionals are quite sensitive to the integration grid.
         see SE Wheeler, KN Houk, JCTC 2010, 6, 395,
             N Mardirossian, M Head-Gordon, JCTC 2016, 12, 4303.
         Grid6 seems to be a minimum grid for reliable results with these functionals!
  ===> : Please increase the integration grid!


INFO   : the flag for use of LIBINT has been found!

================================================================================
                                       INPUT FILE
================================================================================
NAME = MOR36_pr37.in
|  1> #
|  2> # MOR36_pr37 M06-D3/Def2-TZVPPD
|  3> #
|  4> ! m06 d3zero def2-tzvppd def2/jk grid4 nofinalgrid
|  5> 
|  6> *xyz 0 1
|  7> Mo       0.000106   -0.000070   -0.471377 
|  8> C        0.514398   -1.514915   -1.646050 
|  9> C        1.055079    1.202350   -1.646249 
| 10> C       -1.568474    0.311983   -1.646660 
| 11> O       -2.484520    0.493946   -2.346732 
| 12> O        0.814970   -2.399453   -2.345765 
| 13> O        1.670957    1.904692   -2.346079 
| 14> N       -1.133555   -1.291008    0.811792 
| 15> N       -0.551576    1.627166    0.811584 
| 16> N        1.684684   -0.335905    0.812231 
| 17> C        2.623715   -0.523292    1.470917 
| 18> C       -0.858944    2.534303    1.469905 
| 19> C       -1.765652   -2.010491    1.470244 
| 20> C       -2.579903   -2.936733    2.238371 
| 21> H       -3.631237   -2.631169    2.207389 
| 22> H       -2.252645   -2.962558    3.282907 
| 23> H       -2.496617   -3.945451    1.819577 
| 24> C       -1.254401    3.702555    2.237857 
| 25> H       -0.464690    4.460832    2.206160 
| 26> H       -1.439592    3.432273    3.282594 
| 27> H       -2.170183    4.133961    1.819442 
| 28> C        3.832875   -0.764956    2.239344 
| 29> H        4.094105   -1.828181    2.208653 
| 30> H        3.691346   -0.468421    3.283785 
| 31> H        4.664793   -0.188419    1.820591 
| 32> *
| 33> 
| 34> %maxcore 5000
| 35> 
| 36> %pal
| 37> nprocs = 24
| 38> end
| 39> 
| 40> 
| 41>                          ****END OF INPUT****
================================================================================

                       ****************************
                       * Single Point Calculation *
                       ****************************

---------------------------------
CARTESIAN COORDINATES (ANGSTROEM)
---------------------------------
  Mo     0.000106   -0.000070   -0.471377
  C      0.514398   -1.514915   -1.646050
  C      1.055079    1.202350   -1.646249
  C     -1.568474    0.311983   -1.646660
  O     -2.484520    0.493946   -2.346732
  O      0.814970   -2.399453   -2.345765
  O      1.670957    1.904692   -2.346079
  N     -1.133555   -1.291008    0.811792
  N     -0.551576    1.627166    0.811584
  N      1.684684   -0.335905    0.812231
  C      2.623715   -0.523292    1.470917
  C     -0.858944    2.534303    1.469905
  C     -1.765652   -2.010491    1.470244
  C     -2.579903   -2.936733    2.238371
  H     -3.631237   -2.631169    2.207389
  H     -2.252645   -2.962558    3.282907
  H     -2.496617   -3.945451    1.819577
  C     -1.254401    3.702555    2.237857
  H     -0.464690    4.460832    2.206160
  H     -1.439592    3.432273    3.282594
  H     -2.170183    4.133961    1.819442
  C      3.832875   -0.764956    2.239344
  H      4.094105   -1.828181    2.208653
  H      3.691346   -0.468421    3.283785
  H      4.664793   -0.188419    1.820591

----------------------------
CARTESIAN COORDINATES (A.U.)
----------------------------
  NO LB      ZA    FRAG     MASS         X           Y           Z
   0 Mo   14.0000*   0    95.940    0.000200   -0.000132   -0.890773
   1 C     6.0000    0    12.011    0.972071   -2.862774   -3.110584
   2 C     6.0000    0    12.011    1.993810    2.272112   -3.110960
   3 C     6.0000    0    12.011   -2.963986    0.589562   -3.111736
   4 O     8.0000    0    15.999   -4.695062    0.933423   -4.434681
   5 O     8.0000    0    15.999    1.540070   -4.534309   -4.432853
   6 O     8.0000    0    15.999    3.157651    3.599346   -4.433447
   7 N     7.0000    0    14.007   -2.142109   -2.439652    1.534065
   8 N     7.0000    0    14.007   -1.042328    3.074898    1.533671
   9 N     7.0000    0    14.007    3.183591   -0.634768    1.534894
  10 C     6.0000    0    12.011    4.958103   -0.988879    2.779630
  11 C     6.0000    0    12.011   -1.623169    4.789139    2.777718
  12 C     6.0000    0    12.011   -3.336599   -3.799277    2.778359
  13 C     6.0000    0    12.011   -4.875310   -5.549621    4.229908
  14 H     1.0000    0     1.008   -6.862043   -4.972189    4.171361
  15 H     1.0000    0     1.008   -4.256882   -5.598423    6.203795
  16 H     1.0000    0     1.008   -4.717922   -7.455822    3.438502
  17 C     6.0000    0    12.011   -2.370474    6.996815    4.228937
  18 H     1.0000    0     1.008   -0.878137    8.429751    4.169038
  19 H     1.0000    0     1.008   -2.720435    6.486056    6.203204
  20 H     1.0000    0     1.008   -4.101052    7.812054    3.438247
  21 C     6.0000    0    12.011    7.243084   -1.445557    4.231747
  22 H     1.0000    0     1.008    7.736737   -3.454761    4.173749
  23 H     1.0000    0     1.008    6.975633   -0.885187    6.205454
  24 H     1.0000    0     1.008    8.815181   -0.356060    3.440418
* core charge reduced due to ECP

--------------------------------
INTERNAL COORDINATES (ANGSTROEM)
--------------------------------
 Mo     0   0   0     0.000000000000     0.00000000     0.00000000
 C      1   0   0     1.984718693472     0.00000000     0.00000000
 C      1   2   0     1.984718142083    88.52821499     0.00000000
 C      1   2   3     1.984719229840    88.52852908    88.56446471
 O      4   1   2     1.167198189113   179.45594567   317.10735893
 O      2   1   3     1.167198390100   179.45602869   317.02965672
 O      3   1   2     1.167198365638   179.45611457    45.61657349
 N      1   2   3     2.144348587643    91.81459848   180.30593702
 N      1   2   3     2.144350474232   179.54049399   226.71307953
 N      1   2   3     2.144350177320    91.78699754   268.23068328
 C     10   1   2     1.162222161777   177.75398670    44.05698539
 C      9   1   3     1.162221649787   177.75375258    44.07509113
 C      8   1   2     1.162222629707   177.75457570   315.42287600
 C     13   8   1     1.452910190512   177.40669965   359.91582242
 H     14  13   8     1.095277326514   110.18997744   285.66233562
 H     14  13   8     1.094906472940   110.60293907   165.46241910
 H     14  13   8     1.095370702436   110.01906894    45.38593472
 C     12   9   1     1.452910612755   177.40636648   359.88894389
 H     18  12   9     1.095277212426   110.18976884   285.69273374
 H     18  12   9     1.094907971098   110.60286905   165.49299331
 H     18  12   9     1.095371590185   110.01929112    45.41639584
 C     11  10   1     1.452910681640   177.40661353   359.90192026
 H     22  11  10     1.095276426755   110.19009660   285.63634270
 H     22  11  10     1.094906601746   110.60282438   165.43643606
 H     22  11  10     1.095370506314   110.01900162    45.36002498

---------------------------
INTERNAL COORDINATES (A.U.)
---------------------------
 Mo     0   0   0     0.000000000000     0.00000000     0.00000000
 C      1   0   0     3.750574783536     0.00000000     0.00000000
 C      1   2   0     3.750573741562    88.52821499     0.00000000
 C      1   2   3     3.750575797125    88.52852908    88.56446471
 O      4   1   2     2.205684921433   179.45594567   317.10735893
 O      2   1   3     2.205685301244   179.45602869   317.02965672
 O      3   1   2     2.205685255016   179.45611457    45.61657349
 N      1   2   3     4.052231566306    91.81459848   180.30593702
 N      1   2   3     4.052235131444   179.54049399   226.71307953
 N      1   2   3     4.052234570361    91.78699754   268.23068328
 C     10   1   2     2.196281592533   177.75398670    44.05698539
 C      9   1   3     2.196280625012   177.75375258    44.07509113
 C      8   1   2     2.196282476791   177.75457570   315.42287600
 C     13   8   1     2.745602357251   177.40669965   359.91582242
 H     14  13   8     2.069774187805   110.18997744   285.66233562
 H     14  13   8     2.069073376113   110.60293907   165.46241910
 H     14  13   8     2.069950642726   110.01906894    45.38593472
 C     12   9   1     2.745603155175   177.40636648   359.88894389
 H     18  12   9     2.069773972209   110.18976884   285.69273374
 H     18  12   9     2.069076207223   110.60286905   165.49299331
 H     18  12   9     2.069952320328   110.01929112    45.41639584
 C     11  10   1     2.745603285349   177.40661353   359.90192026
 H     22  11  10     2.069772487507   110.19009660   285.63634270
 H     22  11  10     2.069073619522   110.60282438   165.43643606
 H     22  11  10     2.069950272108   110.01900162    45.36002498

---------------------
BASIS SET INFORMATION
---------------------
There are 5 groups of distinct atoms

 Group   1 Type Mo  : 7s7p5d2f1g contracted to 6s4p3d2f1g pattern {211111/4111/311/11/1}
 Group   2 Type C   : 12s6p3d1f contracted to 6s3p3d1f pattern {621111/411/111/1}
 Group   3 Type O   : 12s7p3d1f contracted to 6s4p3d1f pattern {621111/4111/111/1}
 Group   4 Type N   : 12s6p3d1f contracted to 6s3p3d1f pattern {621111/411/111/1}
 Group   5 Type H   : 5s3p1d contracted to 3s3p1d pattern {311/111/1}

Atom   0Mo   basis set group =>   1
Atom   1C    basis set group =>   2
Atom   2C    basis set group =>   2
Atom   3C    basis set group =>   2
Atom   4O    basis set group =>   3
Atom   5O    basis set group =>   3
Atom   6O    basis set group =>   3
Atom   7N    basis set group =>   4
Atom   8N    basis set group =>   4
Atom   9N    basis set group =>   4
Atom  10C    basis set group =>   2
Atom  11C    basis set group =>   2
Atom  12C    basis set group =>   2
Atom  13C    basis set group =>   2
Atom  14H    basis set group =>   5
Atom  15H    basis set group =>   5
Atom  16H    basis set group =>   5
Atom  17C    basis set group =>   2
Atom  18H    basis set group =>   5
Atom  19H    basis set group =>   5
Atom  20H    basis set group =>   5
Atom  21C    basis set group =>   2
Atom  22H    basis set group =>   5
Atom  23H    basis set group =>   5
Atom  24H    basis set group =>   5
----------------------------------
AUXILIARY/JK BASIS SET INFORMATION
----------------------------------
There are 5 groups of distinct atoms

 Group   1 Type Mo  : 13s12p10d9f6g3h2i contracted to 11s10p9d8f6g3h2i pattern {31111111111/3111111111/211111111/21111111/111111/111/11}
 Group   2 Type C   : 14s10p6d2f1g contracted to 10s8p5d1f1g pattern {5111111111/31111111/21111/2/1}
 Group   3 Type O   : 14s10p6d2f1g contracted to 10s8p4d2f1g pattern {5111111111/31111111/3111/11/1}
 Group   4 Type N   : 14s10p6d2f1g contracted to 10s8p4d2f1g pattern {5111111111/31111111/3111/11/1}
 Group   5 Type H   : 4s2p2d contracted to 2s2p2d pattern {31/11/11}

Atom   0Mo   basis set group =>   1
Atom   1C    basis set group =>   2
Atom   2C    basis set group =>   2
Atom   3C    basis set group =>   2
Atom   4O    basis set group =>   3
Atom   5O    basis set group =>   3
Atom   6O    basis set group =>   3
Atom   7N    basis set group =>   4
Atom   8N    basis set group =>   4
Atom   9N    basis set group =>   4
Atom  10C    basis set group =>   2
Atom  11C    basis set group =>   2
Atom  12C    basis set group =>   2
Atom  13C    basis set group =>   2
Atom  14H    basis set group =>   5
Atom  15H    basis set group =>   5
Atom  16H    basis set group =>   5
Atom  17C    basis set group =>   2
Atom  18H    basis set group =>   5
Atom  19H    basis set group =>   5
Atom  20H    basis set group =>   5
Atom  21C    basis set group =>   2
Atom  22H    basis set group =>   5
Atom  23H    basis set group =>   5
Atom  24H    basis set group =>   5
-------------------------
ECP PARAMETER INFORMATION
-------------------------

 Group 1, Type Mo ECP Def2-ECP (replacing 28 core electrons, lmax=3)

Atom   0Mo   ECP group =>   1



           ************************************************************
           *        Program running with 24 parallel MPI-processes    *
           *              working on a common directory               *
           ************************************************************
------------------------------------------------------------------------------
                           ORCA GTO INTEGRAL CALCULATION
------------------------------------------------------------------------------

                         BASIS SET STATISTICS AND STARTUP INFO

 # of primitive gaussian shells          ...  436
 # of primitive gaussian functions       ... 1036
 # of contracted shells                  ...  277
 # of contracted basis functions         ...  773
 Highest angular momentum                ...    4
 Maximum contraction depth               ...    6
 Integral package used                   ... LIBINT
 Integral threshhold            Thresh   ...  1.000e-10
 Primitive cut-off              TCut     ...  1.000e-11


------------------------------ INTEGRAL EVALUATION ----------------------------


 * One electron integrals 

   ECP integrals                         ... done
 Pre-screening matrix                    ... done
 Shell pair data                         ... done (   0.008 sec)



           ************************************************************
           *        Program running with 24 parallel MPI-processes    *
           *              working on a common directory               *
           ************************************************************
-------------------------------------------------------------------------------
                                 ORCA SCF
-------------------------------------------------------------------------------

------------
SCF SETTINGS
------------
Hamiltonian:
 Density Functional     Method          .... DFT(GTOs)
 Exchange Functional    Exchange        .... M06
 Correlation Functional Correlation     .... M06
 Gradients option       PostSCFGGA      .... off
 Hybrid DFT is turned on
   Fraction HF Exchange ScalHFX         ....  0.270000
   Scaling of DF-GGA-X  ScalDFX         ....  0.730000
   Scaling of DF-GGA-C  ScalDFC         ....  1.000000
   Scaling of DF-LDA-C  ScalLDAC        ....  1.000000
   Perturbative correction              ....  0.000000
   Density functional embedding theory  .... OFF


General Settings:
 Integral files         IntName         .... MOR36_pr37
 Hartree-Fock type      HFTyp           .... RHF
 Total Charge           Charge          ....    0
 Multiplicity           Mult            ....    1
 Number of Electrons    NEL             ....  122
 Basis Dimension        Dim             ....  773
 Nuclear Repulsion      ENuc            ....   1067.4966403648 Eh

Convergence Acceleration:
 DIIS                   CNVDIIS         .... on
   Start iteration      DIISMaxIt       ....    12
   Startup error        DIISStart       ....  0.200000
   # of expansion vecs  DIISMaxEq       ....     5
   Bias factor          DIISBfac        ....   1.050
   Max. coefficient     DIISMaxC        ....  10.000
 Newton-Raphson         CNVNR           .... off
 SOSCF                  CNVSOSCF        .... off
 Level Shifting         CNVShift        .... on
   Level shift para.    LevelShift      ....    0.2500
   Turn off err/grad.   ShiftErr        ....    0.0010
 Zerner damping         CNVZerner       .... off
 Static damping         CNVDamp         .... on
   Fraction old density DampFac         ....    0.7000
   Max. Damping (<1)    DampMax         ....    0.9800
   Min. Damping (>=0)   DampMin         ....    0.0000
   Turn off err/grad.   DampErr         ....    0.1000
 Fernandez-Rico         CNVRico         .... off

SCF Procedure:
 Maximum # iterations   MaxIter         ....   125
 SCF integral mode      SCFMode         .... Direct
   Integral package                     .... LIBINT
 Reset frequency        DirectResetFreq ....    20
 Integral Threshold     Thresh          ....  1.000e-10 Eh
 Primitive CutOff       TCut            ....  1.000e-11 Eh

Convergence Tolerance:
 Convergence Check Mode ConvCheckMode   .... Total+1el-Energy
 Convergence forced     ConvForced      .... 0
 Energy Change          TolE            ....  1.000e-06 Eh
 1-El. energy change                    ....  1.000e-03 Eh
 DIIS Error             TolErr          ....  1.000e-06


Diagonalization of the overlap matrix:
Smallest eigenvalue                        ... 4.649e-06
Time for diagonalization                   ...    0.119 sec
Threshold for overlap eigenvalues          ... 1.000e-08
Number of eigenvalues below threshold      ... 0
Time for construction of square roots      ...    0.075 sec
Total time needed                          ...    0.197 sec

-------------------
DFT GRID GENERATION
-------------------

General Integration Accuracy     IntAcc      ...  4.670
Radial Grid Type                 RadialGrid  ... Gauss-Chebyshev
Angular Grid (max. acc.)         AngularGrid ... Lebedev-302
Angular grid pruning method      GridPruning ... 3 (G Style)
Weight generation scheme         WeightScheme... Becke
Basis function cutoff            BFCut       ...    1.0000e-10
Integration weight cutoff        WCut        ...    1.0000e-14
Grids for H and He will be reduced by one unit

# of grid points (after initial pruning)     ... 134324 (   0.0 sec)
# of grid points (after weights+screening)   ... 123319 (   0.1 sec)
nearest neighbour list constructed           ...    0.0 sec
Grid point re-assignment to atoms done       ...    0.0 sec
Grid point division into batches done        ...    0.4 sec
Reduced shell lists constructed in    0.6 sec

Total number of grid points                  ...   123319
Total number of batches                      ...     1939
Average number of points per batch           ...       63
Average number of grid points per atom       ...     4933
Average number of shells per batch           ...   172.48 (62.27%)
Average number of basis functions per batch  ...   498.57 (64.50%)
Average number of large shells per batch     ...   136.94 (79.40%)
Average number of large basis fcns per batch ...   392.96 (78.82%)
Maximum spatial batch extension              ...   1.63,  1.79,  1.92 au
Average spatial batch extension              ...   0.04,  0.04,  0.04 au

Time for grid setup =    0.655 sec

------------------------------
INITIAL GUESS: MODEL POTENTIAL
------------------------------
Loading Hartree-Fock densities                     ... done
  calling /sw/apps/orca/orca_4_2_0_linux_x86-64_openmpi314/orca MOR36_pr37_atom42.inp > MOR36_pr37_atom42.out in order to generate an atomic fitting density for atom 0 (Mo with ECP) on-the-fly... 
    atom 0 (Mo), assumed electronic state with S=5: 1s2 2s2 2p6 3s2 3p6 4s2 3d10 4p6 5s2 4d4           ... done
Calculating cut-offs                               ... done
Setting up the integral package                    ... done
Initializing the effective Hamiltonian             ... done
Starting the Coulomb interaction                   ... done (   0.1 sec)
Reading the grid                                   ... done
Mapping shells                                     ... done
Starting the XC term evaluation                    ... done (   0.2 sec)
  promolecular density results
     # of electrons  =    149.996147575
     EX              =   -211.754647239
     EC              =     -5.680233235
     EX+EC           =   -217.434880474
Transforming the Hamiltonian                       ... done (   0.0 sec)
Diagonalizing the Hamiltonian                      ... done (   0.1 sec)
Back transforming the eigenvectors                 ... done (   0.0 sec)
Now organizing SCF variables                       ... done
                      ------------------
                      INITIAL GUESS DONE (   3.1 sec)
                      ------------------
--------------
SCF ITERATIONS
--------------
ITER       Energy         Delta-E        Max-DP      RMS-DP      [F,P]     Damp
               ***  Starting incremental Fock matrix formation  ***
  0   -805.7574709173   0.000000000000 0.91325206  0.00277231  0.4472567 0.7000
  1   -806.1029563517  -0.345485434371 0.70809806  0.00223795  0.2908287 0.7000
                               ***Turning on DIIS***
  2   -806.1846209235  -0.081664571822 0.17434146  0.00125836  0.1936374 0.7000
  3   -806.2599944357  -0.075373512176 0.08848877  0.00080890  0.1384838 0.7000
  4   -806.3118195359  -0.051825100252 0.43765411  0.00195971  0.0985412 0.0000
  5   -806.4274638709  -0.115644334942 0.12269958  0.00029669  0.0046540 0.0000
  6   -806.4275786886  -0.000114817758 0.06014798  0.00013711  0.0044926 0.0000
  7   -806.4277174665  -0.000138777936 0.08921934  0.00020498  0.0009819 0.0000
  8   -806.4277199950  -0.000002528446 0.00260291  0.00001355  0.0010548 0.0000
  9   -806.4277288501  -0.000008855124 0.00479441  0.00001868  0.0002707 0.0000
 10   -806.4277299603  -0.000001110161 0.00321594  0.00000949  0.0001955 0.0000
 11   -806.4277301756  -0.000000215281 0.00120076  0.00000757  0.0001677 0.0000
 12   -806.4277302266  -0.000000051084 0.00432989  0.00000938  0.0001366 0.0000
                 **** Energy Check signals convergence ****

               *****************************************************
               *                     SUCCESS                       *
               *           SCF CONVERGED AFTER  13 CYCLES          *
               *****************************************************


----------------
TOTAL SCF ENERGY
----------------

Total Energy       :         -806.42773034 Eh          -21944.01415 eV

Components:
Nuclear Repulsion  :         1067.49664036 Eh           29048.06036 eV
Electronic Energy  :        -1873.92437071 Eh          -50992.07451 eV
One Electron Energy:        -3244.98134395 Eh          -88300.43148 eV
Two Electron Energy:         1371.05697324 Eh           37308.35696 eV

Virial components:
Potential Energy   :        -1564.62678112 Eh          -42575.65922 eV
Kinetic Energy     :          758.19905078 Eh           20631.64506 eV
Virial Ratio       :            2.06360952


DFT components:
N(Alpha)           :       60.999995623766 electrons
N(Beta)            :       60.999995623766 electrons
N(Total)           :      121.999991247531 electrons
E(XC)              :      -78.531243582648 Eh       
DFET-embed. en.    :        0.000000000000 Eh       

---------------
SCF CONVERGENCE
---------------

  Last Energy change         ...   -1.1641e-07  Tolerance :   1.0000e-06
  Last MAX-Density change    ...    7.8268e-03  Tolerance :   1.0000e-05
  Last RMS-Density change    ...    1.9212e-05  Tolerance :   1.0000e-06
  Last DIIS Error            ...    2.3426e-05  Tolerance :   1.0000e-06

             **** THE GBW FILE WAS UPDATED (MOR36_pr37.gbw) ****
             **** DENSITY FILE WAS UPDATED (MOR36_pr37.scfp) ****
             **** ENERGY FILE WAS UPDATED (MOR36_pr37.en.tmp) ****
             **** THE GBW FILE WAS UPDATED (MOR36_pr37.gbw) ****
             **** DENSITY FILE WAS UPDATED (MOR36_pr37.scfp) ****
----------------
ORBITAL ENERGIES
----------------

  NO   OCC          E(Eh)            E(eV) 
   0   2.0000     -19.211417      -522.7692 
   1   2.0000     -19.211392      -522.7686 
   2   2.0000     -19.211386      -522.7684 
   3   2.0000     -14.414255      -392.2318 
   4   2.0000     -14.414242      -392.2315 
   5   2.0000     -14.414218      -392.2308 
   6   2.0000     -10.296165      -280.1729 
   7   2.0000     -10.296158      -280.1727 
   8   2.0000     -10.296141      -280.1722 
   9   2.0000     -10.295517      -280.1553 
  10   2.0000     -10.295508      -280.1550 
  11   2.0000     -10.295491      -280.1546 
  12   2.0000     -10.279637      -279.7231 
  13   2.0000     -10.279626      -279.7228 
  14   2.0000     -10.279589      -279.7218 
  15   2.0000      -2.488887       -67.7261 
  16   2.0000      -1.505817       -40.9754 
  17   2.0000      -1.502235       -40.8779 
  18   2.0000      -1.502226       -40.8777 
  19   2.0000      -1.072311       -29.1791 
  20   2.0000      -1.071742       -29.1636 
  21   2.0000      -1.071735       -29.1634 
  22   2.0000      -0.937125       -25.5005 
  23   2.0000      -0.934747       -25.4357 
  24   2.0000      -0.934718       -25.4350 
  25   2.0000      -0.798555       -21.7298 
  26   2.0000      -0.798134       -21.7183 
  27   2.0000      -0.798126       -21.7181 
  28   2.0000      -0.549810       -14.9611 
  29   2.0000      -0.543374       -14.7860 
  30   2.0000      -0.543361       -14.7856 
  31   2.0000      -0.522292       -14.2123 
  32   2.0000      -0.509639       -13.8680 
  33   2.0000      -0.509633       -13.8678 
  34   2.0000      -0.486404       -13.2357 
  35   2.0000      -0.485839       -13.2204 
  36   2.0000      -0.485836       -13.2203 
  37   2.0000      -0.485072       -13.1995 
  38   2.0000      -0.485058       -13.1991 
  39   2.0000      -0.484567       -13.1857 
  40   2.0000      -0.467359       -12.7175 
  41   2.0000      -0.454907       -12.3786 
  42   2.0000      -0.454884       -12.3780 
  43   2.0000      -0.412407       -11.2222 
  44   2.0000      -0.409944       -11.1552 
  45   2.0000      -0.409936       -11.1549 
  46   2.0000      -0.399591       -10.8734 
  47   2.0000      -0.399582       -10.8732 
  48   2.0000      -0.394153       -10.7254 
  49   2.0000      -0.391414       -10.6509 
  50   2.0000      -0.381027       -10.3683 
  51   2.0000      -0.381022       -10.3681 
  52   2.0000      -0.369938       -10.0665 
  53   2.0000      -0.369926       -10.0662 
  54   2.0000      -0.364036        -9.9059 
  55   2.0000      -0.363345        -9.8871 
  56   2.0000      -0.355418        -9.6714 
  57   2.0000      -0.355406        -9.6711 
  58   2.0000      -0.168535        -4.5861 
  59   2.0000      -0.165333        -4.4990 
  60   2.0000      -0.165326        -4.4987 
  61   0.0000      -0.051369        -1.3978 
  62   0.0000      -0.038314        -1.0426 
  63   0.0000      -0.038281        -1.0417 
  64   0.0000      -0.009376        -0.2551 
  65   0.0000      -0.006627        -0.1803 
  66   0.0000      -0.006602        -0.1796 
  67   0.0000      -0.001891        -0.0515 
  68   0.0000      -0.001176        -0.0320 
  69   0.0000       0.002520         0.0686 
  70   0.0000       0.002557         0.0696 
  71   0.0000       0.006560         0.1785 
  72   0.0000       0.006576         0.1790 
  73   0.0000       0.008002         0.2178 
  74   0.0000       0.023338         0.6351 
  75   0.0000       0.023464         0.6385 
  76   0.0000       0.025524         0.6945 
  77   0.0000       0.028196         0.7673 
  78   0.0000       0.028217         0.7678 
  79   0.0000       0.035791         0.9739 
  80   0.0000       0.035808         0.9744 
  81   0.0000       0.039357         1.0710 
  82   0.0000       0.050086         1.3629 
  83   0.0000       0.050144         1.3645 
  84   0.0000       0.057377         1.5613 
  85   0.0000       0.057386         1.5616 
  86   0.0000       0.058046         1.5795 
  87   0.0000       0.062503         1.7008 
  88   0.0000       0.064199         1.7469 
  89   0.0000       0.066054         1.7974 
  90   0.0000       0.066094         1.7985 
  91   0.0000       0.074594         2.0298 
  92   0.0000       0.078621         2.1394 
  93   0.0000       0.078705         2.1417 
  94   0.0000       0.079797         2.1714 
  95   0.0000       0.086006         2.3403 
  96   0.0000       0.086027         2.3409 
  97   0.0000       0.087836         2.3901 
  98   0.0000       0.100713         2.7406 
  99   0.0000       0.101447         2.7605 
 100   0.0000       0.101458         2.7608 
 101   0.0000       0.103323         2.8116 
 102   0.0000       0.115611         3.1459 
 103   0.0000       0.115619         3.1461 
 104   0.0000       0.125814         3.4236 
 105   0.0000       0.125863         3.4249 
 106   0.0000       0.128295         3.4911 
 107   0.0000       0.131701         3.5838 
 108   0.0000       0.131735         3.5847 
 109   0.0000       0.146307         3.9812 
 110   0.0000       0.147437         4.0120 
 111   0.0000       0.147519         4.0142 
 112   0.0000       0.153878         4.1872 
 113   0.0000       0.153929         4.1886 
 114   0.0000       0.157140         4.2760 
 115   0.0000       0.167863         4.5678 
 116   0.0000       0.174047         4.7361 
 117   0.0000       0.174172         4.7394 
 118   0.0000       0.177490         4.8297 
 119   0.0000       0.192430         5.2363 
 120   0.0000       0.192457         5.2370 
 121   0.0000       0.199763         5.4358 
 122   0.0000       0.205632         5.5955 
 123   0.0000       0.205867         5.6019 
 124   0.0000       0.206644         5.6231 
 125   0.0000       0.209212         5.6930 
 126   0.0000       0.209262         5.6943 
 127   0.0000       0.221235         6.0201 
 128   0.0000       0.221305         6.0220 
 129   0.0000       0.222070         6.0428 
 130   0.0000       0.224789         6.1168 
 131   0.0000       0.227252         6.1839 
 132   0.0000       0.227273         6.1844 
 133   0.0000       0.228616         6.2210 
 134   0.0000       0.228682         6.2227 
 135   0.0000       0.229235         6.2378 
 136   0.0000       0.232695         6.3319 
 137   0.0000       0.234411         6.3787 
 138   0.0000       0.234503         6.3812 
 139   0.0000       0.238687         6.4950 
 140   0.0000       0.238733         6.4963 
 141   0.0000       0.240272         6.5381 
 142   0.0000       0.250105         6.8057 
 143   0.0000       0.250957         6.8289 
 144   0.0000       0.251074         6.8321 
 145   0.0000       0.258400         7.0314 
 146   0.0000       0.258460         7.0330 
 147   0.0000       0.258597         7.0368 
 148   0.0000       0.272206         7.4071 
 149   0.0000       0.272277         7.4090 
 150   0.0000       0.274595         7.4721 
 151   0.0000       0.275319         7.4918 
 152   0.0000       0.282463         7.6862 
 153   0.0000       0.282607         7.6901 
 154   0.0000       0.285718         7.7748 
 155   0.0000       0.301216         8.1965 
 156   0.0000       0.307002         8.3540 
 157   0.0000       0.307037         8.3549 
 158   0.0000       0.320918         8.7326 
 159   0.0000       0.321857         8.7582 
 160   0.0000       0.321924         8.7600 
 161   0.0000       0.331217         9.0129 
 162   0.0000       0.331250         9.0138 
 163   0.0000       0.332445         9.0463 
 164   0.0000       0.337786         9.1916 
 165   0.0000       0.337841         9.1931 
 166   0.0000       0.339618         9.2415 
 167   0.0000       0.339840         9.2475 
 168   0.0000       0.339920         9.2497 
 169   0.0000       0.352270         9.5857 
 170   0.0000       0.357097         9.7171 
 171   0.0000       0.373580        10.1656 
 172   0.0000       0.373649        10.1675 
 173   0.0000       0.384902        10.4737 
 174   0.0000       0.385124        10.4798 
 175   0.0000       0.387103        10.5336 
 176   0.0000       0.393380        10.7044 
 177   0.0000       0.393422        10.7055 
 178   0.0000       0.393634        10.7113 
 179   0.0000       0.401467        10.9245 
 180   0.0000       0.401539        10.9264 
 181   0.0000       0.415788        11.3142 
 182   0.0000       0.419358        11.4113 
 183   0.0000       0.419388        11.4121 
 184   0.0000       0.423660        11.5284 
 185   0.0000       0.430704        11.7200 
 186   0.0000       0.442611        12.0441 
 187   0.0000       0.442653        12.0452 
 188   0.0000       0.450347        12.2546 
 189   0.0000       0.458761        12.4835 
 190   0.0000       0.465821        12.6756 
 191   0.0000       0.466217        12.6864 
 192   0.0000       0.484084        13.1726 
 193   0.0000       0.484289        13.1782 
 194   0.0000       0.486515        13.2387 
 195   0.0000       0.490517        13.3477 
 196   0.0000       0.490566        13.3490 
 197   0.0000       0.497826        13.5465 
 198   0.0000       0.497916        13.5490 
 199   0.0000       0.501241        13.6394 
 200   0.0000       0.506905        13.7936 
 201   0.0000       0.506988        13.7959 
 202   0.0000       0.507687        13.8149 
 203   0.0000       0.516832        14.0637 
 204   0.0000       0.517504        14.0820 
 205   0.0000       0.517696        14.0872 
 206   0.0000       0.524797        14.2805 
 207   0.0000       0.527546        14.3553 
 208   0.0000       0.536058        14.5869 
 209   0.0000       0.536178        14.5901 
 210   0.0000       0.543396        14.7866 
 211   0.0000       0.543453        14.7881 
 212   0.0000       0.548533        14.9263 
 213   0.0000       0.555386        15.1128 
 214   0.0000       0.564771        15.3682 
 215   0.0000       0.564867        15.3708 
 216   0.0000       0.570389        15.5211 
 217   0.0000       0.574153        15.6235 
 218   0.0000       0.574195        15.6246 
 219   0.0000       0.584413        15.9027 
 220   0.0000       0.584688        15.9102 
 221   0.0000       0.584794        15.9130 
 222   0.0000       0.596693        16.2368 
 223   0.0000       0.596757        16.2386 
 224   0.0000       0.600425        16.3384 
 225   0.0000       0.602096        16.3839 
 226   0.0000       0.611362        16.6360 
 227   0.0000       0.611436        16.6380 
 228   0.0000       0.616221        16.7682 
 229   0.0000       0.621454        16.9106 
 230   0.0000       0.621487        16.9115 
 231   0.0000       0.625893        17.0314 
 232   0.0000       0.625992        17.0341 
 233   0.0000       0.629542        17.1307 
 234   0.0000       0.631502        17.1840 
 235   0.0000       0.631629        17.1875 
 236   0.0000       0.646333        17.5876 
 237   0.0000       0.646394        17.5893 
 238   0.0000       0.652474        17.7547 
 239   0.0000       0.670126        18.2351 
 240   0.0000       0.672564        18.3014 
 241   0.0000       0.672614        18.3028 
 242   0.0000       0.677447        18.4343 
 243   0.0000       0.677544        18.4369 
 244   0.0000       0.685753        18.6603 
 245   0.0000       0.686005        18.6671 
 246   0.0000       0.686108        18.6700 
 247   0.0000       0.710114        19.3232 
 248   0.0000       0.710271        19.3275 
 249   0.0000       0.714772        19.4499 
 250   0.0000       0.723332        19.6829 
 251   0.0000       0.730354        19.8740 
 252   0.0000       0.730436        19.8762 
 253   0.0000       0.738686        20.1007 
 254   0.0000       0.742616        20.2076 
 255   0.0000       0.748429        20.3658 
 256   0.0000       0.748668        20.3723 
 257   0.0000       0.764894        20.8138 
 258   0.0000       0.765072        20.8187 
 259   0.0000       0.765963        20.8429 
 260   0.0000       0.771677        20.9984 
 261   0.0000       0.788829        21.4651 
 262   0.0000       0.788866        21.4661 
 263   0.0000       0.791123        21.5275 
 264   0.0000       0.799987        21.7687 
 265   0.0000       0.800100        21.7718 
 266   0.0000       0.809906        22.0387 
 267   0.0000       0.814805        22.1720 
 268   0.0000       0.814846        22.1731 
 269   0.0000       0.821294        22.3485 
 270   0.0000       0.823911        22.4198 
 271   0.0000       0.824032        22.4230 
 272   0.0000       0.841868        22.9084 
 273   0.0000       0.844084        22.9687 
 274   0.0000       0.844163        22.9708 
 275   0.0000       0.849272        23.1099 
 276   0.0000       0.849386        23.1130 
 277   0.0000       0.856093        23.2955 
 278   0.0000       0.862985        23.4830 
 279   0.0000       0.863126        23.4868 
 280   0.0000       0.870648        23.6915 
 281   0.0000       0.877553        23.8794 
 282   0.0000       0.877654        23.8822 
 283   0.0000       0.892169        24.2772 
 284   0.0000       0.896577        24.3971 
 285   0.0000       0.896650        24.3991 
 286   0.0000       0.905556        24.6414 
 287   0.0000       0.920979        25.0611 
 288   0.0000       0.921069        25.0635 
 289   0.0000       0.921319        25.0704 
 290   0.0000       0.938146        25.5282 
 291   0.0000       0.938208        25.5299 
 292   0.0000       0.944955        25.7135 
 293   0.0000       0.945030        25.7156 
 294   0.0000       0.947111        25.7722 
 295   0.0000       0.954058        25.9612 
 296   0.0000       0.954259        25.9667 
 297   0.0000       0.954464        25.9723 
 298   0.0000       0.971862        26.4457 
 299   0.0000       0.977325        26.5944 
 300   0.0000       0.977437        26.5974 
 301   0.0000       0.986478        26.8434 
 302   0.0000       1.002162        27.2702 
 303   0.0000       1.018367        27.7112 
 304   0.0000       1.018439        27.7131 
 305   0.0000       1.025375        27.9019 
 306   0.0000       1.028671        27.9915 
 307   0.0000       1.028688        27.9920 
 308   0.0000       1.044543        28.4234 
 309   0.0000       1.058327        28.7986 
 310   0.0000       1.058550        28.8046 
 311   0.0000       1.078691        29.3527 
 312   0.0000       1.086626        29.5686 
 313   0.0000       1.086790        29.5730 
 314   0.0000       1.093445        29.7541 
 315   0.0000       1.106422        30.1073 
 316   0.0000       1.106622        30.1127 
 317   0.0000       1.112626        30.2761 
 318   0.0000       1.133849        30.8536 
 319   0.0000       1.133899        30.8550 
 320   0.0000       1.135935        30.9104 
 321   0.0000       1.146070        31.1861 
 322   0.0000       1.150127        31.2965 
 323   0.0000       1.150155        31.2973 
 324   0.0000       1.153919        31.3997 
 325   0.0000       1.163168        31.6514 
 326   0.0000       1.163399        31.6577 
 327   0.0000       1.165281        31.7089 
 328   0.0000       1.172018        31.8922 
 329   0.0000       1.172196        31.8971 
 330   0.0000       1.184843        32.2412 
 331   0.0000       1.200096        32.6563 
 332   0.0000       1.200230        32.6599 
 333   0.0000       1.204144        32.7664 
 334   0.0000       1.204300        32.7707 
 335   0.0000       1.211034        32.9539 
 336   0.0000       1.237530        33.6749 
 337   0.0000       1.253293        34.1038 
 338   0.0000       1.263999        34.3952 
 339   0.0000       1.264142        34.3991 
 340   0.0000       1.279551        34.8183 
 341   0.0000       1.279650        34.8210 
 342   0.0000       1.294574        35.2271 
 343   0.0000       1.300459        35.3873 
 344   0.0000       1.300562        35.3901 
 345   0.0000       1.314239        35.7623 
 346   0.0000       1.323569        36.0161 
 347   0.0000       1.323716        36.0201 
 348   0.0000       1.351532        36.7770 
 349   0.0000       1.351662        36.7806 
 350   0.0000       1.364893        37.1406 
 351   0.0000       1.380583        37.5676 
 352   0.0000       1.385509        37.7016 
 353   0.0000       1.385636        37.7051 
 354   0.0000       1.400602        38.1123 
 355   0.0000       1.403949        38.2034 
 356   0.0000       1.404156        38.2090 
 357   0.0000       1.429174        38.8898 
 358   0.0000       1.429300        38.8932 
 359   0.0000       1.467179        39.9240 
 360   0.0000       1.467303        39.9273 
 361   0.0000       1.471166        40.0325 
 362   0.0000       1.475883        40.1608 
 363   0.0000       1.481872        40.3238 
 364   0.0000       1.481959        40.3262 
 365   0.0000       1.488377        40.5008 
 366   0.0000       1.493731        40.6465 
 367   0.0000       1.493856        40.6499 
 368   0.0000       1.503714        40.9181 
 369   0.0000       1.508304        41.0430 
 370   0.0000       1.508311        41.0432 
 371   0.0000       1.508591        41.0508 
 372   0.0000       1.520545        41.3761 
 373   0.0000       1.520580        41.3771 
 374   0.0000       1.533129        41.7186 
 375   0.0000       1.533279        41.7226 
 376   0.0000       1.550486        42.1909 
 377   0.0000       1.588131        43.2152 
 378   0.0000       1.599077        43.5131 
 379   0.0000       1.606017        43.7020 
 380   0.0000       1.606153        43.7056 
 381   0.0000       1.640563        44.6420 
 382   0.0000       1.640676        44.6451 
 383   0.0000       1.674315        45.5604 
 384   0.0000       1.674346        45.5613 
 385   0.0000       1.676307        45.6146 
 386   0.0000       1.740498        47.3613 
 387   0.0000       1.740557        47.3630 
 388   0.0000       1.744678        47.4751 
 389   0.0000       1.747696        47.5572 
 390   0.0000       1.775205        48.3058 
 391   0.0000       1.775300        48.3084 
 392   0.0000       1.797233        48.9052 
 393   0.0000       1.812318        49.3157 
 394   0.0000       1.812440        49.3190 
 395   0.0000       1.839497        50.0553 
 396   0.0000       1.843535        50.1652 
 397   0.0000       1.843746        50.1709 
 398   0.0000       1.851421        50.3797 
 399   0.0000       1.851476        50.3812 
 400   0.0000       1.858676        50.5772 
 401   0.0000       1.858707        50.5780 
 402   0.0000       1.891986        51.4835 
 403   0.0000       1.904297        51.8186 
 404   0.0000       1.911235        52.0073 
 405   0.0000       1.914977        52.1092 
 406   0.0000       1.915035        52.1107 
 407   0.0000       1.924460        52.3672 
 408   0.0000       1.924524        52.3690 
 409   0.0000       1.933827        52.6221 
 410   0.0000       1.952778        53.1378 
 411   0.0000       1.953006        53.1440 
 412   0.0000       1.967008        53.5250 
 413   0.0000       1.986790        54.0633 
 414   0.0000       1.986855        54.0651 
 415   0.0000       1.989788        54.1449 
 416   0.0000       2.006416        54.5974 
 417   0.0000       2.019779        54.9610 
 418   0.0000       2.039452        55.4963 
 419   0.0000       2.039473        55.4969 
 420   0.0000       2.063955        56.1631 
 421   0.0000       2.063959        56.1632 
 422   0.0000       2.122079        57.7447 
 423   0.0000       2.122189        57.7477 
 424   0.0000       2.166243        58.9465 
 425   0.0000       2.166362        58.9497 
 426   0.0000       2.181445        59.3601 
 427   0.0000       2.186182        59.4890 
 428   0.0000       2.186208        59.4898 
 429   0.0000       2.207771        60.0765 
 430   0.0000       2.212407        60.2027 
 431   0.0000       2.212557        60.2067 
 432   0.0000       2.249810        61.2204 
 433   0.0000       2.275381        61.9163 
 434   0.0000       2.279369        62.0248 
 435   0.0000       2.287110        62.2354 
 436   0.0000       2.287156        62.2367 
 437   0.0000       2.318153        63.0801 
 438   0.0000       2.318164        63.0805 
 439   0.0000       2.329495        63.3888 
 440   0.0000       2.329611        63.3919 
 441   0.0000       2.331629        63.4468 
 442   0.0000       2.380233        64.7694 
 443   0.0000       2.450730        66.6878 
 444   0.0000       2.450776        66.6890 
 445   0.0000       2.475188        67.3533 
 446   0.0000       2.524613        68.6982 
 447   0.0000       2.526893        68.7602 
 448   0.0000       2.527024        68.7638 
 449   0.0000       2.544433        69.2375 
 450   0.0000       2.557394        69.5902 
 451   0.0000       2.557536        69.5941 
 452   0.0000       2.558723        69.6264 
 453   0.0000       2.589273        70.4577 
 454   0.0000       2.589412        70.4615 
 455   0.0000       2.590444        70.4896 
 456   0.0000       2.600615        70.7663 
 457   0.0000       2.602747        70.8243 
 458   0.0000       2.602801        70.8258 
 459   0.0000       2.613463        71.1159 
 460   0.0000       2.630764        71.5867 
 461   0.0000       2.630816        71.5881 
 462   0.0000       2.631084        71.5954 
 463   0.0000       2.646320        72.0100 
 464   0.0000       2.646375        72.0115 
 465   0.0000       2.659471        72.3679 
 466   0.0000       2.671395        72.6923 
 467   0.0000       2.671429        72.6933 
 468   0.0000       2.677688        72.8636 
 469   0.0000       2.694290        73.3154 
 470   0.0000       2.694411        73.3187 
 471   0.0000       2.708630        73.7056 
 472   0.0000       2.708760        73.7091 
 473   0.0000       2.719093        73.9903 
 474   0.0000       2.738680        74.5233 
 475   0.0000       2.738884        74.5288 
 476   0.0000       2.739087        74.5343 
 477   0.0000       2.752584        74.9016 
 478   0.0000       2.752626        74.9028 
 479   0.0000       2.755196        74.9727 
 480   0.0000       2.757653        75.0396 
 481   0.0000       2.757731        75.0417 
 482   0.0000       2.769015        75.3487 
 483   0.0000       2.772807        75.4519 
 484   0.0000       2.773197        75.4625 
 485   0.0000       2.773967        75.4835 
 486   0.0000       2.793295        76.0094 
 487   0.0000       2.809033        76.4377 
 488   0.0000       2.809253        76.4436 
 489   0.0000       2.821821        76.7856 
 490   0.0000       2.821963        76.7895 
 491   0.0000       2.824437        76.8568 
 492   0.0000       2.835287        77.1521 
 493   0.0000       2.838151        77.2300 
 494   0.0000       2.838305        77.2342 
 495   0.0000       2.846860        77.4670 
 496   0.0000       2.853147        77.6381 
 497   0.0000       2.853192        77.6393 
 498   0.0000       2.854046        77.6625 
 499   0.0000       2.863890        77.9304 
 500   0.0000       2.863935        77.9316 
 501   0.0000       2.910964        79.2114 
 502   0.0000       2.911075        79.2144 
 503   0.0000       2.912867        79.2631 
 504   0.0000       2.932137        79.7875 
 505   0.0000       2.936562        79.9079 
 506   0.0000       2.936640        79.9100 
 507   0.0000       2.957896        80.4884 
 508   0.0000       2.982016        81.1448 
 509   0.0000       2.982276        81.1519 
 510   0.0000       2.982864        81.1678 
 511   0.0000       2.993888        81.4678 
 512   0.0000       2.993946        81.4694 
 513   0.0000       2.999767        81.6278 
 514   0.0000       3.019184        82.1562 
 515   0.0000       3.019301        82.1594 
 516   0.0000       3.029498        82.4368 
 517   0.0000       3.029688        82.4420 
 518   0.0000       3.032584        82.5208 
 519   0.0000       3.068861        83.5080 
 520   0.0000       3.082571        83.8810 
 521   0.0000       3.082681        83.8840 
 522   0.0000       3.091612        84.1270 
 523   0.0000       3.091714        84.1298 
 524   0.0000       3.100131        84.3589 
 525   0.0000       3.100284        84.3630 
 526   0.0000       3.106493        84.5320 
 527   0.0000       3.121525        84.9410 
 528   0.0000       3.127512        85.1039 
 529   0.0000       3.127610        85.1066 
 530   0.0000       3.142560        85.5134 
 531   0.0000       3.142603        85.5146 
 532   0.0000       3.149223        85.6947 
 533   0.0000       3.160417        85.9993 
 534   0.0000       3.186165        86.7000 
 535   0.0000       3.186430        86.7072 
 536   0.0000       3.194313        86.9217 
 537   0.0000       3.220958        87.6467 
 538   0.0000       3.229200        87.8710 
 539   0.0000       3.229375        87.8758 
 540   0.0000       3.239097        88.1403 
 541   0.0000       3.239637        88.1550 
 542   0.0000       3.239840        88.1605 
 543   0.0000       3.261698        88.7553 
 544   0.0000       3.261797        88.7580 
 545   0.0000       3.261823        88.7587 
 546   0.0000       3.273427        89.0745 
 547   0.0000       3.273679        89.0813 
 548   0.0000       3.318259        90.2944 
 549   0.0000       3.318468        90.3001 
 550   0.0000       3.331820        90.6634 
 551   0.0000       3.331923        90.6662 
 552   0.0000       3.333409        90.7067 
 553   0.0000       3.342796        90.9621 
 554   0.0000       3.362751        91.5051 
 555   0.0000       3.366370        91.6036 
 556   0.0000       3.366545        91.6084 
 557   0.0000       3.377128        91.8963 
 558   0.0000       3.383023        92.0567 
 559   0.0000       3.383164        92.0606 
 560   0.0000       3.400258        92.5257 
 561   0.0000       3.424896        93.1962 
 562   0.0000       3.426596        93.2424 
 563   0.0000       3.426763        93.2470 
 564   0.0000       3.436037        93.4993 
 565   0.0000       3.436185        93.5034 
 566   0.0000       3.437832        93.5482 
 567   0.0000       3.448853        93.8481 
 568   0.0000       3.449006        93.8522 
 569   0.0000       3.451072        93.9084 
 570   0.0000       3.469826        94.4188 
 571   0.0000       3.470753        94.4440 
 572   0.0000       3.470854        94.4467 
 573   0.0000       3.485016        94.8321 
 574   0.0000       3.511121        95.5425 
 575   0.0000       3.511283        95.5469 
 576   0.0000       3.530150        96.0603 
 577   0.0000       3.566328        97.0447 
 578   0.0000       3.566424        97.0473 
 579   0.0000       3.567391        97.0736 
 580   0.0000       3.573156        97.2305 
 581   0.0000       3.573304        97.2346 
 582   0.0000       3.588370        97.6445 
 583   0.0000       3.615461        98.3817 
 584   0.0000       3.618267        98.4581 
 585   0.0000       3.618385        98.4613 
 586   0.0000       3.626661        98.6865 
 587   0.0000       3.626679        98.6869 
 588   0.0000       3.704638       100.8083 
 589   0.0000       3.717885       101.1688 
 590   0.0000       3.718011       101.1722 
 591   0.0000       3.780615       102.8758 
 592   0.0000       3.803885       103.5090 
 593   0.0000       3.803983       103.5116 
 594   0.0000       3.847950       104.7080 
 595   0.0000       3.848008       104.7096 
 596   0.0000       3.853384       104.8559 
 597   0.0000       3.866324       105.2080 
 598   0.0000       3.866453       105.2115 
 599   0.0000       3.868064       105.2554 
 600   0.0000       3.881348       105.6169 
 601   0.0000       3.881594       105.6235 
 602   0.0000       3.892059       105.9083 
 603   0.0000       3.927534       106.8736 
 604   0.0000       3.927820       106.8814 
 605   0.0000       3.949135       107.4614 
 606   0.0000       3.972616       108.1004 
 607   0.0000       3.973432       108.1226 
 608   0.0000       3.973480       108.1239 
 609   0.0000       3.975863       108.1887 
 610   0.0000       3.980550       108.3163 
 611   0.0000       3.980634       108.3186 
 612   0.0000       3.985845       108.4604 
 613   0.0000       3.992922       108.6529 
 614   0.0000       3.993014       108.6554 
 615   0.0000       4.035822       109.8203 
 616   0.0000       4.038108       109.8825 
 617   0.0000       4.038176       109.8843 
 618   0.0000       4.066266       110.6487 
 619   0.0000       4.066316       110.6501 
 620   0.0000       4.076208       110.9193 
 621   0.0000       4.077014       110.9412 
 622   0.0000       4.077086       110.9431 
 623   0.0000       4.086720       111.2053 
 624   0.0000       4.097907       111.5097 
 625   0.0000       4.098323       111.5210 
 626   0.0000       4.098435       111.5241 
 627   0.0000       4.108533       111.7989 
 628   0.0000       4.109632       111.8288 
 629   0.0000       4.109710       111.8309 
 630   0.0000       4.126745       112.2944 
 631   0.0000       4.181615       113.7875 
 632   0.0000       4.181762       113.7915 
 633   0.0000       4.207461       114.4908 
 634   0.0000       4.212386       114.6249 
 635   0.0000       4.212451       114.6266 
 636   0.0000       4.356517       118.5469 
 637   0.0000       4.356742       118.5530 
 638   0.0000       4.362310       118.7045 
 639   0.0000       4.364193       118.7557 
 640   0.0000       4.364266       118.7577 
 641   0.0000       4.371328       118.9499 
 642   0.0000       4.451443       121.1299 
 643   0.0000       4.524238       123.1108 
 644   0.0000       4.524265       123.1115 
 645   0.0000       4.538540       123.4999 
 646   0.0000       4.549245       123.7912 
 647   0.0000       4.549350       123.7941 
 648   0.0000       4.562788       124.1598 
 649   0.0000       4.564309       124.2012 
 650   0.0000       4.564331       124.2018 
 651   0.0000       4.567343       124.2837 
 652   0.0000       4.636823       126.1744 
 653   0.0000       4.636844       126.1749 
 654   0.0000       4.693392       127.7137 
 655   0.0000       4.693611       127.7197 
 656   0.0000       4.698380       127.8494 
 657   0.0000       4.717492       128.3695 
 658   0.0000       4.717644       128.3736 
 659   0.0000       4.723592       128.5355 
 660   0.0000       4.728220       128.6614 
 661   0.0000       4.735982       128.8726 
 662   0.0000       4.736399       128.8840 
 663   0.0000       4.807118       130.8083 
 664   0.0000       4.813243       130.9750 
 665   0.0000       4.813279       130.9760 
 666   0.0000       4.823532       131.2550 
 667   0.0000       4.829123       131.4071 
 668   0.0000       4.829212       131.4095 
 669   0.0000       4.866800       132.4324 
 670   0.0000       4.951099       134.7262 
 671   0.0000       4.951820       134.7459 
 672   0.0000       4.951930       134.7489 
 673   0.0000       4.981133       135.5435 
 674   0.0000       4.981204       135.5454 
 675   0.0000       5.084642       138.3602 
 676   0.0000       5.090600       138.5223 
 677   0.0000       5.091185       138.5382 
 678   0.0000       5.100028       138.7788 
 679   0.0000       5.102872       138.8562 
 680   0.0000       5.104034       138.8878 
 681   0.0000       5.104605       138.9034 
 682   0.0000       5.123806       139.4258 
 683   0.0000       5.124159       139.4354 
 684   0.0000       5.124690       139.4499 
 685   0.0000       5.130593       139.6105 
 686   0.0000       5.130812       139.6165 
 687   0.0000       5.133370       139.6861 
 688   0.0000       5.176552       140.8611 
 689   0.0000       5.176933       140.8715 
 690   0.0000       5.192299       141.2896 
 691   0.0000       5.193721       141.3283 
 692   0.0000       5.193745       141.3290 
 693   0.0000       5.193784       141.3301 
 694   0.0000       5.195936       141.3886 
 695   0.0000       5.195972       141.3896 
 696   0.0000       5.196738       141.4104 
 697   0.0000       5.216804       141.9565 
 698   0.0000       5.217358       141.9715 
 699   0.0000       5.268650       143.3672 
 700   0.0000       5.270856       143.4273 
 701   0.0000       5.271380       143.4415 
 702   0.0000       5.304308       144.3376 
 703   0.0000       5.304442       144.3412 
 704   0.0000       5.310811       144.5145 
 705   0.0000       5.423288       147.5752 
 706   0.0000       5.424100       147.5973 
 707   0.0000       5.424267       147.6018 
 708   0.0000       5.552932       151.1030 
 709   0.0000       5.552975       151.1041 
 710   0.0000       5.559057       151.2696 
 711   0.0000       5.565587       151.4473 
 712   0.0000       5.565989       151.4583 
 713   0.0000       5.577143       151.7618 
 714   0.0000       5.577936       151.7834 
 715   0.0000       5.584146       151.9523 
 716   0.0000       5.588068       152.0591 
 717   0.0000       5.588876       152.0811 
 718   0.0000       5.602925       152.4634 
 719   0.0000       5.603074       152.4674 
 720   0.0000       5.870638       159.7482 
 721   0.0000       5.870821       159.7532 
 722   0.0000       5.877091       159.9238 
 723   0.0000       5.898478       160.5057 
 724   0.0000       5.922113       161.1489 
 725   0.0000       5.922270       161.1532 
 726   0.0000       6.124701       166.6616 
 727   0.0000       6.128595       166.7675 
 728   0.0000       6.128636       166.7687 
 729   0.0000       6.248650       170.0344 
 730   0.0000       6.248857       170.0400 
 731   0.0000       6.282984       170.9687 
 732   0.0000       6.426371       174.8704 
 733   0.0000       6.430576       174.9849 
 734   0.0000       6.430587       174.9852 
 735   0.0000       6.437465       175.1723 
 736   0.0000       6.437485       175.1729 
 737   0.0000       6.438507       175.2007 
 738   0.0000       6.551611       178.2784 
 739   0.0000       6.551699       178.2808 
 740   0.0000       6.555411       178.3818 
 741   0.0000       6.585229       179.1932 
 742   0.0000       6.599862       179.5914 
 743   0.0000       6.600016       179.5956 
 744   0.0000       6.672387       181.5649 
 745   0.0000       6.672410       181.5655 
 746   0.0000       6.687817       181.9848 
 747   0.0000       6.970859       189.6867 
 748   0.0000       6.971911       189.7154 
 749   0.0000       6.972529       189.7322 
 750   0.0000       6.972588       189.7338 
 751   0.0000       6.982253       189.9968 
 752   0.0000       6.982319       189.9986 
 753   0.0000       7.251524       197.3240 
 754   0.0000       7.260677       197.5731 
 755   0.0000       7.260694       197.5735 
 756   0.0000      23.458935       638.3501 
 757   0.0000      23.458978       638.3512 
 758   0.0000      23.488159       639.1453 
 759   0.0000      23.505441       639.6156 
 760   0.0000      23.505496       639.6171 
 761   0.0000      23.612298       642.5233 
 762   0.0000      23.775233       646.9570 
 763   0.0000      23.775276       646.9582 
 764   0.0000      23.788034       647.3053 
 765   0.0000      25.679477       698.7741 
 766   0.0000      32.861795       894.2149 
 767   0.0000      33.064527       899.7315 
 768   0.0000      33.064583       899.7330 
 769   0.0000      44.214765      1203.1449 
 770   0.0000      44.347082      1206.7454 
 771   0.0000      44.347101      1206.7460 
 772   0.0000      85.498777      2326.5400 

                    ********************************
                    * MULLIKEN POPULATION ANALYSIS *
                    ********************************

-----------------------
MULLIKEN ATOMIC CHARGES
-----------------------
   0 Mo:    0.083916
   1 C :    0.053300
   2 C :    0.054195
   3 C :    0.054166
   4 O :   -0.485139
   5 O :   -0.486510
   6 O :   -0.485988
   7 N :   -0.690727
   8 N :   -0.691037
   9 N :   -0.694329
  10 C :    1.191122
  11 C :    1.196697
  12 C :    1.192031
  13 C :   -1.392740
  14 H :    0.427832
  15 H :    0.433890
  16 H :    0.434535
  17 C :   -1.399317
  18 H :    0.429620
  19 H :    0.434619
  20 H :    0.432880
  21 C :   -1.385161
  22 H :    0.427239
  23 H :    0.432047
  24 H :    0.432860
Sum of atomic charges:   -0.0000000

--------------------------------
MULLIKEN REDUCED ORBITAL CHARGES
--------------------------------
  0 Mos       :     2.201402  s :     2.201402
      pz      :     2.306025  p :     6.638793
      px      :     2.166698
      py      :     2.166070
      dz2     :     1.262555  d :     4.979945
      dxz     :     0.774538
      dyz     :     0.775762
      dx2y2   :     1.082773
      dxy     :     1.084317
      f0      :     0.010721  f :     0.090893
      f+1     :     0.008958
      f-1     :     0.008941
      f+2     :     0.022426
      f-2     :     0.022413
      f+3     :     0.010602
      f-3     :     0.006832
      g0      :     0.000564  g :     0.005052
      g+1     :     0.000307
      g-1     :     0.000306
      g+2     :     0.000738
      g-2     :     0.000738
      g+3     :     0.001051
      g-3     :     0.000652
      g+4     :     0.000348
      g-4     :     0.000347
  1 C s       :     3.855490  s :     3.855490
      pz      :     0.720110  p :     2.094125
      px      :     0.643491
      py      :     0.730525
      dz2     :     0.008270  d :    -0.020987
      dxz     :    -0.000123
      dyz     :    -0.027690
      dx2y2   :    -0.005006
      dxy     :     0.003562
      f0      :     0.001598  f :     0.018071
      f+1     :     0.000875
      f-1     :     0.005125
      f+2     :     0.002673
      f-2     :     0.003289
      f+3     :     0.002011
      f-3     :     0.002501
  2 C s       :     3.856067  s :     3.856067
      pz      :     0.719807  p :     2.092865
      px      :     0.679153
      py      :     0.693905
      dz2     :     0.008077  d :    -0.021200
      dxz     :    -0.012101
      dyz     :    -0.015626
      dx2y2   :     0.013916
      dxy     :    -0.015465
      f0      :     0.001597  f :     0.018074
      f+1     :     0.002655
      f-1     :     0.003352
      f+2     :     0.004150
      f-2     :     0.001809
      f+3     :     0.002013
      f-3     :     0.002498
  3 C s       :     3.856747  s :     3.856747
      pz      :     0.718982  p :     2.092073
      px      :     0.737785
      py      :     0.635307
      dz2     :     0.008239  d :    -0.021055
      dxz     :    -0.029134
      dyz     :     0.001454
      dx2y2   :    -0.011387
      dxy     :     0.009773
      f0      :     0.001602  f :     0.018068
      f+1     :     0.005472
      f-1     :     0.000523
      f+2     :     0.002124
      f-2     :     0.003840
      f+3     :     0.002011
      f-3     :     0.002497
  4 O s       :     4.038094  s :     4.038094
      pz      :     1.458667  p :     4.398671
      px      :     1.373943
      py      :     1.566060
      dz2     :     0.014307  d :     0.046989
      dxz     :     0.005818
      dyz     :     0.008036
      dx2y2   :     0.007322
      dxy     :     0.011506
      f0      :     0.000101  f :     0.001385
      f+1     :     0.000490
      f-1     :     0.000048
      f+2     :     0.000017
      f-2     :     0.000356
      f+3     :     0.000148
      f-3     :     0.000225
  5 O s       :     4.038910  s :     4.038910
      pz      :     1.459251  p :     4.399120
      px      :     1.552528
      py      :     1.387341
      dz2     :     0.014322  d :     0.047094
      dxz     :     0.007884
      dyz     :     0.005999
      dx2y2   :     0.008664
      dxy     :     0.010225
      f0      :     0.000100  f :     0.001386
      f+1     :     0.000079
      f-1     :     0.000460
      f+2     :     0.000125
      f-2     :     0.000249
      f+3     :     0.000148
      f-3     :     0.000225
  6 O s       :     4.038627  s :     4.038627
      pz      :     1.459001  p :     4.398947
      px      :     1.483532
      py      :     1.456414
      dz2     :     0.014318  d :     0.047029
      dxz     :     0.007050
      dyz     :     0.006794
      dx2y2   :     0.012310
      dxy     :     0.006558
      f0      :     0.000100  f :     0.001385
      f+1     :     0.000238
      f-1     :     0.000301
      f+2     :     0.000418
      f-2     :    -0.000044
      f+3     :     0.000148
      f-3     :     0.000224
  7 N s       :     4.372952  s :     4.372952
      pz      :     1.036815  p :     3.206481
      px      :     1.097661
      py      :     1.072005
      dz2     :     0.018950  d :     0.108514
      dxz     :     0.022871
      dyz     :     0.026695
      dx2y2   :     0.013290
      dxy     :     0.026708
      f0      :     0.000107  f :     0.002780
      f+1     :     0.000520
      f-1     :     0.000663
      f+2     :     0.000814
      f-2     :    -0.000134
      f+3     :     0.000310
      f-3     :     0.000500
  8 N s       :     4.370781  s :     4.370781
      pz      :     1.035575  p :     3.209153
      px      :     1.163257
      py      :     1.010321
      dz2     :     0.018723  d :     0.108322
      dxz     :     0.014598
      dyz     :     0.035197
      dx2y2   :     0.021468
      dxy     :     0.018336
      f0      :     0.000106  f :     0.002781
      f+1     :     0.000155
      f-1     :     0.001028
      f+2     :     0.000211
      f-2     :     0.000470
      f+3     :     0.000310
      f-3     :     0.000500
  9 N s       :     4.376190  s :     4.376190
      pz      :     1.039075  p :     3.207967
      px      :     0.994410
      py      :     1.174481
      dz2     :     0.018688  d :     0.107397
      dxz     :     0.036665
      dyz     :     0.012309
      dx2y2   :     0.025209
      dxy     :     0.014526
      f0      :     0.000106  f :     0.002776
      f+1     :     0.001099
      f-1     :     0.000084
      f+2     :    -0.000006
      f-2     :     0.000684
      f+3     :     0.000310
      f-3     :     0.000498
 10 C s       :     2.758160  s :     2.758160
      pz      :     0.678455  p :     2.209452
      px      :     0.691110
      py      :     0.839887
      dz2     :    -0.022242  d :    -0.176031
      dxz     :    -0.078379
      dyz     :    -0.002674
      dx2y2   :    -0.048389
      dxy     :    -0.024348
      f0      :     0.000989  f :     0.017297
      f+1     :     0.005793
      f-1     :     0.000362
      f+2     :     0.001613
      f-2     :     0.003617
      f+3     :     0.002119
      f-3     :     0.002804
 11 C s       :     2.756995  s :     2.756995
      pz      :     0.672885  p :     2.206944
      px      :     0.831818
      py      :     0.702241
      dz2     :    -0.022730  d :    -0.177921
      dxz     :    -0.008591
      dyz     :    -0.071769
      dx2y2   :    -0.034821
      dxy     :    -0.040009
      f0      :     0.000988  f :     0.017284
      f+1     :     0.000751
      f-1     :     0.005396
      f+2     :     0.002241
      f-2     :     0.002986
      f+3     :     0.002121
      f-3     :     0.002801
 12 C s       :     2.762830  s :     2.762830
      pz      :     0.675226  p :     2.204832
      px      :     0.777014
      py      :     0.752592
      dz2     :    -0.022912  d :    -0.176971
      dxz     :    -0.034599
      dyz     :    -0.045593
      dx2y2   :    -0.027157
      dxy     :    -0.046709
      f0      :     0.000986  f :     0.017277
      f+1     :     0.002685
      f-1     :     0.003462
      f+2     :     0.003986
      f-2     :     0.001238
      f+3     :     0.002119
      f-3     :     0.002800
 13 C s       :     3.893216  s :     3.893216
      pz      :     1.180935  p :     3.438141
      px      :     1.163134
      py      :     1.094073
      dz2     :     0.029457  d :     0.061520
      dxz     :     0.003669
      dyz     :     0.003621
      dx2y2   :     0.023628
      dxy     :     0.001146
      f0      :     0.000176  f :    -0.000138
      f+1     :    -0.000126
      f-1     :    -0.000053
      f+2     :    -0.000181
      f-2     :    -0.000025
      f+3     :     0.000064
      f-3     :     0.000008
 14 H s       :     0.505034  s :     0.505034
      pz      :     0.023882  p :     0.065634
      px      :     0.032321
      py      :     0.009431
      dz2     :    -0.000088  d :     0.001500
      dxz     :     0.000842
      dyz     :     0.000055
      dx2y2   :     0.000019
      dxy     :     0.000672
 15 H s       :     0.503399  s :     0.503399
      pz      :     0.031149  p :     0.061220
      px      :     0.012434
      py      :     0.017636
      dz2     :    -0.000104  d :     0.001492
      dxz     :     0.000597
      dyz     :     0.000865
      dx2y2   :     0.000071
      dxy     :     0.000064
 16 H s       :     0.497824  s :     0.497824
      pz      :     0.014004  p :     0.066143
      px      :     0.020128
      py      :     0.032011
      dz2     :     0.000280  d :     0.001498
      dxz     :     0.000106
      dyz     :     0.000398
      dx2y2   :    -0.000071
      dxy     :     0.000785
 17 C s       :     3.900598  s :     3.900598
      pz      :     1.180195  p :     3.437852
      px      :     1.365690
      py      :     0.891967
      dz2     :     0.029277  d :     0.061003
      dxz     :     0.012305
      dyz     :    -0.005255
      dx2y2   :     0.000282
      dxy     :     0.024394
      f0      :     0.000174  f :    -0.000137
      f+1     :    -0.000178
      f-1     :     0.000003
      f+2     :    -0.000235
      f-2     :     0.000028
      f+3     :     0.000064
      f-3     :     0.000007
 18 H s       :     0.503632  s :     0.503632
      pz      :     0.023863  p :     0.065231
      px      :     0.016024
      py      :     0.025344
      dz2     :    -0.000090  d :     0.001517
      dxz     :     0.000421
      dyz     :     0.000492
      dx2y2   :     0.000962
      dxy     :    -0.000269
 19 H s       :     0.503079  s :     0.503079
      pz      :     0.030760  p :     0.060810
      px      :     0.033170
      py      :    -0.003120
      dz2     :    -0.000102  d :     0.001492
      dxz     :     0.000670
      dyz     :     0.000790
      dx2y2   :     0.000058
      dxy     :     0.000075
 20 H s       :     0.499485  s :     0.499485
      pz      :     0.013932  p :     0.066133
      px      :     0.032285
      py      :     0.019917
      dz2     :     0.000276  d :     0.001503
      dxz     :     0.000341
      dyz     :     0.000173
      dx2y2   :     0.000443
      dxy     :     0.000270
 21 C s       :     3.887038  s :     3.887038
      pz      :     1.179812  p :     3.436852
      px      :     0.859740
      py      :     1.397299
      dz2     :     0.029489  d :     0.061413
      dxz     :    -0.005228
      dyz     :     0.012520
      dx2y2   :     0.012996
      dxy     :     0.011636
      f0      :     0.000177  f :    -0.000142
      f+1     :     0.000037
      f-1     :    -0.000216
      f+2     :     0.000104
      f-2     :    -0.000314
      f+3     :     0.000064
      f-3     :     0.000006
 22 H s       :     0.505861  s :     0.505861
      pz      :     0.023597  p :     0.065399
      px      :     0.014170
      py      :     0.027632
      dz2     :    -0.000087  d :     0.001501
      dxz     :     0.000091
      dyz     :     0.000806
      dx2y2   :     0.000070
      dxy     :     0.000622
 23 H s       :     0.505762  s :     0.505762
      pz      :     0.030927  p :     0.060697
      px      :    -0.000486
      py      :     0.030256
      dz2     :    -0.000107  d :     0.001495
      dxz     :     0.000923
      dyz     :     0.000543
      dx2y2   :     0.000074
      dxy     :     0.000061
 24 H s       :     0.499883  s :     0.499883
      pz      :     0.013975  p :     0.065738
      px      :     0.026020
      py      :     0.025743
      dz2     :     0.000286  d :     0.001519
      dxz     :     0.000321
      dyz     :     0.000188
      dx2y2   :     0.000703
      dxy     :     0.000019


                     *******************************
                     * LOEWDIN POPULATION ANALYSIS *
                     *******************************

----------------------
LOEWDIN ATOMIC CHARGES
----------------------
   0 Mo:    0.470538
   1 C :   -0.252235
   2 C :   -0.252216
   3 C :   -0.252145
   4 O :    0.009157
   5 O :    0.009083
   6 O :    0.009102
   7 N :    0.046578
   8 N :    0.046592
   9 N :    0.046600
  10 C :   -0.114507
  11 C :   -0.114551
  12 C :   -0.114509
  13 C :    0.149561
  14 H :    0.002248
  15 H :   -0.001147
  16 H :    0.003513
  17 C :    0.149555
  18 H :    0.002228
  19 H :   -0.001144
  20 H :    0.003502
  21 C :    0.149621
  22 H :    0.002258
  23 H :   -0.001171
  24 H :    0.003487

-------------------------------
LOEWDIN REDUCED ORBITAL CHARGES
-------------------------------
  0 Mos       :     1.856750  s :     1.856750
      pz      :     2.141631  p :     6.409632
      px      :     2.133992
      py      :     2.134009
      dz2     :     1.097396  d :     4.897584
      dxz     :     0.873672
      dyz     :     0.873838
      dx2y2   :     1.026402
      dxy     :     1.026275
      f0      :     0.041274  f :     0.341651
      f+1     :     0.032650
      f-1     :     0.032610
      f+2     :     0.085648
      f-2     :     0.085667
      f+3     :     0.038990
      f-3     :     0.024811
      g0      :     0.002945  g :     0.023845
      g+1     :     0.001216
      g-1     :     0.001216
      g+2     :     0.003395
      g-2     :     0.003394
      g+3     :     0.005521
      g-3     :     0.003347
      g+4     :     0.001406
      g-4     :     0.001405
  1 C s       :     2.947249  s :     2.947249
      pz      :     0.797303  p :     2.344519
      px      :     0.668942
      py      :     0.878273
      dz2     :     0.192981  d :     0.874672
      dxz     :     0.114318
      dyz     :     0.210249
      dx2y2   :     0.173308
      dxy     :     0.183816
      f0      :     0.008363  f :     0.085796
      f+1     :     0.003556
      f-1     :     0.021699
      f+2     :     0.016241
      f-2     :     0.016196
      f+3     :     0.009518
      f-3     :     0.010221
  2 C s       :     2.947275  s :     2.947275
      pz      :     0.797378  p :     2.344455
      px      :     0.756354
      py      :     0.790723
      dz2     :     0.193012  d :     0.874688
      dxz     :     0.154418
      dyz     :     0.170182
      dx2y2   :     0.198207
      dxy     :     0.158869
      f0      :     0.008364  f :     0.085798
      f+1     :     0.011138
      f-1     :     0.014124
      f+2     :     0.016148
      f-2     :     0.016291
      f+3     :     0.009516
      f-3     :     0.010216
  3 C s       :     2.947300  s :     2.947300
      pz      :     0.797468  p :     2.344342
      px      :     0.895332
      py      :     0.651543
      dz2     :     0.193082  d :     0.874704
      dxz     :     0.218153
      dyz     :     0.106502
      dx2y2   :     0.164073
      dxy     :     0.192894
      f0      :     0.008372  f :     0.085799
      f+1     :     0.023200
      f-1     :     0.002060
      f+2     :     0.016273
      f-2     :     0.016175
      f+3     :     0.009508
      f-3     :     0.010209
  4 O s       :     3.416720  s :     3.416720
      pz      :     1.460321  p :     4.363399
      px      :     1.510620
      py      :     1.392458
      dz2     :     0.033916  d :     0.204765
      dxz     :     0.076501
      dyz     :     0.020035
      dx2y2   :     0.040986
      dxy     :     0.033327
      f0      :     0.000607  f :     0.005959
      f+1     :     0.001470
      f-1     :     0.000118
      f+2     :     0.001470
      f-2     :     0.001004
      f+3     :     0.000659
      f-3     :     0.000631
  5 O s       :     3.416737  s :     3.416737
      pz      :     1.460254  p :     4.363424
      px      :     1.400811
      py      :     1.502360
      dz2     :     0.033911  d :     0.204796
      dxz     :     0.024020
      dyz     :     0.072494
      dx2y2   :     0.038578
      dxy     :     0.035793
      f0      :     0.000607  f :     0.005959
      f+1     :     0.000214
      f-1     :     0.001373
      f+2     :     0.001322
      f-2     :     0.001152
      f+3     :     0.000660
      f-3     :     0.000632
  6 O s       :     3.416734  s :     3.416734
      pz      :     1.460275  p :     4.363422
      px      :     1.443250
      py      :     1.459897
      dz2     :     0.033913  d :     0.204783
      dxz     :     0.044268
      dyz     :     0.052251
      dx2y2   :     0.031940
      dxy     :     0.042410
      f0      :     0.000607  f :     0.005959
      f+1     :     0.000698
      f-1     :     0.000889
      f+2     :     0.000919
      f-2     :     0.001555
      f+3     :     0.000660
      f-3     :     0.000632
  7 N s       :     3.108092  s :     3.108092
      pz      :     1.100557  p :     3.334654
      px      :     1.103108
      py      :     1.130990
      dz2     :     0.108199  d :     0.494579
      dxz     :     0.092378
      dyz     :     0.099852
      dx2y2   :     0.101144
      dxy     :     0.093005
      f0      :     0.001513  f :     0.016096
      f+1     :     0.001881
      f-1     :     0.002398
      f+2     :     0.002513
      f-2     :     0.003834
      f+3     :     0.001982
      f-3     :     0.001975
  8 N s       :     3.108066  s :     3.108066
      pz      :     1.100536  p :     3.334696
      px      :     1.032197
      py      :     1.201963
      dz2     :     0.108150  d :     0.494549
      dxz     :     0.073315
      dyz     :     0.118936
      dx2y2   :     0.096140
      dxy     :     0.098009
      f0      :     0.001512  f :     0.016098
      f+1     :     0.000527
      f-1     :     0.003753
      f+2     :     0.003350
      f-2     :     0.002996
      f+3     :     0.001983
      f-3     :     0.001977
  9 N s       :     3.108100  s :     3.108100
      pz      :     1.100633  p :     3.334734
      px      :     1.215857
      py      :     1.018244
      dz2     :     0.108198  d :     0.494471
      dxz     :     0.122681
      dyz     :     0.069537
      dx2y2   :     0.093916
      dxy     :     0.100139
      f0      :     0.001513  f :     0.016096
      f+1     :     0.004012
      f-1     :     0.000268
      f+2     :     0.003657
      f-2     :     0.002691
      f+3     :     0.001982
      f-3     :     0.001973
 10 C s       :     2.729327  s :     2.729327
      pz      :     0.858291  p :     2.599973
      px      :     0.965629
      py      :     0.776053
      dz2     :     0.152225  d :     0.721498
      dxz     :     0.193447
      dyz     :     0.068490
      dx2y2   :     0.146756
      dxy     :     0.160580
      f0      :     0.005633  f :     0.063709
      f+1     :     0.016629
      f-1     :     0.001026
      f+2     :     0.012934
      f-2     :     0.010925
      f+3     :     0.008126
      f-3     :     0.008435
 11 C s       :     2.729329  s :     2.729329
      pz      :     0.858197  p :     2.600050
      px      :     0.789330
      py      :     0.952524
      dz2     :     0.152141  d :     0.721465
      dxz     :     0.077911
      dyz     :     0.183954
      dx2y2   :     0.144491
      dxy     :     0.162968
      f0      :     0.005629  f :     0.063707
      f+1     :     0.002188
      f-1     :     0.015462
      f+2     :     0.012269
      f-2     :     0.011583
      f+3     :     0.008134
      f-3     :     0.008443
 12 C s       :     2.729339  s :     2.729339
      pz      :     0.858276  p :     2.600022
      px      :     0.857755
      py      :     0.883991
      dz2     :     0.152151  d :     0.721443
      dxz     :     0.121463
      dyz     :     0.140430
      dx2y2   :     0.169890
      dxy     :     0.137510
      f0      :     0.005630  f :     0.063706
      f+1     :     0.007667
      f-1     :     0.009984
      f+2     :     0.010578
      f-2     :     0.013276
      f+3     :     0.008133
      f-3     :     0.008439
 13 C s       :     2.645874  s :     2.645874
      pz      :     0.918014  p :     2.744863
      px      :     0.915936
      py      :     0.910913
      dz2     :     0.110139  d :     0.429440
      dxz     :     0.058481
      dyz     :     0.073670
      dx2y2   :     0.117716
      dxy     :     0.069434
      f0      :     0.004149  f :     0.030262
      f+1     :     0.004888
      f-1     :     0.002749
      f+2     :     0.004246
      f-2     :     0.005698
      f+3     :     0.003635
      f-3     :     0.004898
 14 H s       :     0.692052  s :     0.692052
      pz      :     0.072890  p :     0.276000
      px      :     0.127297
      py      :     0.075813
      dz2     :     0.002714  d :     0.029700
      dxz     :     0.008965
      dyz     :     0.000692
      dx2y2   :     0.008417
      dxy     :     0.008912
 15 H s       :     0.694808  s :     0.694808
      pz      :     0.126436  p :     0.276658
      px      :     0.077623
      py      :     0.072600
      dz2     :     0.010246  d :     0.029680
      dxz     :     0.008828
      dyz     :     0.008881
      dx2y2   :     0.000961
      dxy     :     0.000764
 16 H s       :     0.690980  s :     0.690980
      pz      :     0.080484  p :     0.275798
      px      :     0.072780
      py      :     0.122534
      dz2     :     0.004588  d :     0.029710
      dxz     :     0.001257
      dyz     :     0.008567
      dx2y2   :     0.007013
      dxy     :     0.008285
 17 C s       :     2.645894  s :     2.645894
      pz      :     0.918052  p :     2.744914
      px      :     0.930758
      py      :     0.896104
      dz2     :     0.110187  d :     0.429385
      dxz     :     0.045128
      dyz     :     0.086897
      dx2y2   :     0.067500
      dxy     :     0.119674
      f0      :     0.004148  f :     0.030251
      f+1     :     0.002431
      f-1     :     0.005196
      f+2     :     0.005809
      f-2     :     0.004137
      f+3     :     0.003638
      f-3     :     0.004891
 18 H s       :     0.692043  s :     0.692043
      pz      :     0.072906  p :     0.276016
      px      :     0.103575
      py      :     0.099535
      dz2     :     0.002712  d :     0.029713
      dxz     :     0.004882
      dyz     :     0.004787
      dx2y2   :     0.009377
      dxy     :     0.007955
 19 H s       :     0.694796  s :     0.694796
      pz      :     0.126458  p :     0.276666
      px      :     0.076960
      py      :     0.073248
      dz2     :     0.010249  d :     0.029682
      dxz     :     0.009082
      dyz     :     0.008632
      dx2y2   :     0.000607
      dxy     :     0.001112
 20 H s       :     0.690984  s :     0.690984
      pz      :     0.080472  p :     0.275805
      px      :     0.115332
      py      :     0.080001
      dz2     :     0.004582  d :     0.029709
      dxz     :     0.006971
      dyz     :     0.002854
      dx2y2   :     0.007684
      dxy     :     0.007618
 21 C s       :     2.645884  s :     2.645884
      pz      :     0.917988  p :     2.744870
      px      :     0.893590
      py      :     0.933293
      dz2     :     0.110110  d :     0.429374
      dxz     :     0.094559
      dyz     :     0.037613
      dx2y2   :     0.095534
      dxy     :     0.091558
      f0      :     0.004144  f :     0.030251
      f+1     :     0.004133
      f-1     :     0.003506
      f+2     :     0.004861
      f-2     :     0.005078
      f+3     :     0.003634
      f-3     :     0.004895
 22 H s       :     0.692043  s :     0.692043
      pz      :     0.072883  p :     0.275998
      px      :     0.073752
      py      :     0.129364
      dz2     :     0.002713  d :     0.029700
      dxz     :     0.000640
      dyz     :     0.009018
      dx2y2   :     0.008208
      dxy     :     0.009121
 23 H s       :     0.694825  s :     0.694825
      pz      :     0.126426  p :     0.276660
      px      :     0.070738
      py      :     0.079496
      dz2     :     0.010243  d :     0.029686
      dxz     :     0.008657
      dyz     :     0.009056
      dx2y2   :     0.001019
      dxy     :     0.000710
 24 H s       :     0.690981  s :     0.690981
      pz      :     0.080493  p :     0.275810
      px      :     0.104908
      py      :     0.090408
      dz2     :     0.004590  d :     0.029723
      dxz     :     0.006518
      dyz     :     0.003309
      dx2y2   :     0.008256
      dxy     :     0.007049


                      *****************************
                      * MAYER POPULATION ANALYSIS *
                      *****************************

  NA   - Mulliken gross atomic population
  ZA   - Total nuclear charge
  QA   - Mulliken gross atomic charge
  VA   - Mayer's total valence
  BVA  - Mayer's bonded valence
  FA   - Mayer's free valence

  ATOM       NA         ZA         QA         VA         BVA        FA
  0 Mo    13.9161    14.0000     0.0839     5.5125     5.5125     0.0000
  1 C      5.9467     6.0000     0.0533     2.2911     2.2911    -0.0000
  2 C      5.9458     6.0000     0.0542     2.2904     2.2904    -0.0000
  3 C      5.9458     6.0000     0.0542     2.2923     2.2923    -0.0000
  4 O      8.4851     8.0000    -0.4851     1.6888     1.6888    -0.0000
  5 O      8.4865     8.0000    -0.4865     1.6917     1.6917     0.0000
  6 O      8.4860     8.0000    -0.4860     1.6904     1.6904     0.0000
  7 N      7.6907     7.0000    -0.6907     3.0527     3.0527    -0.0000
  8 N      7.6910     7.0000    -0.6910     3.0619     3.0619    -0.0000
  9 N      7.6943     7.0000    -0.6943     3.0342     3.0342    -0.0000
 10 C      4.8089     6.0000     1.1911     1.4459     1.4459     0.0000
 11 C      4.8033     6.0000     1.1967     1.4361     1.4361     0.0000
 12 C      4.8080     6.0000     1.1920     1.4353     1.4353     0.0000
 13 C      7.3927     6.0000    -1.3927     2.6430     2.6430    -0.0000
 14 H      0.5722     1.0000     0.4278     0.9418     0.9418    -0.0000
 15 H      0.5661     1.0000     0.4339     0.9274     0.9274    -0.0000
 16 H      0.5655     1.0000     0.4345     0.9420     0.9420    -0.0000
 17 C      7.3993     6.0000    -1.3993     2.6366     2.6366    -0.0000
 18 H      0.5704     1.0000     0.4296     0.9394     0.9394    -0.0000
 19 H      0.5654     1.0000     0.4346     0.9244     0.9244    -0.0000
 20 H      0.5671     1.0000     0.4329     0.9441     0.9441    -0.0000
 21 C      7.3852     6.0000    -1.3852     2.6553     2.6553    -0.0000
 22 H      0.5728     1.0000     0.4272     0.9415     0.9415    -0.0000
 23 H      0.5680     1.0000     0.4320     0.9280     0.9280    -0.0000
 24 H      0.5671     1.0000     0.4329     0.9431     0.9431    -0.0000

  Mayer bond orders larger than 0.100000
B(  0-Mo,  1-C ) :   0.8816 B(  0-Mo,  2-C ) :   0.8806 B(  0-Mo,  3-C ) :   0.8770 
B(  0-Mo,  7-N ) :   0.9592 B(  0-Mo,  8-N ) :   0.9582 B(  0-Mo,  9-N ) :   0.9637 
B(  1-C ,  5-O ) :   1.5164 B(  2-C ,  6-O ) :   1.5152 B(  3-C ,  4-O ) :   1.5137 
B(  7-N , 12-C ) :   2.0413 B(  8-N , 11-C ) :   2.0504 B(  9-N , 10-C ) :   2.0341 
B( 10-C , 22-H ) :  -0.1219 B( 10-C , 23-H ) :  -0.1167 B( 10-C , 24-H ) :  -0.1257 
B( 11-C , 17-C ) :  -0.1177 B( 11-C , 18-H ) :  -0.1227 B( 11-C , 19-H ) :  -0.1174 
B( 11-C , 20-H ) :  -0.1294 B( 12-C , 13-C ) :  -0.1103 B( 12-C , 14-H ) :  -0.1237 
B( 12-C , 15-H ) :  -0.1178 B( 12-C , 16-H ) :  -0.1271 B( 13-C , 14-H ) :   0.9331 
B( 13-C , 15-H ) :   0.9102 B( 13-C , 16-H ) :   0.9326 B( 17-C , 18-H ) :   0.9302 
B( 17-C , 19-H ) :   0.9088 B( 17-C , 20-H ) :   0.9376 B( 21-C , 22-H ) :   0.9330 
B( 21-C , 23-H ) :   0.9105 B( 21-C , 24-H ) :   0.9334 

-------
TIMINGS
-------

Total SCF time: 0 days 0 hours 3 min 52 sec 

Total time                  ....     232.798 sec
Sum of individual times     ....     231.942 sec  ( 99.6%)

Fock matrix formation       ....     225.182 sec  ( 96.7%)
  XC integration            ....       7.334 sec  (  3.3% of F)
    Basis function eval.    ....       0.740 sec  ( 10.1% of XC)
    Density eval.           ....       2.323 sec  ( 31.7% of XC)
    XC-Functional eval.     ....       0.372 sec  (  5.1% of XC)
    XC-Potential eval.      ....       3.133 sec  ( 42.7% of XC)
Diagonalization             ....       2.234 sec  (  1.0%)
Density matrix formation    ....       0.082 sec  (  0.0%)
Population analysis         ....       0.114 sec  (  0.0%)
Initial guess               ....       2.426 sec  (  1.0%)
Orbital Transformation      ....       0.000 sec  (  0.0%)
Orbital Orthonormalization  ....       0.000 sec  (  0.0%)
DIIS solution               ....       1.248 sec  (  0.5%)
Grid generation             ....       0.655 sec  (  0.3%)


-------------------------------------------------------------------------------
                          DFT DISPERSION CORRECTION                            
                                                                               
                              DFTD3 V3.1  Rev 1                                
                              USING zero damping                               
-------------------------------------------------------------------------------
The M06 functional is recognized
Active option DFTDOPT                   ...         3   

molecular C6(AA) [au] = 11344.973916 


            DFT-D V3
 parameters
 s6 scaling factor         :     1.0000 
 rs6 scaling factor        :     1.3250 
 s8 scaling factor         :     0.0000 
 rs8 scaling factor        :     1.0000 
 Damping factor alpha6     :    14.0000 
 Damping factor alpha8     :    16.0000 
 ad hoc parameters k1-k3   :    16.0000     1.3333    -4.0000 

 Edisp/kcal,au: -2.299089647849  -0.003663832177 
 E6   /kcal   :  -2.299089648 
 E8   /kcal   :  -0.000000000 
 % E8         :   0.000000000 

-------------------------   ----------------
Dispersion correction           -0.003663832
-------------------------   ----------------


-------------------------   --------------------
FINAL SINGLE POINT ENERGY      -806.431394175233
-------------------------   --------------------


                            ***************************************
                            *     ORCA property calculations      *
                            ***************************************

                                    ---------------------
                                    Active property flags
                                    ---------------------
   (+) Dipole Moment


------------------------------------------------------------------------------
                       ORCA ELECTRIC PROPERTIES CALCULATION
------------------------------------------------------------------------------

Dipole Moment Calculation                       ... on
Quadrupole Moment Calculation                   ... off
Polarizability Calculation                      ... off
GBWName                                         ... MOR36_pr37.gbw
Electron density file                           ... MOR36_pr37.scfp
The origin for moment calculation is the CENTER OF MASS  = ( 0.000037, -0.000023 -0.170139)

-------------
DIPOLE MOMENT
-------------
                                X             Y             Z
Electronic contribution:      0.00860      -0.00601     -40.52609
Nuclear contribution   :     -0.01011       0.00649      45.69854
                        -----------------------------------------
Total Dipole Moment    :     -0.00151       0.00048       5.17246
                        -----------------------------------------
Magnitude (a.u.)       :      5.17246
Magnitude (Debye)      :     13.14734



--------------------
Rotational spectrum 
--------------------
 
Rotational constants in cm-1:     0.011429     0.011429     0.011227 
Rotational constants in MHz :   342.640201   342.631727   336.586559 

 Dipole components along the rotational axes: 
x,y,z [a.u.] :     0.002259     0.000948     5.172456 
x,y,z [Debye]:     0.005742     0.002409    13.147339 

 

Timings for individual modules:

Sum of individual times         ...      236.071 sec (=   3.935 min)
GTO integral calculation        ...        2.892 sec (=   0.048 min)   1.2 %
SCF iterations                  ...      233.180 sec (=   3.886 min)  98.8 %
                             ****ORCA TERMINATED NORMALLY****
TOTAL RUN TIME: 0 days 0 hours 3 minutes 56 seconds 724 msec
