
                                 *****************
                                 * O   R   C   A *
                                 *****************

           --- An Ab Initio, DFT and Semiempirical electronic structure package ---

                  #######################################################
                  #                        -***-                        #
                  #          Department of theory and spectroscopy      #
                  #               Directorship: Frank Neese             #
                  #        Max Planck Institute fuer Kohlenforschung    #
                  #                Kaiser Wilhelm Platz 1               #
                  #                 D-45470 Muelheim/Ruhr               #
                  #                      Germany                        #
                  #                                                     #
                  #                  All rights reserved                #
                  #                        -***-                        #
                  #######################################################


                         Program Version 4.2.0 -  RELEASE  -


 With contributions from (in alphabetic order):
   Daniel Aravena         : Magnetic Suceptibility
   Michael Atanasov       : Ab Initio Ligand Field Theory (pilot matlab implementation)
   Alexander A. Auer      : GIAO ZORA, VPT2
   Ute Becker             : Parallelization
   Giovanni Bistoni       : ED, misc. LED, open-shell LED, HFLED
   Martin Brehm           : Molecular dynamics
   Dmytro Bykov           : SCF Hessian
   Vijay G. Chilkuri      : MRCI spin determinant printing, contributions to CSF-ICE
   Dipayan Datta          : RHF DLPNO-CCSD density
   Achintya Kumar Dutta   : EOM-CC, STEOM-CC
   Dmitry Ganyushin       : Spin-Orbit,Spin-Spin,Magnetic field MRCI
   Miquel Garcia          : C-PCM Hessian, Gaussian charge scheme
   Yang Guo               : DLPNO-NEVPT2, CIM, IAO-localization
   Andreas Hansen         : Spin unrestricted coupled pair/coupled cluster methods
   Benjamin Helmich-Paris : CASSCF linear response (MC-RPA)
   Lee Huntington         : MR-EOM, pCC
   Robert Izsak           : Overlap fitted RIJCOSX, COSX-SCS-MP3, EOM
   Christian Kollmar      : KDIIS, OOCD, Brueckner-CCSD(T), CCSD density
   Simone Kossmann        : Meta GGA functionals, TD-DFT gradient, OOMP2, MP2 Hessian
   Martin Krupicka        : AUTO-CI
   Lucas Lang             : DCDCAS
   Dagmar Lenk            : GEPOL surface, SMD
   Dimitrios Liakos       : Extrapolation schemes; Compound Job, initial MDCI parallelization
   Dimitrios Manganas     : Further ROCIS development; embedding schemes
   Dimitrios Pantazis     : SARC Basis sets
   Taras Petrenko         : DFT Hessian,TD-DFT gradient, ASA, ECA, R-Raman, ABS, FL, XAS/XES, NRVS
   Peter Pinski           : DLPNO-MP2, DLPNO-MP2 Gradient
   Christoph Reimann      : Effective Core Potentials
   Marius Retegan         : Local ZFS, SOC
   Christoph Riplinger    : Optimizer, TS searches, QM/MM, DLPNO-CCSD(T), (RO)-DLPNO pert. Triples
   Tobias Risthaus        : Range-separated hybrids, TD-DFT gradient, RPA, STAB
   Michael Roemelt        : Original ROCIS implementation
   Masaaki Saitow         : Open-shell DLPNO-CCSD energy and density
   Barbara Sandhoefer     : DKH picture change effects
   Avijit Sen             : IP-ROCIS
   Kantharuban Sivalingam : CASSCF convergence, NEVPT2, FIC-MRCI
   Bernardo de Souza      : ESD, SOC TD-DFT
   Georgi Stoychev        : AutoAux, RI-MP2 NMR
   Willem Van den Heuvel  : Paramagnetic NMR
   Boris Wezisla          : Elementary symmetry handling
   Frank Wennmohs         : Technical directorship


 We gratefully acknowledge several colleagues who have allowed us to
 interface, adapt or use parts of their codes:
   Stefan Grimme, W. Hujo, H. Kruse,             : VdW corrections, initial TS optimization,
                  C. Bannwarth                     DFT functionals, gCP, sTDA/sTD-DF
   Ed Valeev, F. Pavosevic, A. Kumar             : LibInt (2-el integral package), F12 methods
   Garnet Chan, S. Sharma, J. Yang, R. Olivares  : DMRG
   Ulf Ekstrom                                   : XCFun DFT Library
   Mihaly Kallay                                 : mrcc  (arbitrary order and MRCC methods)
   Andreas Klamt, Michael Diedenhofen            : otool_cosmo (COSMO solvation model)
   Jiri Pittner, Ondrej Demel                    : Mk-CCSD
   Frank Weinhold                                : gennbo (NPA and NBO analysis)
   Christopher J. Cramer and Donald G. Truhlar   : smd solvation model
   Lars Goerigk                                  : TD-DFT with DH, B97 family of functionals
   V. Asgeirsson, H. Jonsson                     : NEB implementation
   FAccTs GmbH                                   : IRC, NEB, NEB-TS, Multilevel, MM, QM/MM, CI optimization
   S Lehtola, MJT Oliveira, MAL Marques          : LibXC Library


 Your calculation uses the libint2 library for the computation of 2-el integrals
 For citations please refer to: http://libint.valeyev.net

 Your ORCA version has been built with support for libXC version: 4.2.3
 For citations please refer to: https://tddft.org/programs/libxc/

 This ORCA versions uses:
   CBLAS   interface :  Fast vector & matrix operations
   LAPACKE interface :  Fast linear algebra routines
   SCALAPACK package :  Parallel linear algebra routines


Your calculation utilizes the atom-pairwise dispersion correction
with the zero-damping scheme (D30)
Cite in your paper:
S.Grimme, J.Antony, S.Ehrlich and H.Krieg, J.Chem.Phys., 132, (2010), 154104 
   

XCFun DFT library Copyright 2009-2010 Ulf Ekstrom and contributors.
See http://admol.org/xcfun for more information. This is free soft-
ware; see the source code for copying conditions. There is ABSOLUTELY
NO WARRANTY; not even for MERCHANTABILITY or FITNESS FOR A PARTICULAR
PURPOSE. For details see the documentation. Scientific users of this 
library should cite U. Ekstrom, L. Visscher, R. Bast, A. J. Thorvald-
sen and K. Ruud; J.Chem.Theor.Comp. 2010, DOI: 10.1021/ct100117s
XCFun Version 0.99 
----- Orbital basis set information -----
Your calculation utilizes the basis: def2-TZVPPD
   F. Weigend and R. Ahlrichs, Phys. Chem. Chem. Phys. 7, 3297 (2005).
   D. Rappoport and F. Furche, J. Chem. Phys. 133 134105 (2010).

----- AuxJK basis set information -----
Your calculation utilizes the auxiliary basis: def2/JK
   H-Ba, Hf-Rn: F. Weigend, J. Comput. Chem. 29, 167 (2008).

cite the ECPs for Re [Def2-ECP] as follows:
Ce-Yb(ecp-28): M. Dolg, H. Stoll, H.Preuss, J. Chem. Phys., 1989, 90, 1730-1734.
Y-Cd(ecp-28), Hf-Hg(ecp-46): D. Andrae,U. Haeussermann, M. Dolg, H. Stoll, H. Preuss, Theor. Chim. Acta, 1990, 77, 123-141.
In-Sb(ecp-28), Tl-Bi(ecp-46): B. Metz, H. Stoll, M. Dolg, J. Chem. Phys., 2000, 113, 2563-2569.
Te-Xe(ecp-28), Po-Rn(ecp-46): K. A. Peterson, D. Figgen, E. Goll, H. Stoll, M. Dolg, J. Chem. Phys., 2003, 119, 11113-11123.
Rb(ecp-28), Cs(ecp-46): T. Leininger, A. Nicklass, W. Kuechle, H. Stoll, M. Dolg, A. Bergner, Chem. Phys. Lett., 1996, 255, 274-280.
Sr(ecp-28), Ba(ecp-46): M. Kaupp, P. V. Schleyer, H. Stoll and H. Preuss, J. Chem. Phys., 1991, 94, 1360-1366.
La(ecp-46): M. Dolg, H. Stoll, A. Savin, H. Preuss, Theor. Chim. Acta, 1989, 75, 173-194.
Lu(ecp-28): X. Cao, M. Dolg, J. Chem. Phys., 2001, 115, 7348-7355.

ECP parameters for Re [Def2-ECP] have been obtained from:
TURBOMOLE (7.0.2)

================================================================================
                                        WARNINGS
                       Please study these warnings very carefully!
================================================================================


WARNING: Minnesota functionals are quite sensitive to the integration grid.
         see SE Wheeler, KN Houk, JCTC 2010, 6, 395,
             N Mardirossian, M Head-Gordon, JCTC 2016, 12, 4303.
         Grid6 seems to be a minimum grid for reliable results with these functionals!
  ===> : Please increase the integration grid!


INFO   : the flag for use of LIBINT has been found!

================================================================================
                                       INPUT FILE
================================================================================
NAME = TMB20_I1.in
|  1> #
|  2> # TMB20_I1 M06-D3/Def2-TZVPPD
|  3> #
|  4> ! m06 d3zero def2-tzvppd def2/jk grid4 nofinalgrid
|  5> 
|  6> *xyz 0 1
|  7> Re       0.721260    0.301703   -0.012347 
|  8> C        1.851141    0.452958   -1.678261 
|  9> C        1.971728    0.634914    1.425372 
| 10> C        0.763580    2.214165   -0.101283 
| 11> Br       1.710512   -2.064741    0.019177 
| 12> O        0.816608    3.358474   -0.166463 
| 13> O        2.493283    0.513036   -2.612271 
| 14> O        2.652573    0.808904    2.320449 
| 15> C       -1.780395   -0.133590    1.665167 
| 16> C       -0.470905   -0.371203    1.638632 
| 17> C       -2.365069    0.652857    0.526821 
| 18> C       -3.493010   -0.159458   -0.075600 
| 19> O       -3.300943   -1.161632   -0.733339 
| 20> O       -4.693453    0.297769    0.229376 
| 21> C       -1.280010    0.876972   -0.512116 
| 22> O       -0.953000   -0.240509   -1.297416 
| 23> H       -1.566319   -0.977006   -1.049921 
| 24> C       -5.797043   -0.483161   -0.244906 
| 25> H       -6.688437    0.024549    0.111717 
| 26> H       -5.787691   -0.527184   -1.333247 
| 27> H       -5.742358   -1.494851    0.155119 
| 28> H       -0.050439   -0.962173    2.449658 
| 29> H       -2.758296    1.619346    0.851818 
| 30> H       -2.454065   -0.501260    2.435709 
| 31> H       -1.435420    1.741704   -1.151672 
| 32> *
| 33> 
| 34> %maxcore 5000
| 35> 
| 36> %pal
| 37> nprocs = 24
| 38> end
| 39> 
| 40> 
| 41>                          ****END OF INPUT****
================================================================================

                       ****************************
                       * Single Point Calculation *
                       ****************************

---------------------------------
CARTESIAN COORDINATES (ANGSTROEM)
---------------------------------
  Re     0.721260    0.301703   -0.012347
  C      1.851141    0.452958   -1.678261
  C      1.971728    0.634914    1.425372
  C      0.763580    2.214165   -0.101283
  Br     1.710512   -2.064741    0.019177
  O      0.816608    3.358474   -0.166463
  O      2.493283    0.513036   -2.612271
  O      2.652573    0.808904    2.320449
  C     -1.780395   -0.133590    1.665167
  C     -0.470905   -0.371203    1.638632
  C     -2.365069    0.652857    0.526821
  C     -3.493010   -0.159458   -0.075600
  O     -3.300943   -1.161632   -0.733339
  O     -4.693453    0.297769    0.229376
  C     -1.280010    0.876972   -0.512116
  O     -0.953000   -0.240509   -1.297416
  H     -1.566319   -0.977006   -1.049921
  C     -5.797043   -0.483161   -0.244906
  H     -6.688437    0.024549    0.111717
  H     -5.787691   -0.527184   -1.333247
  H     -5.742358   -1.494851    0.155119
  H     -0.050439   -0.962173    2.449658
  H     -2.758296    1.619346    0.851818
  H     -2.454065   -0.501260    2.435709
  H     -1.435420    1.741704   -1.151672

----------------------------
CARTESIAN COORDINATES (A.U.)
----------------------------
  NO LB      ZA    FRAG     MASS         X           Y           Z
   0 Re   15.0000*   0   186.207    1.362984    0.570136   -0.023332
   1 C     6.0000    0    12.011    3.498150    0.855967   -3.171454
   2 C     6.0000    0    12.011    3.726026    1.199814    2.693563
   3 C     6.0000    0    12.011    1.442957    4.184165   -0.191397
   4 Br   35.0000    0    79.900    3.232399   -3.901795    0.036239
   5 O     8.0000    0    15.999    1.543165    6.346596   -0.314569
   6 O     8.0000    0    15.999    4.711622    0.969498   -4.936477
   7 O     8.0000    0    15.999    5.012637    1.528607    4.385013
   8 C     6.0000    0    12.011   -3.364459   -0.252449    3.146710
   9 C     6.0000    0    12.011   -0.889881   -0.701472    3.096566
  10 C     6.0000    0    12.011   -4.469333    1.233721    0.995547
  11 C     6.0000    0    12.011   -6.600832   -0.301332   -0.142863
  12 O     8.0000    0    15.999   -6.237878   -2.195166   -1.385810
  13 O     8.0000    0    15.999   -8.869341    0.562702    0.433458
  14 C     6.0000    0    12.011   -2.418868    1.657237   -0.967759
  15 O     8.0000    0    15.999   -1.800909   -0.454496   -2.451761
  16 H     1.0000    0     1.008   -2.959914   -1.846274   -1.984063
  17 C     6.0000    0    12.011  -10.954824   -0.913042   -0.462805
  18 H     1.0000    0     1.008  -12.639314    0.046391    0.211115
  19 H     1.0000    0     1.008  -10.937151   -0.996233   -2.519472
  20 H     1.0000    0     1.008  -10.851484   -2.824859    0.293132
  21 H     1.0000    0     1.008   -0.095316   -1.818243    4.629183
  22 H     1.0000    0     1.008   -5.212424    3.060120    1.609703
  23 H     1.0000    0     1.008   -4.637511   -0.947244    4.602823
  24 H     1.0000    0     1.008   -2.712551    3.291344   -2.176345
* core charge reduced due to ECP

--------------------------------
INTERNAL COORDINATES (ANGSTROEM)
--------------------------------
 Re     0   0   0     0.000000000000     0.00000000     0.00000000
 C      1   0   0     2.018608085930     0.00000000     0.00000000
 C      1   2   0     1.934356666312   103.80654022     0.00000000
 C      1   2   3     1.914996474133    82.78873306    79.12564351
 Br     1   2   3     2.565086838143    82.14904570   277.89406674
 O      4   1   2     1.147389859056   178.49391541   327.51252020
 O      2   1   3     1.135046428279   178.68609495    85.33200211
 O      3   1   2     1.137974195689   176.12648842   189.59702686
 C      1   2   3     3.043322354774   157.77851098   179.94088692
 C      9   1   2     1.331137898226    37.42944185   142.11684556
 C      9   1   2     1.502056651995    80.05745056   320.38587205
 C     11   9   1     1.514931556192   108.08544047   123.96679349
 O     12  11   9     1.214027615372   122.70308766   288.28179310
 O     12  11   9     1.320276594640   113.54196190   105.72491438
 C     11   9   1     1.518871507625   108.51615153     4.92357813
 O     15  11   9     1.404419956943   115.55716524    75.06443266
 H     16  15  11     0.989869588277   107.93539870     3.93651329
 C     14  12  11     1.432726759897   115.79356577   183.80260110
 H     18  14  12     1.086062922424   105.58700129   178.86376631
 H     18  14  12     1.089271140127   110.25308027   298.51319643
 H     18  14  12     1.089278250012   110.24300066    59.16322117
 H     10   9   1     1.088025905359   117.53306695   183.42949817
 H     11   9   1     1.092863903082   112.19249287   244.09671328
 H      9   1   2     1.087541940140   161.45769375   131.12866136
 H     15  11   9     1.086713199082   114.69643541   204.22702384

---------------------------
INTERNAL COORDINATES (A.U.)
---------------------------
 Re     0   0   0     0.000000000000     0.00000000     0.00000000
 C      1   0   0     3.814616454127     0.00000000     0.00000000
 C      1   2   0     3.655404344655   103.80654022     0.00000000
 C      1   2   3     3.618818883535    82.78873306    79.12564351
 Br     1   2   3     4.847311633817    82.14904570   277.89406674
 O      4   1   2     2.168252602455   178.49391541   327.51252020
 O      2   1   3     2.144926898732   178.68609495    85.33200211
 O      3   1   2     2.150459577321   176.12648842   189.59702686
 C      1   2   3     5.751045787764   157.77851098   179.94088692
 C      9   1   2     2.515486074131    37.42944185   142.11684556
 C      9   1   2     2.838475709904    80.05745056   320.38587205
 C     11   9   1     2.862805752838   108.08544047   123.96679349
 O     12  11   9     2.294179712071   122.70308766   288.28179310
 O     12  11   9     2.494961184896   113.54196190   105.72491438
 C     11   9   1     2.870251182027   108.51615153     4.92357813
 O     15  11   9     2.653969095637   115.55716524    75.06443266
 H     16  15  11     1.870582430140   107.93539870     3.93651329
 C     14  12  11     2.707461200945   115.79356577   183.80260110
 H     18  14  12     2.052361487588   105.58700129   178.86376631
 H     18  14  12     2.058424140425   110.25308027   298.51319643
 H     18  14  12     2.058437576160   110.24300066    59.16322117
 H     10   9   1     2.056070987740   117.53306695   183.42949817
 H     11   9   1     2.065213478473   112.19249287   244.09671328
 H      9   1   2     2.055156426018   161.45769375   131.12866136
 H     15  11   9     2.053590332383   114.69643541   204.22702384

---------------------
BASIS SET INFORMATION
---------------------
There are 5 groups of distinct atoms

 Group   1 Type Re  : 8s8p6d2f1g contracted to 6s5p3d2f1g pattern {311111/41111/411/11/1}
 Group   2 Type C   : 12s6p3d1f contracted to 6s3p3d1f pattern {621111/411/111/1}
 Group   3 Type Br  : 18s14p9d1f contracted to 7s6p5d1f pattern {8421111/641111/51111/1}
 Group   4 Type O   : 12s7p3d1f contracted to 6s4p3d1f pattern {621111/4111/111/1}
 Group   5 Type H   : 5s3p1d contracted to 3s3p1d pattern {311/111/1}

Atom   0Re   basis set group =>   1
Atom   1C    basis set group =>   2
Atom   2C    basis set group =>   2
Atom   3C    basis set group =>   2
Atom   4Br   basis set group =>   3
Atom   5O    basis set group =>   4
Atom   6O    basis set group =>   4
Atom   7O    basis set group =>   4
Atom   8C    basis set group =>   2
Atom   9C    basis set group =>   2
Atom  10C    basis set group =>   2
Atom  11C    basis set group =>   2
Atom  12O    basis set group =>   4
Atom  13O    basis set group =>   4
Atom  14C    basis set group =>   2
Atom  15O    basis set group =>   4
Atom  16H    basis set group =>   5
Atom  17C    basis set group =>   2
Atom  18H    basis set group =>   5
Atom  19H    basis set group =>   5
Atom  20H    basis set group =>   5
Atom  21H    basis set group =>   5
Atom  22H    basis set group =>   5
Atom  23H    basis set group =>   5
Atom  24H    basis set group =>   5
----------------------------------
AUXILIARY/JK BASIS SET INFORMATION
----------------------------------
There are 5 groups of distinct atoms

 Group   1 Type Re  : 13s12p11d9f5g3h2i contracted to 11s9p9d7f4g3h2i pattern {31111111111/411111111/311111111/3111111/2111/111/11}
 Group   2 Type C   : 14s10p6d2f1g contracted to 10s8p5d1f1g pattern {5111111111/31111111/21111/2/1}
 Group   3 Type Br  : 20s14p13d10f7g3h contracted to 17s13p12d9f6g3h pattern {41111111111111111/2111111111111/211111111111/211111111/211111/111}
 Group   4 Type O   : 14s10p6d2f1g contracted to 10s8p4d2f1g pattern {5111111111/31111111/3111/11/1}
 Group   5 Type H   : 4s2p2d contracted to 2s2p2d pattern {31/11/11}

Atom   0Re   basis set group =>   1
Atom   1C    basis set group =>   2
Atom   2C    basis set group =>   2
Atom   3C    basis set group =>   2
Atom   4Br   basis set group =>   3
Atom   5O    basis set group =>   4
Atom   6O    basis set group =>   4
Atom   7O    basis set group =>   4
Atom   8C    basis set group =>   2
Atom   9C    basis set group =>   2
Atom  10C    basis set group =>   2
Atom  11C    basis set group =>   2
Atom  12O    basis set group =>   4
Atom  13O    basis set group =>   4
Atom  14C    basis set group =>   2
Atom  15O    basis set group =>   4
Atom  16H    basis set group =>   5
Atom  17C    basis set group =>   2
Atom  18H    basis set group =>   5
Atom  19H    basis set group =>   5
Atom  20H    basis set group =>   5
Atom  21H    basis set group =>   5
Atom  22H    basis set group =>   5
Atom  23H    basis set group =>   5
Atom  24H    basis set group =>   5
-------------------------
ECP PARAMETER INFORMATION
-------------------------

 Group 1, Type Re ECP Def2-ECP (replacing 60 core electrons, lmax=3)

Atom   0Re   ECP group =>   1



           ************************************************************
           *        Program running with 24 parallel MPI-processes    *
           *              working on a common directory               *
           ************************************************************
------------------------------------------------------------------------------
                           ORCA GTO INTEGRAL CALCULATION
------------------------------------------------------------------------------

                         BASIS SET STATISTICS AND STARTUP INFO

 # of primitive gaussian shells          ...  475
 # of primitive gaussian functions       ... 1147
 # of contracted shells                  ...  293
 # of contracted basis functions         ...  825
 Highest angular momentum                ...    4
 Maximum contraction depth               ...    8
 Integral package used                   ... LIBINT
 Integral threshhold            Thresh   ...  1.000e-10
 Primitive cut-off              TCut     ...  1.000e-11


------------------------------ INTEGRAL EVALUATION ----------------------------


 * One electron integrals 

   ECP integrals                         ... done
 Pre-screening matrix                    ... done
 Shell pair data                         ... done (   0.010 sec)



           ************************************************************
           *        Program running with 24 parallel MPI-processes    *
           *              working on a common directory               *
           ************************************************************
-------------------------------------------------------------------------------
                                 ORCA SCF
-------------------------------------------------------------------------------

------------
SCF SETTINGS
------------
Hamiltonian:
 Density Functional     Method          .... DFT(GTOs)
 Exchange Functional    Exchange        .... M06
 Correlation Functional Correlation     .... M06
 Gradients option       PostSCFGGA      .... off
 Hybrid DFT is turned on
   Fraction HF Exchange ScalHFX         ....  0.270000
   Scaling of DF-GGA-X  ScalDFX         ....  0.730000
   Scaling of DF-GGA-C  ScalDFC         ....  1.000000
   Scaling of DF-LDA-C  ScalLDAC        ....  1.000000
   Perturbative correction              ....  0.000000
   Density functional embedding theory  .... OFF


General Settings:
 Integral files         IntName         .... TMB20_I1
 Hartree-Fock type      HFTyp           .... RHF
 Total Charge           Charge          ....    0
 Multiplicity           Mult            ....    1
 Number of Electrons    NEL             ....  160
 Basis Dimension        Dim             ....  825
 Nuclear Repulsion      ENuc            ....   1785.3687109308 Eh

Convergence Acceleration:
 DIIS                   CNVDIIS         .... on
   Start iteration      DIISMaxIt       ....    12
   Startup error        DIISStart       ....  0.200000
   # of expansion vecs  DIISMaxEq       ....     5
   Bias factor          DIISBfac        ....   1.050
   Max. coefficient     DIISMaxC        ....  10.000
 Newton-Raphson         CNVNR           .... off
 SOSCF                  CNVSOSCF        .... off
 Level Shifting         CNVShift        .... on
   Level shift para.    LevelShift      ....    0.2500
   Turn off err/grad.   ShiftErr        ....    0.0010
 Zerner damping         CNVZerner       .... off
 Static damping         CNVDamp         .... on
   Fraction old density DampFac         ....    0.7000
   Max. Damping (<1)    DampMax         ....    0.9800
   Min. Damping (>=0)   DampMin         ....    0.0000
   Turn off err/grad.   DampErr         ....    0.1000
 Fernandez-Rico         CNVRico         .... off

SCF Procedure:
 Maximum # iterations   MaxIter         ....   125
 SCF integral mode      SCFMode         .... Direct
   Integral package                     .... LIBINT
 Reset frequency        DirectResetFreq ....    20
 Integral Threshold     Thresh          ....  1.000e-10 Eh
 Primitive CutOff       TCut            ....  1.000e-11 Eh

Convergence Tolerance:
 Convergence Check Mode ConvCheckMode   .... Total+1el-Energy
 Convergence forced     ConvForced      .... 0
 Energy Change          TolE            ....  1.000e-06 Eh
 1-El. energy change                    ....  1.000e-03 Eh
 DIIS Error             TolErr          ....  1.000e-06


Diagonalization of the overlap matrix:
Smallest eigenvalue                        ... 7.418e-07
Time for diagonalization                   ...    0.114 sec
Threshold for overlap eigenvalues          ... 1.000e-08
Number of eigenvalues below threshold      ... 0
Time for construction of square roots      ...    0.087 sec
Total time needed                          ...    0.202 sec

-------------------
DFT GRID GENERATION
-------------------

General Integration Accuracy     IntAcc      ...  4.670
Radial Grid Type                 RadialGrid  ... Gauss-Chebyshev
Angular Grid (max. acc.)         AngularGrid ... Lebedev-302
Angular grid pruning method      GridPruning ... 3 (G Style)
Weight generation scheme         WeightScheme... Becke
Basis function cutoff            BFCut       ...    1.0000e-10
Integration weight cutoff        WCut        ...    1.0000e-14
Grids for H and He will be reduced by one unit

# of grid points (after initial pruning)     ... 141600 (   0.0 sec)
# of grid points (after weights+screening)   ... 127291 (   0.1 sec)
nearest neighbour list constructed           ...    0.0 sec
Grid point re-assignment to atoms done       ...    0.0 sec
Grid point division into batches done        ...    0.5 sec
Reduced shell lists constructed in    0.6 sec

Total number of grid points                  ...   127291
Total number of batches                      ...     2003
Average number of points per batch           ...       63
Average number of grid points per atom       ...     5092
Average number of shells per batch           ...   189.67 (64.73%)
Average number of basis functions per batch  ...   553.22 (67.06%)
Average number of large shells per batch     ...   147.91 (77.98%)
Average number of large basis fcns per batch ...   431.65 (78.02%)
Maximum spatial batch extension              ...   1.91,  1.88,  1.64 au
Average spatial batch extension              ...   0.04,  0.04,  0.04 au

Time for grid setup =    0.751 sec

------------------------------
INITIAL GUESS: MODEL POTENTIAL
------------------------------
Loading Hartree-Fock densities                     ... done
  calling /sw/apps/orca/orca_4_2_0_linux_x86-64_openmpi314/orca TMB20_I1_atom75.inp > TMB20_I1_atom75.out in order to generate an atomic fitting density for atom 0 (Re with ECP) on-the-fly... 
    atom 0 (Re), assumed electronic state with S=6: 1s2 2s2 2p6 3s2 3p6 4s2 3d10 4p6 5s2 4d10 5p6 6s2 4f14 5d5           ... done
Calculating cut-offs                               ... done
Setting up the integral package                    ... done
Initializing the effective Hamiltonian             ... done
Starting the Coulomb interaction                   ... done (   0.1 sec)
Reading the grid                                   ... done
Mapping shells                                     ... done
Starting the XC term evaluation                    ... done (   0.4 sec)
  promolecular density results
     # of electrons  =    219.998605157
     EX              =   -519.456298362
     EC              =     -9.976948294
     EX+EC           =   -529.433246656
Transforming the Hamiltonian                       ... done (   0.1 sec)
Diagonalizing the Hamiltonian                      ... done (   0.1 sec)
Back transforming the eigenvectors                 ... done (   0.0 sec)
Now organizing SCF variables                       ... done
                      ------------------
                      INITIAL GUESS DONE (   2.8 sec)
                      ------------------
--------------
SCF ITERATIONS
--------------
ITER       Energy         Delta-E        Max-DP      RMS-DP      [F,P]     Damp
               ***  Starting incremental Fock matrix formation  ***
  0  -3450.9310882624   0.000000000000 2.18582490  0.00504301  0.3717985 0.7000
  1  -3451.1651752416  -0.234086979206 1.61408586  0.00382835  0.2725397 0.7000
                               ***Turning on DIIS***
  2  -3451.2372186783  -0.072043436647 0.87444317  0.00232297  0.1948328 0.7000
  3  -3451.2943337581  -0.057115079851 0.40954606  0.00143070  0.1356630 0.7000
  4  -3451.3343403606  -0.040006602438 0.95453607  0.00341985  0.0946779 0.0000
  5  -3451.4249922362  -0.090651875660 0.05987179  0.00032742  0.0063704 0.0000
  6  -3451.4252702328  -0.000277996586 0.03404187  0.00012368  0.0048056 0.0000
  7  -3451.4254373066  -0.000167073812 0.01974289  0.00007792  0.0005590 0.0000
  8  -3451.4254456842  -0.000008377595 0.00503499  0.00002986  0.0005676 0.0000
  9  -3451.4254477659  -0.000002081723 0.00482426  0.00002574  0.0006181 0.0000
 10  -3451.4254486927  -0.000000926755 0.04711548  0.00015115  0.0001609 0.0000
 11  -3451.4254486482   0.000000044520 0.01292227  0.00003847  0.0000375 0.0000
                 **** Energy Check signals convergence ****

               *****************************************************
               *                     SUCCESS                       *
               *           SCF CONVERGED AFTER  12 CYCLES          *
               *****************************************************


----------------
TOTAL SCF ENERGY
----------------

Total Energy       :        -3451.42544865 Eh          -93918.06116 eV

Components:
Nuclear Repulsion  :         1785.36871093 Eh           48582.35250 eV
Electronic Energy  :        -5236.79415958 Eh         -142500.41366 eV
One Electron Energy:        -8363.23186732 Eh         -227575.10880 eV
Two Electron Energy:         3126.43770773 Eh           85074.69514 eV

Virial components:
Potential Energy   :        -6845.25024546 Eh         -186268.72890 eV
Kinetic Energy     :         3393.82479680 Eh           92350.66774 eV
Virial Ratio       :            2.01697219


DFT components:
N(Alpha)           :       80.000061352537 electrons
N(Beta)            :       80.000061352537 electrons
N(Total)           :      160.000122705075 electrons
E(XC)              :     -149.777316807959 Eh       
DFET-embed. en.    :        0.000000000000 Eh       

---------------
SCF CONVERGENCE
---------------

  Last Energy change         ...   -3.4115e-09  Tolerance :   1.0000e-06
  Last MAX-Density change    ...    1.8091e-02  Tolerance :   1.0000e-05
  Last RMS-Density change    ...    6.1161e-05  Tolerance :   1.0000e-06
  Last DIIS Error            ...    1.1788e-05  Tolerance :   1.0000e-06

             **** THE GBW FILE WAS UPDATED (TMB20_I1.gbw) ****
             **** DENSITY FILE WAS UPDATED (TMB20_I1.scfp) ****
             **** ENERGY FILE WAS UPDATED (TMB20_I1.en.tmp) ****
             **** THE GBW FILE WAS UPDATED (TMB20_I1.gbw) ****
             **** DENSITY FILE WAS UPDATED (TMB20_I1.scfp) ****
----------------
ORBITAL ENERGIES
----------------

  NO   OCC          E(Eh)            E(eV) 
   0   2.0000    -483.136022    -13146.7995 
   1   2.0000     -62.767818     -1707.9992 
   2   2.0000     -56.475909     -1536.7876 
   3   2.0000     -56.473900     -1536.7329 
   4   2.0000     -56.473486     -1536.7217 
   5   2.0000     -19.307107      -525.3731 
   6   2.0000     -19.301769      -525.2278 
   7   2.0000     -19.299658      -525.1704 
   8   2.0000     -19.298428      -525.1369 
   9   2.0000     -19.291504      -524.9485 
  10   2.0000     -19.239131      -523.5234 
  11   2.0000     -10.407199      -283.1943 
  12   2.0000     -10.374948      -282.3167 
  13   2.0000     -10.373598      -282.2799 
  14   2.0000     -10.371950      -282.2351 
  15   2.0000     -10.346002      -281.5290 
  16   2.0000     -10.317853      -280.7630 
  17   2.0000     -10.288365      -279.9607 
  18   2.0000     -10.243754      -278.7467 
  19   2.0000     -10.225251      -278.2432 
  20   2.0000      -8.803749      -239.5622 
  21   2.0000      -6.580833      -179.0736 
  22   2.0000      -6.574461      -178.9002 
  23   2.0000      -6.573171      -178.8651 
  24   2.0000      -3.215634       -87.5019 
  25   2.0000      -2.640283       -71.8457 
  26   2.0000      -2.638799       -71.8054 
  27   2.0000      -2.637817       -71.7786 
  28   2.0000      -2.632660       -71.6383 
  29   2.0000      -2.632626       -71.6374 
  30   2.0000      -1.802448       -49.0471 
  31   2.0000      -1.797901       -48.9234 
  32   2.0000      -1.787288       -48.6346 
  33   2.0000      -1.177584       -32.0437 
  34   2.0000      -1.176511       -32.0145 
  35   2.0000      -1.172929       -31.9170 
  36   2.0000      -1.163121       -31.6501 
  37   2.0000      -1.136319       -30.9208 
  38   2.0000      -1.084691       -29.5159 
  39   2.0000      -0.861004       -23.4291 
  40   2.0000      -0.779889       -21.2219 
  41   2.0000      -0.746758       -20.3203 
  42   2.0000      -0.743271       -20.2254 
  43   2.0000      -0.700427       -19.0596 
  44   2.0000      -0.627980       -17.0882 
  45   2.0000      -0.618720       -16.8362 
  46   2.0000      -0.600857       -16.3502 
  47   2.0000      -0.595472       -16.2036 
  48   2.0000      -0.592286       -16.1169 
  49   2.0000      -0.566580       -15.4174 
  50   2.0000      -0.555019       -15.1028 
  51   2.0000      -0.541296       -14.7294 
  52   2.0000      -0.534512       -14.5448 
  53   2.0000      -0.529417       -14.4062 
  54   2.0000      -0.514990       -14.0136 
  55   2.0000      -0.511197       -13.9104 
  56   2.0000      -0.503514       -13.7013 
  57   2.0000      -0.499674       -13.5968 
  58   2.0000      -0.497899       -13.5485 
  59   2.0000      -0.493913       -13.4401 
  60   2.0000      -0.490336       -13.3427 
  61   2.0000      -0.477778       -13.0010 
  62   2.0000      -0.474780       -12.9194 
  63   2.0000      -0.473316       -12.8796 
  64   2.0000      -0.457473       -12.4485 
  65   2.0000      -0.447278       -12.1711 
  66   2.0000      -0.442334       -12.0365 
  67   2.0000      -0.412010       -11.2114 
  68   2.0000      -0.397614       -10.8196 
  69   2.0000      -0.396721       -10.7953 
  70   2.0000      -0.365141        -9.9360 
  71   2.0000      -0.356400        -9.6981 
  72   2.0000      -0.339630        -9.2418 
  73   2.0000      -0.320796        -8.7293 
  74   2.0000      -0.318375        -8.6634 
  75   2.0000      -0.299392        -8.1469 
  76   2.0000      -0.284161        -7.7324 
  77   2.0000      -0.271053        -7.3757 
  78   2.0000      -0.257773        -7.0144 
  79   2.0000      -0.247572        -6.7368 
  80   0.0000      -0.086634        -2.3574 
  81   0.0000      -0.052853        -1.4382 
  82   0.0000      -0.045750        -1.2449 
  83   0.0000      -0.033172        -0.9027 
  84   0.0000      -0.027139        -0.7385 
  85   0.0000      -0.023106        -0.6288 
  86   0.0000      -0.021480        -0.5845 
  87   0.0000      -0.018514        -0.5038 
  88   0.0000      -0.014903        -0.4055 
  89   0.0000      -0.010289        -0.2800 
  90   0.0000      -0.008199        -0.2231 
  91   0.0000      -0.007402        -0.2014 
  92   0.0000      -0.005512        -0.1500 
  93   0.0000       0.002212         0.0602 
  94   0.0000       0.003400         0.0925 
  95   0.0000       0.005215         0.1419 
  96   0.0000       0.007763         0.2112 
  97   0.0000       0.014589         0.3970 
  98   0.0000       0.018709         0.5091 
  99   0.0000       0.023012         0.6262 
 100   0.0000       0.025691         0.6991 
 101   0.0000       0.028219         0.7679 
 102   0.0000       0.029361         0.7989 
 103   0.0000       0.032841         0.8936 
 104   0.0000       0.037877         1.0307 
 105   0.0000       0.039048         1.0626 
 106   0.0000       0.041768         1.1366 
 107   0.0000       0.045217         1.2304 
 108   0.0000       0.046967         1.2780 
 109   0.0000       0.051547         1.4027 
 110   0.0000       0.056357         1.5336 
 111   0.0000       0.058350         1.5878 
 112   0.0000       0.069335         1.8867 
 113   0.0000       0.076176         2.0728 
 114   0.0000       0.077827         2.1178 
 115   0.0000       0.083080         2.2607 
 116   0.0000       0.086449         2.3524 
 117   0.0000       0.088338         2.4038 
 118   0.0000       0.088658         2.4125 
 119   0.0000       0.101842         2.7713 
 120   0.0000       0.107939         2.9372 
 121   0.0000       0.110803         3.0151 
 122   0.0000       0.115289         3.1372 
 123   0.0000       0.118642         3.2284 
 124   0.0000       0.119770         3.2591 
 125   0.0000       0.120339         3.2746 
 126   0.0000       0.128376         3.4933 
 127   0.0000       0.131532         3.5792 
 128   0.0000       0.137043         3.7291 
 129   0.0000       0.147176         4.0049 
 130   0.0000       0.148883         4.0513 
 131   0.0000       0.154351         4.2001 
 132   0.0000       0.159463         4.3392 
 133   0.0000       0.160855         4.3771 
 134   0.0000       0.165653         4.5077 
 135   0.0000       0.167996         4.5714 
 136   0.0000       0.173460         4.7201 
 137   0.0000       0.175133         4.7656 
 138   0.0000       0.179379         4.8812 
 139   0.0000       0.184802         5.0287 
 140   0.0000       0.189429         5.1546 
 141   0.0000       0.194299         5.2872 
 142   0.0000       0.196709         5.3527 
 143   0.0000       0.197362         5.3705 
 144   0.0000       0.204312         5.5596 
 145   0.0000       0.206626         5.6226 
 146   0.0000       0.208386         5.6705 
 147   0.0000       0.212851         5.7920 
 148   0.0000       0.213404         5.8070 
 149   0.0000       0.218290         5.9400 
 150   0.0000       0.219014         5.9597 
 151   0.0000       0.220777         6.0076 
 152   0.0000       0.223059         6.0697 
 153   0.0000       0.225929         6.1479 
 154   0.0000       0.227964         6.2032 
 155   0.0000       0.231030         6.2867 
 156   0.0000       0.237263         6.4563 
 157   0.0000       0.238413         6.4876 
 158   0.0000       0.241619         6.5748 
 159   0.0000       0.244509         6.6534 
 160   0.0000       0.251259         6.8371 
 161   0.0000       0.253404         6.8955 
 162   0.0000       0.259540         7.0624 
 163   0.0000       0.263668         7.1748 
 164   0.0000       0.264286         7.1916 
 165   0.0000       0.265547         7.2259 
 166   0.0000       0.269861         7.3433 
 167   0.0000       0.271828         7.3968 
 168   0.0000       0.275782         7.5044 
 169   0.0000       0.277960         7.5637 
 170   0.0000       0.280450         7.6314 
 171   0.0000       0.285593         7.7714 
 172   0.0000       0.289255         7.8710 
 173   0.0000       0.293930         7.9982 
 174   0.0000       0.296374         8.0647 
 175   0.0000       0.298557         8.1241 
 176   0.0000       0.301273         8.1981 
 177   0.0000       0.304460         8.2848 
 178   0.0000       0.305764         8.3203 
 179   0.0000       0.313935         8.5426 
 180   0.0000       0.316263         8.6060 
 181   0.0000       0.322826         8.7845 
 182   0.0000       0.324677         8.8349 
 183   0.0000       0.325407         8.8548 
 184   0.0000       0.331523         9.0212 
 185   0.0000       0.334969         9.1150 
 186   0.0000       0.338467         9.2101 
 187   0.0000       0.340450         9.2641 
 188   0.0000       0.343642         9.3510 
 189   0.0000       0.348165         9.4740 
 190   0.0000       0.354293         9.6408 
 191   0.0000       0.358008         9.7419 
 192   0.0000       0.364622         9.9219 
 193   0.0000       0.367236         9.9930 
 194   0.0000       0.370289        10.0761 
 195   0.0000       0.374271        10.1844 
 196   0.0000       0.375120        10.2075 
 197   0.0000       0.381084        10.3698 
 198   0.0000       0.382438        10.4067 
 199   0.0000       0.390709        10.6317 
 200   0.0000       0.393276        10.7016 
 201   0.0000       0.394564        10.7366 
 202   0.0000       0.396885        10.7998 
 203   0.0000       0.402091        10.9415 
 204   0.0000       0.406582        11.0637 
 205   0.0000       0.408951        11.1281 
 206   0.0000       0.412233        11.2174 
 207   0.0000       0.423334        11.5195 
 208   0.0000       0.426949        11.6179 
 209   0.0000       0.429775        11.6948 
 210   0.0000       0.435218        11.8429 
 211   0.0000       0.437167        11.8959 
 212   0.0000       0.443138        12.0584 
 213   0.0000       0.448429        12.2024 
 214   0.0000       0.450638        12.2625 
 215   0.0000       0.452910        12.3243 
 216   0.0000       0.458737        12.4829 
 217   0.0000       0.460048        12.5186 
 218   0.0000       0.466102        12.6833 
 219   0.0000       0.469613        12.7788 
 220   0.0000       0.478052        13.0085 
 221   0.0000       0.480227        13.0677 
 222   0.0000       0.482906        13.1405 
 223   0.0000       0.487490        13.2653 
 224   0.0000       0.488527        13.2935 
 225   0.0000       0.490772        13.3546 
 226   0.0000       0.495895        13.4940 
 227   0.0000       0.498999        13.5784 
 228   0.0000       0.500901        13.6302 
 229   0.0000       0.506500        13.7826 
 230   0.0000       0.511213        13.9108 
 231   0.0000       0.518517        14.1096 
 232   0.0000       0.520319        14.1586 
 233   0.0000       0.529291        14.4027 
 234   0.0000       0.533234        14.5100 
 235   0.0000       0.534691        14.5497 
 236   0.0000       0.534937        14.5564 
 237   0.0000       0.542418        14.7599 
 238   0.0000       0.548000        14.9118 
 239   0.0000       0.549051        14.9404 
 240   0.0000       0.553380        15.0582 
 241   0.0000       0.559139        15.2150 
 242   0.0000       0.559560        15.2264 
 243   0.0000       0.564235        15.3536 
 244   0.0000       0.568144        15.4600 
 245   0.0000       0.575506        15.6603 
 246   0.0000       0.579734        15.7754 
 247   0.0000       0.582800        15.8588 
 248   0.0000       0.584824        15.9139 
 249   0.0000       0.585909        15.9434 
 250   0.0000       0.588077        16.0024 
 251   0.0000       0.590874        16.0785 
 252   0.0000       0.593728        16.1562 
 253   0.0000       0.600362        16.3367 
 254   0.0000       0.603729        16.4283 
 255   0.0000       0.606717        16.5096 
 256   0.0000       0.611884        16.6502 
 257   0.0000       0.617675        16.8078 
 258   0.0000       0.622229        16.9317 
 259   0.0000       0.626429        17.0460 
 260   0.0000       0.628368        17.0988 
 261   0.0000       0.631864        17.1939 
 262   0.0000       0.634049        17.2534 
 263   0.0000       0.639109        17.3910 
 264   0.0000       0.643478        17.5099 
 265   0.0000       0.647679        17.6243 
 266   0.0000       0.652445        17.7539 
 267   0.0000       0.658622        17.9220 
 268   0.0000       0.659714        17.9517 
 269   0.0000       0.660787        17.9809 
 270   0.0000       0.663112        18.0442 
 271   0.0000       0.669512        18.2183 
 272   0.0000       0.676279        18.4025 
 273   0.0000       0.681379        18.5413 
 274   0.0000       0.683137        18.5891 
 275   0.0000       0.685509        18.6536 
 276   0.0000       0.695025        18.9126 
 277   0.0000       0.696855        18.9624 
 278   0.0000       0.699114        19.0239 
 279   0.0000       0.703907        19.1543 
 280   0.0000       0.706721        19.2308 
 281   0.0000       0.710442        19.3321 
 282   0.0000       0.712490        19.3878 
 283   0.0000       0.714983        19.4557 
 284   0.0000       0.719471        19.5778 
 285   0.0000       0.723630        19.6910 
 286   0.0000       0.730210        19.8700 
 287   0.0000       0.736637        20.0449 
 288   0.0000       0.740085        20.1387 
 289   0.0000       0.744205        20.2508 
 290   0.0000       0.747540        20.3416 
 291   0.0000       0.749245        20.3880 
 292   0.0000       0.756234        20.5782 
 293   0.0000       0.759797        20.6751 
 294   0.0000       0.764599        20.8058 
 295   0.0000       0.772860        21.0306 
 296   0.0000       0.776146        21.1200 
 297   0.0000       0.778197        21.1758 
 298   0.0000       0.782695        21.2982 
 299   0.0000       0.790974        21.5235 
 300   0.0000       0.796747        21.6806 
 301   0.0000       0.806310        21.9408 
 302   0.0000       0.810089        22.0436 
 303   0.0000       0.815934        22.2027 
 304   0.0000       0.817382        22.2421 
 305   0.0000       0.819605        22.3026 
 306   0.0000       0.826773        22.4976 
 307   0.0000       0.834817        22.7165 
 308   0.0000       0.840101        22.8603 
 309   0.0000       0.846657        23.0387 
 310   0.0000       0.848727        23.0950 
 311   0.0000       0.857115        23.3233 
 312   0.0000       0.859988        23.4015 
 313   0.0000       0.868617        23.6363 
 314   0.0000       0.879838        23.9416 
 315   0.0000       0.884926        24.0801 
 316   0.0000       0.888283        24.1714 
 317   0.0000       0.900178        24.4951 
 318   0.0000       0.904305        24.6074 
 319   0.0000       0.912343        24.8261 
 320   0.0000       0.915776        24.9195 
 321   0.0000       0.925875        25.1943 
 322   0.0000       0.930195        25.3119 
 323   0.0000       0.938583        25.5402 
 324   0.0000       0.948023        25.7970 
 325   0.0000       0.951919        25.9030 
 326   0.0000       0.956524        26.0283 
 327   0.0000       0.966509        26.3001 
 328   0.0000       0.969115        26.3710 
 329   0.0000       0.976445        26.5704 
 330   0.0000       0.980375        26.6774 
 331   0.0000       0.990688        26.9580 
 332   0.0000       0.994818        27.0704 
 333   0.0000       0.996364        27.1124 
 334   0.0000       0.999126        27.1876 
 335   0.0000       1.004499        27.3338 
 336   0.0000       1.013487        27.5784 
 337   0.0000       1.021547        27.7977 
 338   0.0000       1.033090        28.1118 
 339   0.0000       1.034924        28.1617 
 340   0.0000       1.035787        28.1852 
 341   0.0000       1.046715        28.4826 
 342   0.0000       1.062614        28.9152 
 343   0.0000       1.072340        29.1799 
 344   0.0000       1.078530        29.3483 
 345   0.0000       1.093645        29.7596 
 346   0.0000       1.097036        29.8519 
 347   0.0000       1.109252        30.1843 
 348   0.0000       1.112822        30.2814 
 349   0.0000       1.121321        30.5127 
 350   0.0000       1.123341        30.5677 
 351   0.0000       1.131915        30.8010 
 352   0.0000       1.140091        31.0234 
 353   0.0000       1.143852        31.1258 
 354   0.0000       1.152228        31.3537 
 355   0.0000       1.157123        31.4869 
 356   0.0000       1.166647        31.7461 
 357   0.0000       1.169160        31.8145 
 358   0.0000       1.174208        31.9518 
 359   0.0000       1.188843        32.3501 
 360   0.0000       1.194233        32.4967 
 361   0.0000       1.202855        32.7313 
 362   0.0000       1.207986        32.8710 
 363   0.0000       1.214645        33.0522 
 364   0.0000       1.225019        33.3345 
 365   0.0000       1.227743        33.4086 
 366   0.0000       1.234392        33.5895 
 367   0.0000       1.242642        33.8140 
 368   0.0000       1.253386        34.1064 
 369   0.0000       1.254835        34.1458 
 370   0.0000       1.263018        34.3685 
 371   0.0000       1.269646        34.5488 
 372   0.0000       1.281539        34.8724 
 373   0.0000       1.288404        35.0593 
 374   0.0000       1.293988        35.2112 
 375   0.0000       1.299005        35.3477 
 376   0.0000       1.310383        35.6573 
 377   0.0000       1.322969        35.9998 
 378   0.0000       1.325953        36.0810 
 379   0.0000       1.336405        36.3654 
 380   0.0000       1.343609        36.5615 
 381   0.0000       1.346712        36.6459 
 382   0.0000       1.353969        36.8434 
 383   0.0000       1.361777        37.0558 
 384   0.0000       1.372066        37.3358 
 385   0.0000       1.382534        37.6207 
 386   0.0000       1.389087        37.7990 
 387   0.0000       1.402572        38.1659 
 388   0.0000       1.405427        38.2436 
 389   0.0000       1.419096        38.6156 
 390   0.0000       1.423802        38.7436 
 391   0.0000       1.432456        38.9791 
 392   0.0000       1.438781        39.1512 
 393   0.0000       1.457014        39.6474 
 394   0.0000       1.457981        39.6737 
 395   0.0000       1.465856        39.8880 
 396   0.0000       1.479013        40.2460 
 397   0.0000       1.482468        40.3400 
 398   0.0000       1.495924        40.7062 
 399   0.0000       1.503903        40.9233 
 400   0.0000       1.511802        41.1382 
 401   0.0000       1.517076        41.2817 
 402   0.0000       1.524303        41.4784 
 403   0.0000       1.536184        41.8017 
 404   0.0000       1.545451        42.0539 
 405   0.0000       1.551542        42.2196 
 406   0.0000       1.554420        42.2979 
 407   0.0000       1.569028        42.6954 
 408   0.0000       1.570302        42.7301 
 409   0.0000       1.574037        42.8317 
 410   0.0000       1.585686        43.1487 
 411   0.0000       1.591854        43.3166 
 412   0.0000       1.601249        43.5722 
 413   0.0000       1.617075        44.0028 
 414   0.0000       1.629092        44.3299 
 415   0.0000       1.643539        44.7230 
 416   0.0000       1.655411        45.0460 
 417   0.0000       1.672563        45.5128 
 418   0.0000       1.678129        45.6642 
 419   0.0000       1.690549        46.0022 
 420   0.0000       1.697142        46.1816 
 421   0.0000       1.703326        46.3498 
 422   0.0000       1.713395        46.6238 
 423   0.0000       1.730056        47.0772 
 424   0.0000       1.734259        47.1916 
 425   0.0000       1.740246        47.3545 
 426   0.0000       1.752684        47.6930 
 427   0.0000       1.753597        47.7178 
 428   0.0000       1.764624        48.0179 
 429   0.0000       1.766144        48.0592 
 430   0.0000       1.776159        48.3318 
 431   0.0000       1.783545        48.5327 
 432   0.0000       1.794957        48.8433 
 433   0.0000       1.798711        48.9454 
 434   0.0000       1.805613        49.1332 
 435   0.0000       1.813485        49.3474 
 436   0.0000       1.820403        49.5357 
 437   0.0000       1.824589        49.6496 
 438   0.0000       1.829508        49.7835 
 439   0.0000       1.835458        49.9454 
 440   0.0000       1.840621        50.0859 
 441   0.0000       1.849230        50.3201 
 442   0.0000       1.864218        50.7279 
 443   0.0000       1.866139        50.7802 
 444   0.0000       1.877314        51.0843 
 445   0.0000       1.881363        51.1945 
 446   0.0000       1.886568        51.3361 
 447   0.0000       1.896230        51.5990 
 448   0.0000       1.903002        51.7833 
 449   0.0000       1.910949        51.9996 
 450   0.0000       1.922705        52.3195 
 451   0.0000       1.926372        52.4192 
 452   0.0000       1.939532        52.7773 
 453   0.0000       1.959454        53.3195 
 454   0.0000       1.963854        53.4392 
 455   0.0000       1.986010        54.0421 
 456   0.0000       1.988345        54.1056 
 457   0.0000       2.007540        54.6279 
 458   0.0000       2.017912        54.9102 
 459   0.0000       2.037003        55.4297 
 460   0.0000       2.041126        55.5418 
 461   0.0000       2.047797        55.7234 
 462   0.0000       2.054927        55.9174 
 463   0.0000       2.075318        56.4723 
 464   0.0000       2.094548        56.9956 
 465   0.0000       2.101308        57.1795 
 466   0.0000       2.111817        57.4655 
 467   0.0000       2.115123        57.5554 
 468   0.0000       2.148711        58.4694 
 469   0.0000       2.153969        58.6125 
 470   0.0000       2.162947        58.8568 
 471   0.0000       2.169355        59.0311 
 472   0.0000       2.174133        59.1612 
 473   0.0000       2.182918        59.4002 
 474   0.0000       2.200777        59.8862 
 475   0.0000       2.217160        60.3320 
 476   0.0000       2.219381        60.3924 
 477   0.0000       2.231118        60.7118 
 478   0.0000       2.236777        60.8658 
 479   0.0000       2.264225        61.6127 
 480   0.0000       2.272690        61.8430 
 481   0.0000       2.282625        62.1134 
 482   0.0000       2.295498        62.4637 
 483   0.0000       2.306409        62.7606 
 484   0.0000       2.312295        62.9208 
 485   0.0000       2.323242        63.2186 
 486   0.0000       2.337542        63.6077 
 487   0.0000       2.353219        64.0343 
 488   0.0000       2.371291        64.5261 
 489   0.0000       2.373289        64.5805 
 490   0.0000       2.384755        64.8925 
 491   0.0000       2.395134        65.1749 
 492   0.0000       2.412949        65.6597 
 493   0.0000       2.421760        65.8994 
 494   0.0000       2.425423        65.9991 
 495   0.0000       2.444447        66.5168 
 496   0.0000       2.449196        66.6460 
 497   0.0000       2.460781        66.9613 
 498   0.0000       2.468917        67.1827 
 499   0.0000       2.479091        67.4595 
 500   0.0000       2.506272        68.1991 
 501   0.0000       2.537172        69.0400 
 502   0.0000       2.550909        69.4138 
 503   0.0000       2.571030        69.9613 
 504   0.0000       2.581409        70.2437 
 505   0.0000       2.583751        70.3074 
 506   0.0000       2.603736        70.8512 
 507   0.0000       2.604657        70.8763 
 508   0.0000       2.610650        71.0394 
 509   0.0000       2.646789        72.0228 
 510   0.0000       2.655918        72.2712 
 511   0.0000       2.663668        72.4821 
 512   0.0000       2.668728        72.6198 
 513   0.0000       2.680985        72.9533 
 514   0.0000       2.684722        73.0550 
 515   0.0000       2.701486        73.5112 
 516   0.0000       2.707526        73.6755 
 517   0.0000       2.713448        73.8367 
 518   0.0000       2.731422        74.3258 
 519   0.0000       2.734422        74.4074 
 520   0.0000       2.741074        74.5884 
 521   0.0000       2.748004        74.7770 
 522   0.0000       2.757482        75.0349 
 523   0.0000       2.763722        75.2047 
 524   0.0000       2.770966        75.4018 
 525   0.0000       2.788371        75.8754 
 526   0.0000       2.796433        76.0948 
 527   0.0000       2.812523        76.5327 
 528   0.0000       2.825628        76.8892 
 529   0.0000       2.836914        77.1963 
 530   0.0000       2.841954        77.3335 
 531   0.0000       2.847060        77.4724 
 532   0.0000       2.859677        77.8158 
 533   0.0000       2.868789        78.0637 
 534   0.0000       2.876311        78.2684 
 535   0.0000       2.882552        78.4382 
 536   0.0000       2.894054        78.7512 
 537   0.0000       2.902965        78.9937 
 538   0.0000       2.921277        79.4920 
 539   0.0000       2.924712        79.5855 
 540   0.0000       2.933056        79.8125 
 541   0.0000       2.942870        80.0796 
 542   0.0000       2.951131        80.3044 
 543   0.0000       2.958519        80.5054 
 544   0.0000       2.961778        80.5941 
 545   0.0000       2.968494        80.7768 
 546   0.0000       2.981574        81.1328 
 547   0.0000       3.005400        81.7811 
 548   0.0000       3.006758        81.8180 
 549   0.0000       3.008983        81.8786 
 550   0.0000       3.028504        82.4098 
 551   0.0000       3.034930        82.5847 
 552   0.0000       3.047857        82.9364 
 553   0.0000       3.052158        83.0535 
 554   0.0000       3.065529        83.4173 
 555   0.0000       3.069064        83.5135 
 556   0.0000       3.076352        83.7118 
 557   0.0000       3.082411        83.8767 
 558   0.0000       3.089760        84.0766 
 559   0.0000       3.099202        84.3336 
 560   0.0000       3.102252        84.4166 
 561   0.0000       3.108312        84.5815 
 562   0.0000       3.130134        85.1753 
 563   0.0000       3.139961        85.4427 
 564   0.0000       3.147122        85.6375 
 565   0.0000       3.162144        86.0463 
 566   0.0000       3.171056        86.2888 
 567   0.0000       3.176672        86.4416 
 568   0.0000       3.187528        86.7370 
 569   0.0000       3.199084        87.0515 
 570   0.0000       3.200276        87.0839 
 571   0.0000       3.208678        87.3126 
 572   0.0000       3.221425        87.6594 
 573   0.0000       3.229278        87.8731 
 574   0.0000       3.235068        88.0307 
 575   0.0000       3.253248        88.5254 
 576   0.0000       3.256985        88.6271 
 577   0.0000       3.270461        88.9938 
 578   0.0000       3.274296        89.0981 
 579   0.0000       3.284773        89.3832 
 580   0.0000       3.293656        89.6249 
 581   0.0000       3.302718        89.8715 
 582   0.0000       3.305452        89.9459 
 583   0.0000       3.314328        90.1874 
 584   0.0000       3.321142        90.3729 
 585   0.0000       3.328987        90.5863 
 586   0.0000       3.344689        91.0136 
 587   0.0000       3.362532        91.4992 
 588   0.0000       3.371684        91.7482 
 589   0.0000       3.378071        91.9220 
 590   0.0000       3.385393        92.1212 
 591   0.0000       3.387889        92.1892 
 592   0.0000       3.392770        92.3220 
 593   0.0000       3.398867        92.4879 
 594   0.0000       3.411341        92.8273 
 595   0.0000       3.416746        92.9744 
 596   0.0000       3.429725        93.3275 
 597   0.0000       3.437092        93.5280 
 598   0.0000       3.444302        93.7242 
 599   0.0000       3.456587        94.0585 
 600   0.0000       3.466351        94.3242 
 601   0.0000       3.467463        94.3545 
 602   0.0000       3.481547        94.7377 
 603   0.0000       3.498448        95.1976 
 604   0.0000       3.508385        95.4680 
 605   0.0000       3.516029        95.6760 
 606   0.0000       3.520550        95.7990 
 607   0.0000       3.530200        96.0616 
 608   0.0000       3.533802        96.1596 
 609   0.0000       3.547711        96.5381 
 610   0.0000       3.559515        96.8593 
 611   0.0000       3.564576        96.9971 
 612   0.0000       3.573075        97.2283 
 613   0.0000       3.577919        97.3601 
 614   0.0000       3.582791        97.4927 
 615   0.0000       3.595395        97.8357 
 616   0.0000       3.600131        97.9646 
 617   0.0000       3.610795        98.2547 
 618   0.0000       3.623253        98.5937 
 619   0.0000       3.632927        98.8570 
 620   0.0000       3.651107        99.3517 
 621   0.0000       3.661711        99.6402 
 622   0.0000       3.683013       100.2199 
 623   0.0000       3.696803       100.5951 
 624   0.0000       3.709402       100.9380 
 625   0.0000       3.717387       101.1552 
 626   0.0000       3.728106       101.4469 
 627   0.0000       3.747020       101.9616 
 628   0.0000       3.752810       102.1192 
 629   0.0000       3.764856       102.4469 
 630   0.0000       3.788303       103.0850 
 631   0.0000       3.798783       103.3701 
 632   0.0000       3.823560       104.0443 
 633   0.0000       3.834248       104.3352 
 634   0.0000       3.841732       104.5388 
 635   0.0000       3.855684       104.9185 
 636   0.0000       3.868481       105.2667 
 637   0.0000       3.869338       105.2900 
 638   0.0000       3.882273       105.6420 
 639   0.0000       3.890606       105.8688 
 640   0.0000       3.902892       106.2031 
 641   0.0000       3.934189       107.0547 
 642   0.0000       3.936450       107.1163 
 643   0.0000       3.949043       107.4589 
 644   0.0000       3.957137       107.6792 
 645   0.0000       3.984383       108.4206 
 646   0.0000       4.000899       108.8700 
 647   0.0000       4.011667       109.1630 
 648   0.0000       4.016104       109.2838 
 649   0.0000       4.023749       109.4918 
 650   0.0000       4.035601       109.8143 
 651   0.0000       4.042216       109.9943 
 652   0.0000       4.055406       110.3532 
 653   0.0000       4.063818       110.5821 
 654   0.0000       4.073591       110.8480 
 655   0.0000       4.094547       111.4183 
 656   0.0000       4.096402       111.4688 
 657   0.0000       4.109938       111.8371 
 658   0.0000       4.140489       112.6684 
 659   0.0000       4.149338       112.9092 
 660   0.0000       4.179411       113.7275 
 661   0.0000       4.198188       114.2385 
 662   0.0000       4.207355       114.4879 
 663   0.0000       4.223007       114.9139 
 664   0.0000       4.232699       115.1776 
 665   0.0000       4.242064       115.4324 
 666   0.0000       4.249345       115.6306 
 667   0.0000       4.265014       116.0569 
 668   0.0000       4.274309       116.3099 
 669   0.0000       4.281770       116.5129 
 670   0.0000       4.289716       116.7291 
 671   0.0000       4.305540       117.1597 
 672   0.0000       4.325062       117.6909 
 673   0.0000       4.330400       117.8362 
 674   0.0000       4.346075       118.2627 
 675   0.0000       4.353934       118.4766 
 676   0.0000       4.359655       118.6323 
 677   0.0000       4.379217       119.1646 
 678   0.0000       4.390412       119.4692 
 679   0.0000       4.395149       119.5981 
 680   0.0000       4.415240       120.1448 
 681   0.0000       4.441728       120.8656 
 682   0.0000       4.461632       121.4072 
 683   0.0000       4.464353       121.4812 
 684   0.0000       4.484832       122.0385 
 685   0.0000       4.506621       122.6314 
 686   0.0000       4.511293       122.7585 
 687   0.0000       4.517523       122.9280 
 688   0.0000       4.531678       123.3132 
 689   0.0000       4.552487       123.8795 
 690   0.0000       4.564056       124.1943 
 691   0.0000       4.597720       125.1103 
 692   0.0000       4.607771       125.3838 
 693   0.0000       4.633926       126.0955 
 694   0.0000       4.671852       127.1276 
 695   0.0000       4.699004       127.8664 
 696   0.0000       4.726645       128.6185 
 697   0.0000       4.734226       128.8248 
 698   0.0000       4.786256       130.2407 
 699   0.0000       4.826966       131.3484 
 700   0.0000       4.839448       131.6881 
 701   0.0000       4.848870       131.9445 
 702   0.0000       4.857510       132.1796 
 703   0.0000       4.875125       132.6589 
 704   0.0000       4.904408       133.4557 
 705   0.0000       4.924271       133.9962 
 706   0.0000       4.952161       134.7552 
 707   0.0000       4.960680       134.9870 
 708   0.0000       4.980970       135.5391 
 709   0.0000       4.995582       135.9367 
 710   0.0000       5.031516       136.9145 
 711   0.0000       5.035639       137.0267 
 712   0.0000       5.052998       137.4991 
 713   0.0000       5.075905       138.1224 
 714   0.0000       5.099218       138.7568 
 715   0.0000       5.102242       138.8391 
 716   0.0000       5.110216       139.0560 
 717   0.0000       5.112470       139.1174 
 718   0.0000       5.115889       139.2104 
 719   0.0000       5.117723       139.2603 
 720   0.0000       5.120150       139.3264 
 721   0.0000       5.123303       139.4122 
 722   0.0000       5.130142       139.5983 
 723   0.0000       5.130566       139.6098 
 724   0.0000       5.148918       140.1092 
 725   0.0000       5.159895       140.4079 
 726   0.0000       5.173509       140.7783 
 727   0.0000       5.199507       141.4858 
 728   0.0000       5.238274       142.5407 
 729   0.0000       5.259867       143.1283 
 730   0.0000       5.291860       143.9988 
 731   0.0000       5.361796       145.9019 
 732   0.0000       5.399047       146.9155 
 733   0.0000       5.427016       147.6766 
 734   0.0000       5.445434       148.1778 
 735   0.0000       5.462487       148.6418 
 736   0.0000       5.489193       149.3685 
 737   0.0000       5.493882       149.4961 
 738   0.0000       5.514971       150.0700 
 739   0.0000       5.523750       150.3089 
 740   0.0000       5.530096       150.4816 
 741   0.0000       5.534702       150.6069 
 742   0.0000       5.552655       151.0954 
 743   0.0000       5.555938       151.1848 
 744   0.0000       5.561369       151.3326 
 745   0.0000       5.571579       151.6104 
 746   0.0000       5.578621       151.8020 
 747   0.0000       5.610949       152.6817 
 748   0.0000       5.646941       153.6611 
 749   0.0000       5.685024       154.6974 
 750   0.0000       5.742807       156.2697 
 751   0.0000       5.833918       158.7490 
 752   0.0000       5.841762       158.9624 
 753   0.0000       5.916160       160.9869 
 754   0.0000       6.015243       163.6831 
 755   0.0000       6.072603       165.2439 
 756   0.0000       6.222763       169.3300 
 757   0.0000       6.244771       169.9288 
 758   0.0000       6.246649       169.9799 
 759   0.0000       6.349424       172.7766 
 760   0.0000       6.394139       173.9934 
 761   0.0000       6.409030       174.3986 
 762   0.0000       6.428945       174.9405 
 763   0.0000       6.442057       175.2973 
 764   0.0000       6.473011       176.1396 
 765   0.0000       6.474540       176.1812 
 766   0.0000       6.483933       176.4368 
 767   0.0000       6.492734       176.6763 
 768   0.0000       6.502978       176.9550 
 769   0.0000       6.513398       177.2386 
 770   0.0000       6.518708       177.3831 
 771   0.0000       6.522664       177.4907 
 772   0.0000       6.538168       177.9126 
 773   0.0000       6.569974       178.7781 
 774   0.0000       6.573842       178.8833 
 775   0.0000       6.599323       179.5767 
 776   0.0000       6.627416       180.3412 
 777   0.0000       6.645496       180.8331 
 778   0.0000       6.653547       181.0522 
 779   0.0000       6.825525       185.7320 
 780   0.0000       6.841943       186.1787 
 781   0.0000       6.857836       186.6112 
 782   0.0000       6.895261       187.6296 
 783   0.0000       6.903188       187.8453 
 784   0.0000       6.910901       188.0552 
 785   0.0000       6.915345       188.1761 
 786   0.0000       6.920285       188.3105 
 787   0.0000       6.923128       188.3879 
 788   0.0000       6.934382       188.6941 
 789   0.0000       6.956382       189.2928 
 790   0.0000       7.022634       191.0956 
 791   0.0000       7.027611       191.2310 
 792   0.0000       7.031595       191.3394 
 793   0.0000       7.154560       194.6855 
 794   0.0000       7.200426       195.9336 
 795   0.0000       7.224810       196.5971 
 796   0.0000       7.226278       196.6370 
 797   0.0000       7.239397       196.9940 
 798   0.0000       7.314736       199.0441 
 799   0.0000       7.338851       199.7003 
 800   0.0000       7.433708       202.2815 
 801   0.0000       7.465052       203.1344 
 802   0.0000       7.605959       206.9687 
 803   0.0000       7.743551       210.7127 
 804   0.0000       8.134042       221.3385 
 805   0.0000      23.064021       627.6039 
 806   0.0000      23.246570       632.5713 
 807   0.0000      23.345670       635.2680 
 808   0.0000      23.356409       635.5602 
 809   0.0000      23.420989       637.3175 
 810   0.0000      23.567633       641.3079 
 811   0.0000      23.619116       642.7088 
 812   0.0000      23.674212       644.2080 
 813   0.0000      23.767784       646.7543 
 814   0.0000      44.199187      1202.7210 
 815   0.0000      44.277169      1204.8430 
 816   0.0000      44.317260      1205.9340 
 817   0.0000      44.337537      1206.4857 
 818   0.0000      44.485168      1210.5030 
 819   0.0000      44.595613      1213.5083 
 820   0.0000      49.365380      1343.3003 
 821   0.0000      50.180850      1365.4903 
 822   0.0000      50.611622      1377.2122 
 823   0.0000      68.221242      1856.3944 
 824   0.0000     512.571513     13947.7800 

                    ********************************
                    * MULLIKEN POPULATION ANALYSIS *
                    ********************************

-----------------------
MULLIKEN ATOMIC CHARGES
-----------------------
   0 Re:    1.684231
   1 C :    0.252622
   2 C :    0.668538
   3 C :   -0.009523
   4 Br:   -0.728170
   5 O :   -0.560124
   6 O :   -0.487314
   7 O :   -0.517018
   8 C :   -1.403330
   9 C :   -0.587207
  10 C :    0.785683
  11 C :    0.586477
  12 O :   -0.704959
  13 O :   -0.440266
  14 C :   -1.368558
  15 O :   -0.562649
  16 H :    0.487975
  17 C :   -1.376099
  18 H :    0.487606
  19 H :    0.547040
  20 H :    0.553548
  21 H :    0.380576
  22 H :    0.767086
  23 H :    0.457801
  24 H :    1.086032
Sum of atomic charges:    0.0000000

--------------------------------
MULLIKEN REDUCED ORBITAL CHARGES
--------------------------------
  0 Res       :     2.483752  s :     2.483752
      pz      :     1.892157  p :     5.334180
      px      :     1.865312
      py      :     1.576711
      dz2     :     1.162540  d :     5.321230
      dxz     :     0.740226
      dyz     :     1.368330
      dx2y2   :     0.943903
      dxy     :     1.106231
      f0      :     0.013265  f :     0.168748
      f+1     :     0.044896
      f-1     :     0.016776
      f+2     :     0.029654
      f-2     :     0.020965
      f+3     :     0.013764
      f-3     :     0.029429
      g0      :     0.000840  g :     0.007859
      g+1     :     0.001135
      g-1     :     0.000303
      g+2     :     0.001669
      g-2     :     0.000643
      g+3     :     0.000753
      g-3     :     0.000833
      g+4     :     0.001185
      g-4     :     0.000499
  1 C s       :     3.746797  s :     3.746797
      pz      :     0.718067  p :     2.005846
      px      :     0.662988
      py      :     0.624790
      dz2     :    -0.007715  d :    -0.025387
      dxz     :    -0.049827
      dyz     :     0.023537
      dx2y2   :     0.001221
      dxy     :     0.007397
      f0      :     0.005998  f :     0.020122
      f+1     :     0.002242
      f-1     :     0.003053
      f+2     :     0.002698
      f-2     :     0.004619
      f+3     :     0.000660
      f-3     :     0.000854
  2 C s       :     3.408902  s :     3.408902
      pz      :     0.618925  p :     1.920428
      px      :     0.632336
      py      :     0.669166
      dz2     :     0.010567  d :    -0.019741
      dxz     :    -0.062778
      dyz     :     0.015941
      dx2y2   :     0.003311
      dxy     :     0.013218
      f0      :     0.005659  f :     0.021874
      f+1     :     0.002940
      f-1     :     0.002487
      f+2     :     0.003426
      f-2     :     0.004988
      f+3     :     0.001155
      f-3     :     0.001219
  3 C s       :     3.739564  s :     3.739564
      pz      :     0.705052  p :     2.192906
      px      :     0.622708
      py      :     0.865147
      dz2     :    -0.015975  d :     0.055770
      dxz     :     0.003133
      dyz     :     0.063381
      dx2y2   :    -0.049627
      dxy     :     0.054858
      f0      :     0.003158  f :     0.021282
      f+1     :     0.000572
      f-1     :     0.001587
      f+2     :     0.005202
      f-2     :     0.000220
      f+3     :     0.008144
      f-3     :     0.002400
  4 Brs       :     8.221818  s :     8.221818
      pz      :     5.955700  p :    17.478016
      px      :     5.893026
      py      :     5.629290
      dz2     :     2.004177  d :    10.025490
      dxz     :     2.000353
      dyz     :     2.005381
      dx2y2   :     2.010707
      dxy     :     2.004871
      f0      :     0.000350  f :     0.002847
      f+1     :     0.000100
      f-1     :     0.000413
      f+2     :     0.000402
      f-2     :     0.000249
      f+3     :     0.000679
      f-3     :     0.000654
  5 O s       :     4.177548  s :     4.177548
      pz      :     1.561379  p :     4.339092
      px      :     1.534774
      py      :     1.242940
      dz2     :     0.000857  d :     0.042023
      dxz     :    -0.000045
      dyz     :     0.019210
      dx2y2   :     0.003803
      dxy     :     0.018198
      f0      :     0.000288  f :     0.001460
      f+1     :     0.000051
      f-1     :    -0.000012
      f+2     :     0.000459
      f-2     :     0.000011
      f+3     :     0.000709
      f-3     :    -0.000046
  6 O s       :     4.167682  s :     4.167682
      pz      :     1.335023  p :     4.270480
      px      :     1.427426
      py      :     1.508031
      dz2     :     0.016628  d :     0.047641
      dxz     :     0.006781
      dyz     :     0.012178
      dx2y2   :     0.005686
      dxy     :     0.006369
      f0      :     0.000564  f :     0.001510
      f+1     :    -0.000075
      f-1     :     0.000294
      f+2     :     0.000149
      f-2     :     0.000443
      f+3     :     0.000055
      f-3     :     0.000080
  7 O s       :     4.184791  s :     4.184791
      pz      :     1.354377  p :     4.283007
      px      :     1.433353
      py      :     1.495278
      dz2     :     0.017585  d :     0.047726
      dxz     :     0.007077
      dyz     :     0.010676
      dx2y2   :     0.006231
      dxy     :     0.006157
      f0      :     0.000493  f :     0.001493
      f+1     :     0.000025
      f-1     :     0.000206
      f+2     :     0.000196
      f-2     :     0.000401
      f+3     :     0.000084
      f-3     :     0.000087
  8 C s       :     3.911392  s :     3.911392
      pz      :     1.177222  p :     3.451700
      px      :     1.154315
      py      :     1.120163
      dz2     :     0.027372  d :     0.033973
      dxz     :    -0.019290
      dyz     :     0.024222
      dx2y2   :     0.011718
      dxy     :    -0.010048
      f0      :     0.000931  f :     0.006264
      f+1     :     0.000357
      f-1     :     0.000665
      f+2     :     0.001739
      f-2     :     0.000797
      f+3     :     0.000554
      f-3     :     0.001221
  9 C s       :     3.576607  s :     3.576607
      pz      :     1.202285  p :     3.013563
      px      :     0.944284
      py      :     0.866994
      dz2     :     0.013209  d :    -0.007834
      dxz     :    -0.017864
      dyz     :     0.008971
      dx2y2   :    -0.001562
      dxy     :    -0.010587
      f0      :     0.000646  f :     0.004871
      f+1     :     0.000242
      f-1     :     0.000406
      f+2     :     0.001296
      f-2     :     0.000416
      f+3     :     0.000534
      f-3     :     0.001332
 10 C s       :     2.287864  s :     2.287864
      pz      :     1.011375  p :     3.118742
      px      :     0.929448
      py      :     1.177919
      dz2     :    -0.021413  d :    -0.198635
      dxz     :    -0.023345
      dyz     :    -0.050130
      dx2y2   :    -0.010909
      dxy     :    -0.092838
      f0      :     0.000589  f :     0.006346
      f+1     :     0.001285
      f-1     :     0.000429
      f+2     :     0.001363
      f-2     :     0.001368
      f+3     :     0.000654
      f-3     :     0.000658
 11 C s       :     3.289246  s :     3.289246
      pz      :     0.651890  p :     2.091475
      px      :     0.813207
      py      :     0.626378
      dz2     :    -0.000613  d :     0.007043
      dxz     :     0.027101
      dyz     :    -0.042499
      dx2y2   :    -0.053069
      dxy     :     0.076123
      f0      :     0.001682  f :     0.025759
      f+1     :     0.002141
      f-1     :     0.004335
      f+2     :     0.002946
      f-2     :     0.004524
      f+3     :     0.006361
      f-3     :     0.003770
 12 O s       :     4.010095  s :     4.010095
      pz      :     1.453160  p :     4.659500
      px      :     1.842240
      py      :     1.364099
      dz2     :     0.012649  d :     0.033763
      dxz     :     0.002050
      dyz     :     0.009915
      dx2y2   :     0.009813
      dxy     :    -0.000664
      f0      :     0.000068  f :     0.001602
      f+1     :     0.000051
      f-1     :     0.000588
      f+2     :     0.000120
      f-2     :     0.000300
      f+3     :     0.000265
      f-3     :     0.000211
 13 O s       :     3.912064  s :     3.912064
      pz      :     1.701232  p :     4.513098
      px      :     1.198262
      py      :     1.613604
      dz2     :     0.006541  d :     0.013248
      dxz     :     0.000516
      dyz     :     0.004002
      dx2y2   :     0.006624
      dxy     :    -0.004435
      f0      :     0.000244  f :     0.001857
      f+1     :     0.000315
      f-1     :     0.000131
      f+2     :     0.000230
      f-2     :     0.000211
      f+3     :     0.000416
      f-3     :     0.000310
 14 C s       :     3.957388  s :     3.957388
      pz      :     1.046983  p :     3.287005
      px      :     0.894729
      py      :     1.345292
      dz2     :     0.025339  d :     0.112713
      dxz     :    -0.015162
      dyz     :    -0.012147
      dx2y2   :     0.076707
      dxy     :     0.037977
      f0      :     0.001014  f :     0.011452
      f+1     :     0.001004
      f-1     :     0.002670
      f+2     :     0.002059
      f-2     :     0.001909
      f+3     :     0.001609
      f-3     :     0.001186
 15 O s       :     3.960441  s :     3.960441
      pz      :     1.639880  p :     4.601639
      px      :     1.625855
      py      :     1.335904
      dz2     :     0.001946  d :    -0.000209
      dxz     :    -0.002363
      dyz     :     0.000489
      dx2y2   :    -0.011406
      dxy     :     0.011126
      f0      :     0.000100  f :     0.000778
      f+1     :     0.000062
      f-1     :     0.000227
      f+2     :     0.000164
      f-2     :     0.000090
      f+3     :     0.000045
      f-3     :     0.000090
 16 H s       :     0.464566  s :     0.464566
      pz      :     0.005134  p :     0.038497
      px      :     0.014808
      py      :     0.018555
      dz2     :     0.001265  d :     0.008962
      dxz     :     0.001076
      dyz     :     0.001494
      dx2y2   :     0.001990
      dxy     :     0.003136
 17 C s       :     3.734609  s :     3.734609
      pz      :     1.319045  p :     3.483968
      px      :     1.028448
      py      :     1.136475
      dz2     :     0.076896  d :     0.150841
      dxz     :     0.007708
      dyz     :     0.014021
      dx2y2   :     0.031331
      dxy     :     0.020884
      f0      :     0.000927  f :     0.006681
      f+1     :     0.001086
      f-1     :     0.000525
      f+2     :     0.000320
      f-2     :     0.000800
      f+3     :     0.001615
      f-3     :     0.001408
 18 H s       :     0.442078  s :     0.442078
      pz      :     0.028038  p :     0.068917
      px      :     0.027576
      py      :     0.013303
      dz2     :     0.000236  d :     0.001399
      dxz     :     0.000391
      dyz     :     0.000138
      dx2y2   :     0.000576
      dxy     :     0.000057
 19 H s       :     0.412713  s :     0.412713
      pz      :     0.023313  p :     0.038711
      px      :     0.003350
      py      :     0.012047
      dz2     :    -0.000536  d :     0.001536
      dxz     :     0.001037
      dyz     :     0.001010
      dx2y2   :     0.000002
      dxy     :     0.000024
 20 H s       :     0.409801  s :     0.409801
      pz      :     0.013525  p :     0.035131
      px      :     0.003520
      py      :     0.018086
      dz2     :     0.000318  d :     0.001520
      dxz     :     0.000083
      dyz     :     0.000394
      dx2y2   :    -0.000229
      dxy     :     0.000954
 21 H s       :     0.554952  s :     0.554952
      pz      :     0.041440  p :     0.062327
      px      :     0.022948
      py      :    -0.002061
      dz2     :     0.000817  d :     0.002144
      dxz     :     0.000467
      dyz     :    -0.000028
      dx2y2   :     0.000526
      dxy     :     0.000362
[...]
      pz      :     2.144919  p :     6.450892
      px      :     2.131782
      py      :     2.174191
      dz2     :     1.147960  d :     5.538237
      dxz     :     1.007822
      dyz     :     1.244778
      dx2y2   :     1.078759
      dxy     :     1.058918
      f0      :     0.036395  f :     0.438357
      f+1     :     0.112454
      f-1     :     0.046988
      f+2     :     0.074657
      f-2     :     0.051417
      f+3     :     0.043170
      f-3     :     0.073275
      g0      :     0.002822  g :     0.030275
      g+1     :     0.004555
      g-1     :     0.001254
      g+2     :     0.006133
      g-2     :     0.002818
      g+3     :     0.002448
      g-3     :     0.003183
      g+4     :     0.004376
      g-4     :     0.002687
  1 C s       :     2.917481  s :     2.917481
      pz      :     0.936591  p :     2.324582
      px      :     0.766328
      py      :     0.621663
      dz2     :     0.245043  d :     0.884004
      dxz     :     0.217024
      dyz     :     0.208518
      dx2y2   :     0.114410
      dxy     :     0.099010
      f0      :     0.021971  f :     0.091571
      f+1     :     0.021034
      f-1     :     0.011305
      f+2     :     0.014423
      f-2     :     0.016933
      f+3     :     0.002740
      f-3     :     0.003165
  2 C s       :     2.866900  s :     2.866900
      pz      :     0.913395  p :     2.348037
      px      :     0.794278
      py      :     0.640364
      dz2     :     0.267041  d :     0.980816
      dxz     :     0.224517
      dyz     :     0.194217
      dx2y2   :     0.152325
      dxy     :     0.142716
      f0      :     0.019758  f :     0.095154
      f+1     :     0.021894
      f-1     :     0.009777
      f+2     :     0.017134
      f-2     :     0.018125
      f+3     :     0.004155
      f-3     :     0.004310
  3 C s       :     2.832450  s :     2.832450
      pz      :     0.668942  p :     2.350746
      px      :     0.628918
      py      :     1.052886
      dz2     :     0.092540  d :     0.983471
      dxz     :     0.042851
      dyz     :     0.315068
      dx2y2   :     0.238317
      dxy     :     0.294695
      f0      :     0.010978  f :     0.093906
      f+1     :     0.001897
      f-1     :     0.012913
      f+2     :     0.018348
      f-2     :     0.000857
      f+3     :     0.027794
      f-3     :     0.021119
  4 Brs       :     7.638663  s :     7.638663
      pz      :     5.794779  p :    17.019226
      px      :     5.745591
      py      :     5.478856
      dz2     :     2.014945  d :    10.175103
      dxz     :     2.016087
      dyz     :     2.062219
      dx2y2   :     2.045533
      dxy     :     2.036319
      f0      :     0.000632  f :     0.004374
      f+1     :     0.000137
      f-1     :     0.000546
      f+2     :     0.000661
      f-2     :     0.000432
      f+3     :     0.000941
      f-3     :     0.001025
  5 O s       :     3.377154  s :     3.377154
      pz      :     1.370872  p :     4.282150
      px      :     1.343245
      py      :     1.568033
      dz2     :     0.025553  d :     0.201930
      dxz     :     0.000676
      dyz     :     0.053103
      dx2y2   :     0.077914
      dxy     :     0.044684
      f0      :     0.000718  f :     0.006809
      f+1     :     0.000107
      f-1     :     0.001217
      f+2     :     0.001185
      f-2     :     0.000025
      f+3     :     0.001574
      f-3     :     0.001983
  6 O s       :     3.388365  s :     3.388365
      pz      :     1.516779  p :     4.270353
      px      :     1.414279
      py      :     1.339296
      dz2     :     0.056287  d :     0.193230
      dxz     :     0.077626
      dyz     :     0.028137
      dx2y2   :     0.018147
      dxy     :     0.013033
      f0      :     0.001285  f :     0.006815
      f+1     :     0.002394
      f-1     :     0.000604
      f+2     :     0.001260
      f-2     :     0.000922
      f+3     :     0.000184
      f-3     :     0.000166
  7 O s       :     3.378142  s :     3.378142
      pz      :     1.496943  p :     4.266826
      px      :     1.431026
      py      :     1.338857
      dz2     :     0.053592  d :     0.195319
      dxz     :     0.074527
      dyz     :     0.029009
      dx2y2   :     0.021234
      dxy     :     0.016956
      f0      :     0.001161  f :     0.006942
      f+1     :     0.002233
      f-1     :     0.000569
      f+2     :     0.001361
      f-2     :     0.001116
      f+3     :     0.000252
      f-3     :     0.000250
  8 C s       :     2.650582  s :     2.650582
      pz      :     0.834016  p :     2.620160
      px      :     0.971716
      py      :     0.814427
      dz2     :     0.109979  d :     0.730712
      dxz     :     0.250670
      dyz     :     0.081186
      dx2y2   :     0.138134
      dxy     :     0.150744
      f0      :     0.007691  f :     0.044112
      f+1     :     0.005507
      f-1     :     0.004857
      f+2     :     0.008846
      f-2     :     0.004416
      f+3     :     0.006005
      f-3     :     0.006790
  9 C s       :     2.727351  s :     2.727351
      pz      :     0.885718  p :     2.661295
      px      :     1.000918
      py      :     0.774659
      dz2     :     0.100159  d :     0.669343
      dxz     :     0.185546
      dyz     :     0.088333
      dx2y2   :     0.133542
      dxy     :     0.161764
      f0      :     0.004870  f :     0.033934
      f+1     :     0.004591
      f-1     :     0.002859
      f+2     :     0.006104
      f-2     :     0.002418
      f+3     :     0.005906
      f-3     :     0.007187
 10 C s       :     2.579643  s :     2.579643
      pz      :     0.864462  p :     2.584983
      px      :     0.837770
      py      :     0.882750
      dz2     :     0.186962  d :     0.894902
      dxz     :     0.203083
      dyz     :     0.170259
      dx2y2   :     0.171246
      dxy     :     0.163352
      f0      :     0.007869  f :     0.053103
      f+1     :     0.008687
      f-1     :     0.005716
      f+2     :     0.009058
      f-2     :     0.008409
      f+3     :     0.006673
      f-3     :     0.006692
 11 C s       :     2.602032  s :     2.602032
      pz      :     0.691084  p :     2.309151
      px      :     0.806035
      py      :     0.812032
      dz2     :     0.198818  d :     1.341594
      dxz     :     0.273175
      dyz     :     0.199946
      dx2y2   :     0.303808
      dxy     :     0.365846
      f0      :     0.013895  f :     0.164339
      f+1     :     0.014472
      f-1     :     0.018804
      f+2     :     0.023600
      f-2     :     0.026047
      f+3     :     0.038379
      f-3     :     0.029142
 12 O s       :     3.284719  s :     3.284719
      pz      :     1.356861  p :     4.306846
      px      :     1.528625
      py      :     1.421360
      dz2     :     0.038866  d :     0.275491
      dxz     :     0.034102
      dyz     :     0.064413
      dx2y2   :     0.077016
      dxy     :     0.061094
      f0      :     0.000490  f :     0.006131
      f+1     :     0.000134
      f-1     :     0.001123
      f+2     :     0.001319
      f-2     :     0.001197
      f+3     :     0.001030
      f-3     :     0.000838
 13 O s       :     3.182212  s :     3.182212
      pz      :     1.496125  p :     4.264738
      px      :     1.274382
      py      :     1.494231
      dz2     :     0.072107  d :     0.512478
      dxz     :     0.107875
      dyz     :     0.044046
      dx2y2   :     0.154059
      dxy     :     0.134391
      f0      :     0.000420  f :     0.006756
      f+1     :     0.001097
      f-1     :     0.000352
      f+2     :     0.000574
      f-2     :     0.001236
      f+3     :     0.001861
      f-3     :     0.001217
 14 C s       :     2.628664  s :     2.628664
      pz      :     0.836260  p :     2.455064
      px      :     0.826618
      py      :     0.792186
      dz2     :     0.168204  d :     0.990339
      dxz     :     0.191859
      dyz     :     0.239585
      dx2y2   :     0.194937
      dxy     :     0.195754
      f0      :     0.009405  f :     0.079605
      f+1     :     0.006596
      f-1     :     0.017318
      f+2     :     0.012703
      f-2     :     0.012692
      f+3     :     0.010742
      f-3     :     0.010149
 15 O s       :     3.155326  s :     3.155326
      pz      :     1.527394  p :     4.273643
      px      :     1.442047
      py      :     1.304203
      dz2     :     0.089759  d :     0.440425
      dxz     :     0.067709
      dyz     :     0.081014
      dx2y2   :     0.096712
      dxy     :     0.105231
      f0      :     0.000286  f :     0.005057
      f+1     :     0.000368
      f-1     :     0.001076
      f+2     :     0.000910
      f-2     :     0.001079
      f+3     :     0.000748
      f-3     :     0.000590
 16 H s       :     0.522999  s :     0.522999
      pz      :     0.133874  p :     0.543701
      px      :     0.244974
      py      :     0.164852
      dz2     :     0.010348  d :     0.095203
      dxz     :     0.012905
      dyz     :     0.018786
      dx2y2   :     0.028276
      dxy     :     0.024888
 17 C s       :     2.633044  s :     2.633044
      pz      :     0.915847  p :     2.555908
      px      :     0.768739
      py      :     0.871321
      dz2     :     0.133121  d :     0.568466
      dxz     :     0.093624
      dyz     :     0.065242
      dx2y2   :     0.139021
      dxy     :     0.137458
      f0      :     0.008285  f :     0.060464
      f+1     :     0.006559
      f-1     :     0.003329
      f+2     :     0.007612
      f-2     :     0.012555
      f+3     :     0.009898
      f-3     :     0.012227
 18 H s       :     0.700687  s :     0.700687
      pz      :     0.078637  p :     0.254961
      px      :     0.097619
      py      :     0.078705
      dz2     :     0.004692  d :     0.030067
      dxz     :     0.007346
      dyz     :     0.002485
      dx2y2   :     0.007588
      dxy     :     0.007955
 19 H s       :     0.689965  s :     0.689965
      pz      :     0.132978  p :     0.262935
      px      :     0.064480
      py      :     0.065477
      dz2     :     0.011633  d :     0.029920
      dxz     :     0.008314
      dyz     :     0.009798
      dx2y2   :     0.000037
      dxy     :     0.000138
 20 H s       :     0.688598  s :     0.688598
      pz      :     0.077937  p :     0.262714
      px      :     0.064339
      py      :     0.120438
      dz2     :     0.004985  d :     0.029948
      dxz     :     0.000807
      dyz     :     0.009002
      dx2y2   :     0.007610
      dxy     :     0.007543
 21 H s       :     0.716506  s :     0.716506
      pz      :     0.121741  p :     0.314153
      px      :     0.092513
      py      :     0.099899
      dz2     :     0.008123  d :     0.030426
      dxz     :     0.006244
      dyz     :     0.007618
      dx2y2   :     0.004239
      dxy     :     0.004202
 22 H s       :     0.658321  s :     0.658321
      pz      :     0.072269  p :     0.255258
      px      :     0.075786
      py      :     0.107203
      dz2     :     0.003680  d :     0.030858
      dxz     :     0.002393
      dyz     :     0.008330
      dx2y2   :     0.008213
      dxy     :     0.008240
 23 H s       :     0.696247  s :     0.696247
      pz      :     0.094181  p :     0.265563
      px      :     0.090214
      py      :     0.081168
      dz2     :     0.007389  d :     0.029504
      dxz     :     0.007595
      dyz     :     0.005558
      dx2y2   :     0.004317
      dxy     :     0.004645
 24 H s       :     0.679612  s :     0.679612
      pz      :     0.085894  p :     0.264343
      px      :     0.082715
      py      :     0.095733
      dz2     :     0.005027  d :     0.031133
      dxz     :     0.004154
      dyz     :     0.009447
      dx2y2   :     0.006329
      dxy     :     0.006176


                      *****************************
                      * MAYER POPULATION ANALYSIS *
                      *****************************

  NA   - Mulliken gross atomic population
  ZA   - Total nuclear charge
  QA   - Mulliken gross atomic charge
  VA   - Mayer's total valence
  BVA  - Mayer's bonded valence
  FA   - Mayer's free valence

  ATOM       NA         ZA         QA         VA         BVA        FA
  0 Re    13.3158    15.0000     1.6842     3.0745     3.0745     0.0000
  1 C      5.7474     6.0000     0.2526     2.2388     2.2388    -0.0000
  2 C      5.3315     6.0000     0.6685     2.6321     2.6321    -0.0000
  3 C      6.0095     6.0000    -0.0095     2.9252     2.9252     0.0000
  4 Br    35.7282    35.0000    -0.7282     0.3801     0.3801     0.0000
  5 O      8.5601     8.0000    -0.5601     1.7084     1.7084    -0.0000
  6 O      8.4873     8.0000    -0.4873     1.8141     1.8141     0.0000
  7 O      8.5170     8.0000    -0.5170     1.8192     1.8192    -0.0000
  8 C      7.4033     6.0000    -1.4033     2.8109     2.8109     0.0000
  9 C      6.5872     6.0000    -0.5872     3.2252     3.2252     0.0000
 10 C      5.2143     6.0000     0.7857     0.2112     0.2112    -0.0000
 11 C      5.4135     6.0000     0.5865     3.0354     3.0354     0.0000
 12 O      8.7050     8.0000    -0.7050     1.5146     1.5146     0.0000
 13 O      8.4403     8.0000    -0.4403     1.6438     1.6438    -0.0000
 14 C      7.3686     6.0000    -1.3686     2.6401     2.6401     0.0000
 15 O      8.5626     8.0000    -0.5626     1.6738     1.6738     0.0000
 16 H      0.5120     1.0000     0.4880     0.6703     0.6703     0.0000
 17 C      7.3761     6.0000    -1.3761     2.5632     2.5632    -0.0000
 18 H      0.5124     1.0000     0.4876     0.9017     0.9017     0.0000
 19 H      0.4530     1.0000     0.5470     0.8245     0.8245     0.0000
 20 H      0.4465     1.0000     0.5535     0.7905     0.7905    -0.0000
 21 H      0.6194     1.0000     0.3806     0.9577     0.9577     0.0000
 22 H      0.2329     1.0000     0.7671     0.3805     0.3805     0.0000
 23 H      0.5422     1.0000     0.4578     0.8467     0.8467     0.0000
 24 H     -0.0860     1.0000     1.0860    -0.1900    -0.1900    -0.0000

  Mayer bond orders larger than 0.100000
B(  0-Re,  1-C ) :   0.2465 B(  0-Re,  2-C ) :   0.8703 B(  0-Re,  3-C ) :   0.9065 
B(  0-Re,  9-C ) :   0.4229 B(  0-Re, 14-C ) :   0.5631 B(  0-Re, 15-O ) :   0.2531 
B(  1-C ,  2-C ) :  -0.1161 B(  1-C ,  3-C ) :   0.1496 B(  1-C ,  4-Br) :   0.1250 
B(  1-C ,  6-O ) :   1.7580 B(  2-C ,  7-O ) :   1.7463 B(  3-C ,  5-O ) :   1.5831 
B(  3-C , 14-C ) :   0.2357 B(  4-Br,  9-C ) :   0.1697 B(  8-C ,  9-C ) :   1.6121 
B(  8-C , 10-C ) :  -0.2104 B(  8-C , 11-C ) :   0.3161 B(  8-C , 14-C ) :   0.3478 
B(  8-C , 21-H ) :  -0.1387 B(  8-C , 23-H ) :   0.9529 B(  9-C , 10-C ) :  -0.2453 
B(  9-C , 14-C ) :   0.1111 B(  9-C , 21-H ) :   1.0904 B( 10-C , 11-C ) :   0.1332 
B( 10-C , 14-C ) :   0.2467 B( 10-C , 15-O ) :  -0.1062 B( 10-C , 22-H ) :   0.4134 
B( 10-C , 23-H ) :  -0.1277 B( 11-C , 12-O ) :   1.4042 B( 11-C , 13-O ) :   0.9752 
B( 11-C , 14-C ) :   0.3742 B( 11-C , 17-C ) :  -0.1460 B( 13-O , 17-C ) :   0.4967 
B( 14-C , 15-O ) :   0.9129 B( 14-C , 24-H ) :  -0.3453 B( 15-O , 16-H ) :   0.5336 
B( 17-C , 18-H ) :   0.7722 B( 17-C , 19-H ) :   0.7376 B( 17-C , 20-H ) :   0.7056 


-------
TIMINGS
-------

Total SCF time: 0 days 0 hours 7 min 18 sec 

Total time                  ....     438.978 sec
Sum of individual times     ....     438.025 sec  ( 99.8%)

Fock matrix formation       ....     430.891 sec  ( 98.2%)
  XC integration            ....      11.639 sec  (  2.7% of F)
    Basis function eval.    ....       1.002 sec  (  8.6% of XC)
    Density eval.           ....       3.662 sec  ( 31.5% of XC)
    XC-Functional eval.     ....       0.382 sec  (  3.3% of XC)
    XC-Potential eval.      ....       5.585 sec  ( 48.0% of XC)
Diagonalization             ....       2.603 sec  (  0.6%)
Density matrix formation    ....       0.106 sec  (  0.0%)
Population analysis         ....       0.150 sec  (  0.0%)
Initial guess               ....       2.043 sec  (  0.5%)
Orbital Transformation      ....       0.000 sec  (  0.0%)
Orbital Orthonormalization  ....       0.000 sec  (  0.0%)
DIIS solution               ....       1.481 sec  (  0.3%)
Grid generation             ....       0.751 sec  (  0.2%)


-------------------------------------------------------------------------------
                          DFT DISPERSION CORRECTION                            
                                                                               
                              DFTD3 V3.1  Rev 1                                
                              USING zero damping                               
-------------------------------------------------------------------------------
The M06 functional is recognized
Active option DFTDOPT                   ...         3   

molecular C6(AA) [au] = 12002.907786 


            DFT-D V3
 parameters
 s6 scaling factor         :     1.0000 
 rs6 scaling factor        :     1.3250 
 s8 scaling factor         :     0.0000 
 rs8 scaling factor        :     1.0000 
 Damping factor alpha6     :    14.0000 
 Damping factor alpha8     :    16.0000 
 ad hoc parameters k1-k3   :    16.0000     1.3333    -4.0000 

 Edisp/kcal,au: -2.889469482469  -0.004604662230 
 E6   /kcal   :  -2.889469482 
 E8   /kcal   :  -0.000000000 
 % E8         :   0.000000000 

-------------------------   ----------------
Dispersion correction           -0.004604662
-------------------------   ----------------


-------------------------   --------------------
FINAL SINGLE POINT ENERGY     -3451.430053313816
-------------------------   --------------------


                            ***************************************
                            *     ORCA property calculations      *
                            ***************************************

                                    ---------------------
                                    Active property flags
                                    ---------------------
   (+) Dipole Moment


------------------------------------------------------------------------------
                       ORCA ELECTRIC PROPERTIES CALCULATION
------------------------------------------------------------------------------

Dipole Moment Calculation                       ... on
Quadrupole Moment Calculation                   ... off
Polarizability Calculation                      ... off
GBWName                                         ... TMB20_I1.gbw
Electron density file                           ... TMB20_I1.scfp
The origin for moment calculation is the CENTER OF MASS  = ( 0.273450, -0.033238 -0.010571)

-------------
DIPOLE MOMENT
-------------
                                X             Y             Z
Electronic contribution:    123.09966      29.83855      -3.25347
Nuclear contribution   :   -125.53088     -28.89018       3.09124
                        -----------------------------------------
Total Dipole Moment    :     -2.43122       0.94838      -0.16223
                        -----------------------------------------
Magnitude (a.u.)       :      2.61468
Magnitude (Debye)      :      6.64599



--------------------
Rotational spectrum 
--------------------
 
Rotational constants in cm-1:     0.016025     0.007116     0.006337 
Rotational constants in MHz :   480.407323   213.341783   189.987107 

 Dipole components along the rotational axes: 
x,y,z [a.u.] :    -2.454216     0.885797    -0.169513 
x,y,z [Debye]:    -6.238122     2.251518    -0.430867 

 

Timings for individual modules:

Sum of individual times         ...      443.202 sec (=   7.387 min)
GTO integral calculation        ...        3.828 sec (=   0.064 min)   0.9 %
SCF iterations                  ...      439.374 sec (=   7.323 min)  99.1 %
                             ****ORCA TERMINATED NORMALLY****
TOTAL RUN TIME: 0 days 0 hours 7 minutes 23 seconds 879 msec
