
                                 *****************
                                 * O   R   C   A *
                                 *****************

           --- An Ab Initio, DFT and Semiempirical electronic structure package ---

                  #######################################################
                  #                        -***-                        #
                  #          Department of theory and spectroscopy      #
                  #               Directorship: Frank Neese             #
                  #        Max Planck Institute fuer Kohlenforschung    #
                  #                Kaiser Wilhelm Platz 1               #
                  #                 D-45470 Muelheim/Ruhr               #
                  #                      Germany                        #
                  #                                                     #
                  #                  All rights reserved                #
                  #                        -***-                        #
                  #######################################################


                         Program Version 4.2.0 -  RELEASE  -


 With contributions from (in alphabetic order):
   Daniel Aravena         : Magnetic Suceptibility
   Michael Atanasov       : Ab Initio Ligand Field Theory (pilot matlab implementation)
   Alexander A. Auer      : GIAO ZORA, VPT2
   Ute Becker             : Parallelization
   Giovanni Bistoni       : ED, misc. LED, open-shell LED, HFLED
   Martin Brehm           : Molecular dynamics
   Dmytro Bykov           : SCF Hessian
   Vijay G. Chilkuri      : MRCI spin determinant printing, contributions to CSF-ICE
   Dipayan Datta          : RHF DLPNO-CCSD density
   Achintya Kumar Dutta   : EOM-CC, STEOM-CC
   Dmitry Ganyushin       : Spin-Orbit,Spin-Spin,Magnetic field MRCI
   Miquel Garcia          : C-PCM Hessian, Gaussian charge scheme
   Yang Guo               : DLPNO-NEVPT2, CIM, IAO-localization
   Andreas Hansen         : Spin unrestricted coupled pair/coupled cluster methods
   Benjamin Helmich-Paris : CASSCF linear response (MC-RPA)
   Lee Huntington         : MR-EOM, pCC
   Robert Izsak           : Overlap fitted RIJCOSX, COSX-SCS-MP3, EOM
   Christian Kollmar      : KDIIS, OOCD, Brueckner-CCSD(T), CCSD density
   Simone Kossmann        : Meta GGA functionals, TD-DFT gradient, OOMP2, MP2 Hessian
   Martin Krupicka        : AUTO-CI
   Lucas Lang             : DCDCAS
   Dagmar Lenk            : GEPOL surface, SMD
   Dimitrios Liakos       : Extrapolation schemes; Compound Job, initial MDCI parallelization
   Dimitrios Manganas     : Further ROCIS development; embedding schemes
   Dimitrios Pantazis     : SARC Basis sets
   Taras Petrenko         : DFT Hessian,TD-DFT gradient, ASA, ECA, R-Raman, ABS, FL, XAS/XES, NRVS
   Peter Pinski           : DLPNO-MP2, DLPNO-MP2 Gradient
   Christoph Reimann      : Effective Core Potentials
   Marius Retegan         : Local ZFS, SOC
   Christoph Riplinger    : Optimizer, TS searches, QM/MM, DLPNO-CCSD(T), (RO)-DLPNO pert. Triples
   Tobias Risthaus        : Range-separated hybrids, TD-DFT gradient, RPA, STAB
   Michael Roemelt        : Original ROCIS implementation
   Masaaki Saitow         : Open-shell DLPNO-CCSD energy and density
   Barbara Sandhoefer     : DKH picture change effects
   Avijit Sen             : IP-ROCIS
   Kantharuban Sivalingam : CASSCF convergence, NEVPT2, FIC-MRCI
   Bernardo de Souza      : ESD, SOC TD-DFT
   Georgi Stoychev        : AutoAux, RI-MP2 NMR
   Willem Van den Heuvel  : Paramagnetic NMR
   Boris Wezisla          : Elementary symmetry handling
   Frank Wennmohs         : Technical directorship


 We gratefully acknowledge several colleagues who have allowed us to
 interface, adapt or use parts of their codes:
   Stefan Grimme, W. Hujo, H. Kruse,             : VdW corrections, initial TS optimization,
                  C. Bannwarth                     DFT functionals, gCP, sTDA/sTD-DF
   Ed Valeev, F. Pavosevic, A. Kumar             : LibInt (2-el integral package), F12 methods
   Garnet Chan, S. Sharma, J. Yang, R. Olivares  : DMRG
   Ulf Ekstrom                                   : XCFun DFT Library
   Mihaly Kallay                                 : mrcc  (arbitrary order and MRCC methods)
   Andreas Klamt, Michael Diedenhofen            : otool_cosmo (COSMO solvation model)
   Jiri Pittner, Ondrej Demel                    : Mk-CCSD
   Frank Weinhold                                : gennbo (NPA and NBO analysis)
   Christopher J. Cramer and Donald G. Truhlar   : smd solvation model
   Lars Goerigk                                  : TD-DFT with DH, B97 family of functionals
   V. Asgeirsson, H. Jonsson                     : NEB implementation
   FAccTs GmbH                                   : IRC, NEB, NEB-TS, Multilevel, MM, QM/MM, CI optimization
   S Lehtola, MJT Oliveira, MAL Marques          : LibXC Library


 Your calculation uses the libint2 library for the computation of 2-el integrals
 For citations please refer to: http://libint.valeyev.net

 Your ORCA version has been built with support for libXC version: 4.2.3
 For citations please refer to: https://tddft.org/programs/libxc/

 This ORCA versions uses:
   CBLAS   interface :  Fast vector & matrix operations
   LAPACKE interface :  Fast linear algebra routines
   SCALAPACK package :  Parallel linear algebra routines


Your calculation utilizes the atom-pairwise dispersion correction
with the zero-damping scheme (D30)
Cite in your paper:
S.Grimme, J.Antony, S.Ehrlich and H.Krieg, J.Chem.Phys., 132, (2010), 154104 
   

XCFun DFT library Copyright 2009-2010 Ulf Ekstrom and contributors.
See http://admol.org/xcfun for more information. This is free soft-
ware; see the source code for copying conditions. There is ABSOLUTELY
NO WARRANTY; not even for MERCHANTABILITY or FITNESS FOR A PARTICULAR
PURPOSE. For details see the documentation. Scientific users of this 
library should cite U. Ekstrom, L. Visscher, R. Bast, A. J. Thorvald-
sen and K. Ruud; J.Chem.Theor.Comp. 2010, DOI: 10.1021/ct100117s
XCFun Version 0.99 
----- Orbital basis set information -----
Your calculation utilizes the basis: def2-TZVPPD
   F. Weigend and R. Ahlrichs, Phys. Chem. Chem. Phys. 7, 3297 (2005).
   D. Rappoport and F. Furche, J. Chem. Phys. 133 134105 (2010).

----- AuxJK basis set information -----
Your calculation utilizes the auxiliary basis: def2/JK
   H-Ba, Hf-Rn: F. Weigend, J. Comput. Chem. 29, 167 (2008).

================================================================================
                                        WARNINGS
                       Please study these warnings very carefully!
================================================================================


WARNING: your system is open-shell and RHF/RKS was chosen
  ===> : WILL SWITCH to UHF/UKS


WARNING: Minnesota functionals are quite sensitive to the integration grid.
         see SE Wheeler, KN Houk, JCTC 2010, 6, 395,
             N Mardirossian, M Head-Gordon, JCTC 2016, 12, 4303.
         Grid6 seems to be a minimum grid for reliable results with these functionals!
  ===> : Please increase the integration grid!


INFO   : the flag for use of LIBINT has been found!

================================================================================
                                       INPUT FILE
================================================================================
NAME = TMD17_CrS.in
|  1> #
|  2> # TMD17_CrS M06-D3/Def2-TZVPPD
|  3> #
|  4> ! m06 d3zero def2-tzvppd def2/jk grid4 nofinalgrid
|  5> 
|  6> *xyz 0 5
|  7> Cr       0.000000    0.000000    0.836000 
|  8> S        0.000000    0.000000   -1.254000 
|  9> *
| 10> 
| 11> %maxcore 5000
| 12> 
| 13> %pal
| 14> nprocs = 24
| 15> end
| 16> 
| 17> 
| 18>                          ****END OF INPUT****
================================================================================

                       ****************************
                       * Single Point Calculation *
                       ****************************

---------------------------------
CARTESIAN COORDINATES (ANGSTROEM)
---------------------------------
  Cr     0.000000    0.000000    0.836000
  S      0.000000    0.000000   -1.254000

----------------------------
CARTESIAN COORDINATES (A.U.)
----------------------------
  NO LB      ZA    FRAG     MASS         X           Y           Z
   0 Cr   24.0000    0    52.000    0.000000    0.000000    1.579811
   1 S    16.0000    0    32.060    0.000000    0.000000   -2.369717

--------------------------------
INTERNAL COORDINATES (ANGSTROEM)
--------------------------------
 Cr     0   0   0     0.000000000000     0.00000000     0.00000000
 S      1   0   0     2.090000000000     0.00000000     0.00000000

---------------------------
INTERNAL COORDINATES (A.U.)
---------------------------
 Cr     0   0   0     0.000000000000     0.00000000     0.00000000
 S      1   0   0     3.949527619895     0.00000000     0.00000000

---------------------
BASIS SET INFORMATION
---------------------
There are 2 groups of distinct atoms

 Group   1 Type Cr  : 17s13p7d2f1g contracted to 6s6p4d2f1g pattern {842111/631111/4111/11/1}
 Group   2 Type S   : 15s10p4d1f contracted to 6s6p4d1f pattern {732111/511111/1111/1}

Atom   0Cr   basis set group =>   1
Atom   1S    basis set group =>   2
----------------------------------
AUXILIARY/JK BASIS SET INFORMATION
----------------------------------
There are 2 groups of distinct atoms

 Group   1 Type Cr  : 19s14p12d10f7g3h1i contracted to 16s13p11d9f5g3h1i pattern {4111111111111111/2111111111111/21111111111/211111111/31111/111/1}
 Group   2 Type S   : 16s12p10d4f1g contracted to 13s11p9d4f1g pattern {4111111111111/21111111111/211111111/1111/1}

Atom   0Cr   basis set group =>   1
Atom   1S    basis set group =>   2


           ************************************************************
           *        Program running with 24 parallel MPI-processes    *
           *              working on a common directory               *
           ************************************************************
------------------------------------------------------------------------------
                           ORCA GTO INTEGRAL CALCULATION
------------------------------------------------------------------------------

                         BASIS SET STATISTICS AND STARTUP INFO

 # of primitive gaussian shells          ...   70
 # of primitive gaussian functions       ...  186
 # of contracted shells                  ...   36
 # of contracted basis functions         ...  118
 Highest angular momentum                ...    4
 Maximum contraction depth               ...    8
 Integral package used                   ... LIBINT
 Integral threshhold            Thresh   ...  1.000e-10
 Primitive cut-off              TCut     ...  1.000e-11


------------------------------ INTEGRAL EVALUATION ----------------------------


 * One electron integrals 
 Pre-screening matrix                    ... done
 Shell pair data                         ... done (   0.000 sec)



           ************************************************************
           *        Program running with 24 parallel MPI-processes    *
           *              working on a common directory               *
           ************************************************************
-------------------------------------------------------------------------------
                                 ORCA SCF
-------------------------------------------------------------------------------

------------
SCF SETTINGS
------------
Hamiltonian:
 Density Functional     Method          .... DFT(GTOs)
 Exchange Functional    Exchange        .... M06
 Correlation Functional Correlation     .... M06
 Gradients option       PostSCFGGA      .... off
 Hybrid DFT is turned on
   Fraction HF Exchange ScalHFX         ....  0.270000
   Scaling of DF-GGA-X  ScalDFX         ....  0.730000
   Scaling of DF-GGA-C  ScalDFC         ....  1.000000
   Scaling of DF-LDA-C  ScalLDAC        ....  1.000000
   Perturbative correction              ....  0.000000
   Density functional embedding theory  .... OFF


General Settings:
 Integral files         IntName         .... TMD17_CrS
 Hartree-Fock type      HFTyp           .... UHF
 Total Charge           Charge          ....    0
 Multiplicity           Mult            ....    5
 Number of Electrons    NEL             ....   40
 Basis Dimension        Dim             ....  118
 Nuclear Repulsion      ENuc            ....     97.2268172188 Eh

Convergence Acceleration:
 DIIS                   CNVDIIS         .... on
   Start iteration      DIISMaxIt       ....    12
   Startup error        DIISStart       ....  0.200000
   # of expansion vecs  DIISMaxEq       ....     5
   Bias factor          DIISBfac        ....   1.050
   Max. coefficient     DIISMaxC        ....  10.000
 Newton-Raphson         CNVNR           .... off
 SOSCF                  CNVSOSCF        .... off
 Level Shifting         CNVShift        .... on
   Level shift para.    LevelShift      ....    0.2500
   Turn off err/grad.   ShiftErr        ....    0.0010
 Zerner damping         CNVZerner       .... off
 Static damping         CNVDamp         .... on
   Fraction old density DampFac         ....    0.7000
   Max. Damping (<1)    DampMax         ....    0.9800
   Min. Damping (>=0)   DampMin         ....    0.0000
   Turn off err/grad.   DampErr         ....    0.1000
 Fernandez-Rico         CNVRico         .... off

SCF Procedure:
 Maximum # iterations   MaxIter         ....   125
 SCF integral mode      SCFMode         .... Direct
   Integral package                     .... LIBINT
 Reset frequency        DirectResetFreq ....    20
 Integral Threshold     Thresh          ....  1.000e-10 Eh
 Primitive CutOff       TCut            ....  1.000e-11 Eh

Convergence Tolerance:
 Convergence Check Mode ConvCheckMode   .... Total+1el-Energy
 Convergence forced     ConvForced      .... 0
 Energy Change          TolE            ....  1.000e-06 Eh
 1-El. energy change                    ....  1.000e-03 Eh
 DIIS Error             TolErr          ....  1.000e-06


Diagonalization of the overlap matrix:
Smallest eigenvalue                        ... 9.442e-04
Time for diagonalization                   ...    0.004 sec
Threshold for overlap eigenvalues          ... 1.000e-08
Number of eigenvalues below threshold      ... 0
Time for construction of square roots      ...    0.002 sec
Total time needed                          ...    0.006 sec

-------------------
DFT GRID GENERATION
-------------------

General Integration Accuracy     IntAcc      ...  4.670
Radial Grid Type                 RadialGrid  ... Gauss-Chebyshev
Angular Grid (max. acc.)         AngularGrid ... Lebedev-302
Angular grid pruning method      GridPruning ... 3 (G Style)
Weight generation scheme         WeightScheme... Becke
Basis function cutoff            BFCut       ...    1.0000e-10
Integration weight cutoff        WCut        ...    1.0000e-14
Grids for H and He will be reduced by one unit

# of grid points (after initial pruning)     ...  16510 (   0.0 sec)
# of grid points (after weights+screening)   ...  16481 (   0.0 sec)
nearest neighbour list constructed           ...    0.0 sec
Grid point re-assignment to atoms done       ...    0.0 sec
Grid point division into batches done        ...    0.1 sec
Reduced shell lists constructed in    0.1 sec

Total number of grid points                  ...    16481
Total number of batches                      ...      259
Average number of points per batch           ...       63
Average number of grid points per atom       ...     8240
Average number of shells per batch           ...     7.42 (20.60%)
Average number of basis functions per batch  ...    21.25 (18.01%)
Average number of large shells per batch     ...     5.58 (75.28%)
Average number of large basis fcns per batch ...    15.75 (74.12%)
Maximum spatial batch extension              ...  24.49, 24.19, 18.13 au
Average spatial batch extension              ...   0.84,  0.83,  0.65 au

Time for grid setup =    0.164 sec

------------------------------
INITIAL GUESS: MODEL POTENTIAL
------------------------------
Loading Hartree-Fock densities                     ... done
Calculating cut-offs                               ... done
Setting up the integral package                    ... done
Initializing the effective Hamiltonian             ... done
Starting the Coulomb interaction                   ... done (   0.0 sec)
Reading the grid                                   ... done
Mapping shells                                     ... done
Starting the XC term evaluation                    ... done (   0.0 sec)
  promolecular density results
     # of electrons  =     40.000003019
     EX              =    -72.079866642
     EC              =     -1.628939956
     EX+EC           =    -73.708806598
Transforming the Hamiltonian                       ... done (   0.0 sec)
Diagonalizing the Hamiltonian                      ... done (   0.0 sec)
Back transforming the eigenvectors                 ... done (   0.0 sec)
Now organizing SCF variables                       ... done
                      ------------------
                      INITIAL GUESS DONE (   0.2 sec)
                      ------------------
--------------
SCF ITERATIONS
--------------
ITER       Energy         Delta-E        Max-DP      RMS-DP      [F,P]     Damp
               ***  Starting incremental Fock matrix formation  ***
  0  -1442.4697230141   0.000000000000 0.05453156  0.00098832  0.1205934 0.7000
  1  -1442.5087431325  -0.039020118352 0.02583548  0.00059851  0.0547689 0.7000
                               ***Turning on DIIS***
  2  -1442.5228688385  -0.014125706013 0.03370783  0.00109237  0.0383858 0.0000
  3  -1442.5533941258  -0.030525287257 0.01868857  0.00049055  0.0389191 0.0000
  4  -1442.5625219491  -0.009127823311 0.01979953  0.00026242  0.0128153 0.0000
  5  -1442.5651451038  -0.002623154706 0.00891749  0.00020367  0.0082930 0.0000
  6  -1442.5671823302  -0.002037226395 0.01037879  0.00019783  0.0044181 0.0000
  7  -1442.5690386333  -0.001856303133 0.00967393  0.00020836  0.0065027 0.0000
  8  -1442.5707448694  -0.001706236122 0.01061488  0.00022339  0.0046622 0.0000
  9  -1442.5722265558  -0.001481686414 0.00918329  0.00019862  0.0035873 0.0000
 10  -1442.5732886092  -0.001062053316 0.00702699  0.00012426  0.0025979 0.0000
 11  -1442.5738770904  -0.000588481266 0.00734153  0.00017267  0.0031429 0.0000
 12  -1442.5744373687  -0.000560278268 0.00485980  0.00008551  0.0029410 0.0000
 13  -1442.5746856088  -0.000248240107 0.00469789  0.00011071  0.0014561 0.0000
 14  -1442.5748780260  -0.000192417238 0.00361502  0.00006845  0.0027189 0.0000
 15  -1442.5749775784  -0.000099552317 0.00229922  0.00005368  0.0020241 0.0000
 16  -1442.5750246196  -0.000047041206 0.00202903  0.00004273  0.0016377 0.0000
 17  -1442.5750511635  -0.000026543937 0.00104366  0.00002435  0.0011625 0.0000
 18  -1442.5750610650  -0.000009901545 0.00328815  0.00006429  0.0009104 0.0000
 19  -1442.5750664321  -0.000005367060 0.00118171  0.00002462  0.0004210 0.0000
               *** Restarting incremental Fock matrix formation ***
                                   *** Resetting DIIS ***
 20  -1442.5750693464  -0.000002914290 0.00052895  0.00000724  0.0001725 0.0000
 21  -1442.5750684869   0.000000859483 0.00029967  0.00000551  0.0005553 0.0000
 22  -1442.5750695315  -0.000001044627 0.00005701  0.00000134  0.0000685 0.0000
 23  -1442.5750695619  -0.000000030358 0.00005255  0.00000127  0.0000271 0.0000
                 **** Energy Check signals convergence ****

               *****************************************************
               *                     SUCCESS                       *
               *           SCF CONVERGED AFTER  24 CYCLES          *
               *****************************************************


----------------
TOTAL SCF ENERGY
----------------

Total Energy       :        -1442.57506957 Eh          -39254.46330 eV

Components:
Nuclear Repulsion  :           97.22681722 Eh            2645.67620 eV
Electronic Energy  :        -1539.80188679 Eh          -41900.13950 eV
One Electron Energy:        -2182.43538892 Eh          -59387.08611 eV
Two Electron Energy:          642.63350212 Eh           17486.94661 eV

Virial components:
Potential Energy   :        -2883.05114049 Eh          -78451.80995 eV
Kinetic Energy     :         1440.47607092 Eh           39197.34664 eV
Virial Ratio       :            2.00145716


DFT components:
N(Alpha)           :       21.999998002102 electrons
N(Beta)            :       17.999998055959 electrons
N(Total)           :       39.999996058061 electrons
E(XC)              :      -54.750274925669 Eh       
DFET-embed. en.    :        0.000000000000 Eh       

---------------
SCF CONVERGENCE
---------------

  Last Energy change         ...   -1.1919e-08  Tolerance :   1.0000e-06
  Last MAX-Density change    ...    3.4598e-05  Tolerance :   1.0000e-05
  Last RMS-Density change    ...    8.0859e-07  Tolerance :   1.0000e-06
  Last DIIS Error            ...    2.1011e-05  Tolerance :   1.0000e-06

             **** THE GBW FILE WAS UPDATED (TMD17_CrS.gbw) ****
             **** DENSITY FILE WAS UPDATED (TMD17_CrS.scfp) ****
             **** ENERGY FILE WAS UPDATED (TMD17_CrS.en.tmp) ****
----------------------
UHF SPIN CONTAMINATION
----------------------

Warning: in a DFT calculation there is little theoretical justification to 
         calculate <S**2> as in Hartree-Fock theory. We will do it anyways
         but you should keep in mind that the values have only limited relevance

Expectation value of <S**2>     :     6.504087
Ideal value S*(S+1) for S=2.0   :     6.000000
Deviation                       :     0.504087

             **** THE GBW FILE WAS UPDATED (TMD17_CrS.gbw) ****
             **** DENSITY FILE WAS UPDATED (TMD17_CrS.scfp) ****
----------------
ORBITAL ENERGIES
----------------
                 SPIN UP ORBITALS
  NO   OCC          E(Eh)            E(eV) 
   0   1.0000    -215.946976     -5876.2160 
   1   1.0000     -88.980653     -2421.2867 
   2   1.0000     -24.874177      -676.8608 
   3   1.0000     -21.095267      -574.0314 
   4   1.0000     -21.095096      -574.0268 
   5   1.0000     -21.089485      -573.8741 
   6   1.0000      -7.998555      -217.6518 
   7   1.0000      -5.914848      -160.9512 
   8   1.0000      -5.912200      -160.8791 
   9   1.0000      -5.910901      -160.8438 
  10   1.0000      -2.988781       -81.3289 
  11   1.0000      -1.921972       -52.2995 
  12   1.0000      -1.921508       -52.2869 
  13   1.0000      -1.914804       -52.1045 
  14   1.0000      -0.625731       -17.0270 
  15   1.0000      -0.297281        -8.0894 
  16   1.0000      -0.290067        -7.8931 
  17   1.0000      -0.268656        -7.3105 
  18   1.0000      -0.265744        -7.2313 
  19   1.0000      -0.264809        -7.2058 
  20   1.0000      -0.223916        -6.0931 
  21   1.0000      -0.196988        -5.3603 
  22   0.0000      -0.117610        -3.2003 
  23   0.0000      -0.083664        -2.2766 
  24   0.0000      -0.037160        -1.0112 
  25   0.0000      -0.036536        -0.9942 
  26   0.0000      -0.016428        -0.4470 
  27   0.0000       0.008295         0.2257 
  28   0.0000       0.027213         0.7405 
  29   0.0000       0.030251         0.8232 
  30   0.0000       0.044746         1.2176 
  31   0.0000       0.049169         1.3380 
  32   0.0000       0.051438         1.3997 
  33   0.0000       0.062674         1.7055 
  34   0.0000       0.063906         1.7390 
  35   0.0000       0.083816         2.2807 
  36   0.0000       0.104726         2.8497 
  37   0.0000       0.106779         2.9056 
  38   0.0000       0.156460         4.2575 
  39   0.0000       0.190385         5.1806 
  40   0.0000       0.191358         5.2071 
  41   0.0000       0.224951         6.1212 
  42   0.0000       0.240445         6.5428 
  43   0.0000       0.240885         6.5548 
  44   0.0000       0.245447         6.6790 
  45   0.0000       0.372664        10.1407 
  46   0.0000       0.373298        10.1580 
  47   0.0000       0.440921        11.9981 
  48   0.0000       0.450197        12.2505 
  49   0.0000       0.452683        12.3181 
  50   0.0000       0.455458        12.3936 
  51   0.0000       0.461166        12.5490 
  52   0.0000       0.496837        13.5196 
  53   0.0000       0.507915        13.8211 
  54   0.0000       0.514612        14.0033 
  55   0.0000       0.557063        15.1585 
  56   0.0000       0.564664        15.3653 
  57   0.0000       0.627052        17.0630 
  58   0.0000       0.628975        17.1153 
  59   0.0000       0.632617        17.2144 
  60   0.0000       0.695728        18.9317 
  61   0.0000       1.031920        28.0800 
  62   0.0000       1.430365        38.9222 
  63   0.0000       1.433478        39.0069 
  64   0.0000       1.461151        39.7599 
  65   0.0000       1.461173        39.7605 
  66   0.0000       1.504668        40.9441 
  67   0.0000       1.504676        40.9443 
  68   0.0000       1.545326        42.0505 
  69   0.0000       1.642172        44.6858 
  70   0.0000       1.650358        44.9085 
  71   0.0000       1.677547        45.6484 
  72   0.0000       1.681706        45.7615 
  73   0.0000       1.717122        46.7253 
  74   0.0000       1.724932        46.9378 
  75   0.0000       1.754599        47.7451 
  76   0.0000       1.778506        48.3956 
  77   0.0000       1.785545        48.5872 
  78   0.0000       1.821301        49.5601 
  79   0.0000       1.827205        49.7208 
  80   0.0000       1.899667        51.6926 
  81   0.0000       1.933545        52.6144 
  82   0.0000       1.958585        53.2958 
  83   0.0000       1.978671        53.8424 
  84   0.0000       2.016840        54.8810 
  85   0.0000       2.020941        54.9926 
  86   0.0000       2.063545        56.1519 
  87   0.0000       2.063615        56.1538 
  88   0.0000       2.068985        56.3000 
  89   0.0000       2.215109        60.2762 
  90   0.0000       2.342460        63.7416 
  91   0.0000       2.344934        63.8089 
  92   0.0000       3.125594        85.0517 
  93   0.0000       5.563129       151.3804 
  94   0.0000       5.563213       151.3827 
  95   0.0000       5.565877       151.4552 
  96   0.0000       5.565929       151.4566 
  97   0.0000       5.571093       151.5971 
  98   0.0000       5.571565       151.6100 
  99   0.0000       5.611250       152.6899 
 100   0.0000       5.613703       152.7566 
 101   0.0000       5.619382       152.9111 
 102   0.0000       6.178923       168.1371 
 103   0.0000       6.179008       168.1394 
 104   0.0000       6.188859       168.4074 
 105   0.0000       6.193198       168.5255 
 106   0.0000       6.315832       171.8625 
 107   0.0000       6.319480       171.9618 
 108   0.0000       6.449151       175.4903 
 109   0.0000       6.856737       186.5813 
 110   0.0000       6.861357       186.7070 
 111   0.0000       6.900990       187.7855 
 112   0.0000       6.911886       188.0820 
 113   0.0000       7.019492       191.0101 
 114   0.0000       9.059351       246.5175 
 115   0.0000       9.068882       246.7768 
 116   0.0000       9.298641       253.0289 
 117   0.0000      18.695409       508.7279 

                 SPIN DOWN ORBITALS
  NO   OCC          E(Eh)            E(eV) 
   0   1.0000    -215.945605     -5876.1786 
   1   1.0000     -88.984094     -2421.3803 
   2   1.0000     -24.831860      -675.7093 
   3   1.0000     -21.056647      -572.9805 
   4   1.0000     -21.053734      -572.9012 
   5   1.0000     -21.044151      -572.6405 
   6   1.0000      -8.002448      -217.7577 
   7   1.0000      -5.924576      -161.2159 
   8   1.0000      -5.917475      -161.0227 
   9   1.0000      -5.913791      -160.9224 
  10   1.0000      -2.809774       -76.4578 
  11   1.0000      -1.742335       -47.4113 
  12   1.0000      -1.729001       -47.0485 
  13   1.0000      -1.710821       -46.5538 
  14   1.0000      -0.656000       -17.8507 
  15   1.0000      -0.276106        -7.5132 
  16   1.0000      -0.265874        -7.2348 
  17   1.0000      -0.246775        -6.7151 
  18   0.0000      -0.056320        -1.5325 
  19   0.0000      -0.009880        -0.2688 
  20   0.0000      -0.003390        -0.0923 
  21   0.0000       0.001693         0.0461 
  22   0.0000       0.004805         0.1308 
  23   0.0000       0.009742         0.2651 
  24   0.0000       0.010337         0.2813 
  25   0.0000       0.014032         0.3818 
  26   0.0000       0.026850         0.7306 
  27   0.0000       0.032485         0.8840 
  28   0.0000       0.042327         1.1518 
  29   0.0000       0.055922         1.5217 
  30   0.0000       0.087753         2.3879 
  31   0.0000       0.095194         2.5904 
  32   0.0000       0.095261         2.5922 
  33   0.0000       0.121357         3.3023 
  34   0.0000       0.121427         3.3042 
  35   0.0000       0.136231         3.7070 
  36   0.0000       0.152092         4.1386 
  37   0.0000       0.161819         4.4033 
  38   0.0000       0.165280         4.4975 
  39   0.0000       0.198069         5.3897 
  40   0.0000       0.198198         5.3932 
  41   0.0000       0.250035         6.8038 
  42   0.0000       0.252374         6.8674 
  43   0.0000       0.260367         7.0849 
  44   0.0000       0.271143         7.3782 
  45   0.0000       0.409363        11.1393 
  46   0.0000       0.418922        11.3995 
  47   0.0000       0.459664        12.5081 
  48   0.0000       0.467750        12.7281 
  49   0.0000       0.470462        12.8019 
  50   0.0000       0.495452        13.4819 
  51   0.0000       0.496370        13.5069 
  52   0.0000       0.512681        13.9508 
  53   0.0000       0.544311        14.8114 
  54   0.0000       0.546973        14.8839 
  55   0.0000       0.547046        14.8859 
  56   0.0000       0.561370        15.2757 
  57   0.0000       0.630426        17.1548 
  58   0.0000       0.656227        17.8568 
  59   0.0000       0.674351        18.3500 
  60   0.0000       0.721391        19.6300 
  61   0.0000       1.037688        28.2369 
  62   0.0000       1.451710        39.5030 
  63   0.0000       1.457282        39.6547 
  64   0.0000       1.457411        39.6582 
  65   0.0000       1.466874        39.9157 
  66   0.0000       1.511458        41.1289 
  67   0.0000       1.511466        41.1291 
  68   0.0000       1.548657        42.1411 
  69   0.0000       1.634825        44.4858 
  70   0.0000       1.635482        44.5037 
  71   0.0000       1.650569        44.9143 
  72   0.0000       1.675462        45.5916 
  73   0.0000       1.695196        46.1286 
  74   0.0000       1.695385        46.1338 
  75   0.0000       1.745485        47.4971 
  76   0.0000       1.790658        48.7263 
  77   0.0000       1.806072        49.1457 
  78   0.0000       1.815841        49.4116 
  79   0.0000       1.816320        49.4246 
  80   0.0000       1.931517        52.5593 
  81   0.0000       1.940029        52.7909 
  82   0.0000       1.958449        53.2921 
  83   0.0000       1.968664        53.5701 
  84   0.0000       2.034444        55.3600 
  85   0.0000       2.051905        55.8352 
  86   0.0000       2.061605        56.0991 
  87   0.0000       2.112384        57.4809 
  88   0.0000       2.112880        57.4944 
  89   0.0000       2.237824        60.8943 
  90   0.0000       2.361258        64.2531 
  91   0.0000       2.379653        64.7537 
  92   0.0000       3.154794        85.8463 
  93   0.0000       5.636698       153.3824 
  94   0.0000       5.636847       153.3864 
  95   0.0000       5.637932       153.4159 
  96   0.0000       5.638006       153.4179 
  97   0.0000       5.639385       153.4555 
  98   0.0000       5.640637       153.4895 
  99   0.0000       5.677819       154.5013 
 100   0.0000       5.691817       154.8822 
 101   0.0000       5.694740       154.9618 
 102   0.0000       6.353171       172.8786 
 103   0.0000       6.353181       172.8788 
 104   0.0000       6.360723       173.0841 
 105   0.0000       6.360996       173.0915 
 106   0.0000       6.461522       175.8269 
 107   0.0000       6.479050       176.3039 
 108   0.0000       6.585830       179.2095 
 109   0.0000       6.848776       186.3647 
 110   0.0000       6.849332       186.3798 
 111   0.0000       6.888242       187.4386 
 112   0.0000       6.905344       187.9040 
 113   0.0000       7.019604       191.0131 
 114   0.0000       9.033872       245.8241 
 115   0.0000       9.062491       246.6029 
 116   0.0000       9.277665       252.4581 
 117   0.0000      18.683087       508.3926 

                    ********************************
                    * MULLIKEN POPULATION ANALYSIS *
                    ********************************

--------------------------------------------
MULLIKEN ATOMIC CHARGES AND SPIN POPULATIONS
--------------------------------------------
   0 Cr:    0.395928    4.706951
   1 S :   -0.395928   -0.706951
Sum of atomic charges         :   -0.0000000
Sum of atomic spin populations:    4.0000000

-----------------------------------------------------
MULLIKEN REDUCED ORBITAL CHARGES AND SPIN POPULATIONS
-----------------------------------------------------
CHARGE
  0 Crs       :     6.656601  s :     6.656601
      pz      :     4.071036  p :    12.204640
      px      :     4.081015
      py      :     4.052590
      dz2     :     0.919451  d :     4.738150
      dxz     :     0.960771
      dyz     :     0.859271
      dx2y2   :     0.999356
      dxy     :     0.999300
      f0      :     0.001424  f :     0.004601
      f+1     :     0.001711
      f-1     :     0.001374
      f+2     :     0.000040
      f-2     :     0.000043
      f+3     :     0.000004
      f-3     :     0.000004
      g0      :     0.000030  g :     0.000081
      g+1     :     0.000025
      g-1     :     0.000024
      g+2     :     0.000000
      g-2     :     0.000000
      g+3     :     0.000000
      g-3     :     0.000000
      g+4     :     0.000001
      g-4     :     0.000001
  1 S s       :     5.861028  s :     5.861028
      pz      :     3.475977  p :    10.486271
      px      :     3.622714
      py      :     3.387580
      dz2     :     0.012598  d :     0.043331
      dxz     :     0.014069
      dyz     :     0.015507
      dx2y2   :     0.000491
      dxy     :     0.000666
      f0      :     0.001654  f :     0.005298
      f+1     :     0.001576
      f-1     :     0.001670
      f+2     :     0.000138
      f-2     :     0.000165
      f+3     :     0.000043
      f-3     :     0.000051

SPIN
  0 Crs       :     0.401568  s :     0.401568
      pz      :    -0.006507  p :     0.034650
      px      :     0.032816
      py      :     0.008341
      dz2     :     0.735120  d :     4.271557
      dxz     :     0.817175
      dyz     :     0.720683
      dx2y2   :     0.999346
      dxy     :     0.999233
      f0      :    -0.000269  f :    -0.000804
      f+1     :    -0.000124
      f-1     :    -0.000482
      f+2     :     0.000039
      f-2     :     0.000036
      f+3     :    -0.000002
      f-3     :    -0.000002
      g0      :    -0.000002  g :    -0.000019
      g+1     :    -0.000009
      g-1     :    -0.000009
      g+2     :     0.000000
      g-2     :     0.000000
      g+3     :     0.000000
      g-3     :     0.000000
      g+4     :     0.000001
      g-4     :     0.000001
  1 S s       :    -0.018004  s :    -0.018004
      pz      :    -0.116834  p :    -0.706417
      px      :    -0.172769
      py      :    -0.416814
      dz2     :     0.004428  d :     0.014382
      dxz     :     0.003943
      dyz     :     0.005243
      dx2y2   :     0.000440
      dxy     :     0.000328
      f0      :     0.000832  f :     0.003088
      f+1     :     0.000938
      f-1     :     0.001144
      f+2     :     0.000131
      f-2     :     0.000116
      f+3     :    -0.000039
      f-3     :    -0.000033


                     *******************************
                     * LOEWDIN POPULATION ANALYSIS *
                     *******************************

-------------------------------------------
LOEWDIN ATOMIC CHARGES AND SPIN POPULATIONS
-------------------------------------------
   0 Cr:    0.088648    4.497207
   1 S :   -0.088648   -0.497207

----------------------------------------------------
LOEWDIN REDUCED ORBITAL CHARGES AND SPIN POPULATIONS
----------------------------------------------------
CHARGE
  0 Crs       :     6.401153  s :     6.401153
      pz      :     4.221057  p :    12.452454
      px      :     4.137222
      py      :     4.094175
      dz2     :     1.086655  d :     5.036167
      dxz     :     1.033413
      dyz     :     0.923403
      dx2y2   :     0.996369
      dxy     :     0.996327
      f0      :     0.011337  f :     0.021273
      f+1     :     0.005418
      f-1     :     0.004395
      f+2     :     0.000056
      f-2     :     0.000058
      f+3     :     0.000004
      f-3     :     0.000004
      g0      :     0.000175  g :     0.000304
      g+1     :     0.000068
      g-1     :     0.000060
      g+2     :     0.000000
      g-2     :     0.000000
      g+3     :     0.000000
      g-3     :     0.000000
      g+4     :     0.000001
      g-4     :     0.000001
  1 S s       :     5.597888  s :     5.597888
      pz      :     3.598877  p :    10.353782
      px      :     3.482641
      py      :     3.272264
      dz2     :     0.075822  d :     0.123318
      dxz     :     0.020061
      dyz     :     0.020857
      dx2y2   :     0.003208
      dxy     :     0.003369
      f0      :     0.006835  f :     0.013661
      f+1     :     0.003058
      f-1     :     0.002861
      f+2     :     0.000393
      f-2     :     0.000419
      f+3     :     0.000043
      f-3     :     0.000051

SPIN
  0 Crs       :     0.279821  s :     0.279821
      pz      :    -0.010594  p :     0.021201
      px      :     0.035855
      py      :    -0.004061
      dz2     :     0.729113  d :     4.198764
      dxz     :     0.791474
      dyz     :     0.685559
      dx2y2   :     0.996358
      dxy     :     0.996260
      f0      :    -0.000864  f :    -0.002528
      f+1     :    -0.000344
      f-1     :    -0.001421
      f+2     :     0.000055
      f-2     :     0.000051
      f+3     :    -0.000002
      f-3     :    -0.000002
      g0      :    -0.000016  g :    -0.000052
      g+1     :    -0.000015
      g-1     :    -0.000023
      g+2     :     0.000000
      g-2     :    -0.000000
      g+3     :     0.000000
      g-3     :     0.000000
      g+4     :     0.000001
      g-4     :     0.000001
  1 S s       :     0.022302  s :     0.022302
      pz      :    -0.038058  p :    -0.573309
      px      :    -0.158767
      py      :    -0.376484
      dz2     :     0.016696  d :     0.046227
      dxz     :     0.011222
      dyz     :     0.012121
      dx2y2   :     0.003157
      dxy     :     0.003032
      f0      :     0.001931  f :     0.007573
      f+1     :     0.002545
      f-1     :     0.002414
      f+2     :     0.000385
      f-2     :     0.000369
      f+3     :    -0.000039
      f-3     :    -0.000033


                      *****************************
                      * MAYER POPULATION ANALYSIS *
                      *****************************

  NA   - Mulliken gross atomic population
  ZA   - Total nuclear charge
  QA   - Mulliken gross atomic charge
  VA   - Mayer's total valence
  BVA  - Mayer's bonded valence
  FA   - Mayer's free valence

  ATOM       NA         ZA         QA         VA         BVA        FA
  0 Cr    23.6041    24.0000     0.3959     6.1045     1.8073     4.2972
  1 S     16.3959    16.0000    -0.3959     2.2342     1.8073     0.4269

  Mayer bond orders larger than 0.100000
B(  0-Cr,  1-S ) :   1.8073 

-------
TIMINGS
-------

Total SCF time: 0 days 0 hours 0 min 5 sec 

Total time                  ....       5.219 sec
Sum of individual times     ....       4.967 sec  ( 95.2%)

Fock matrix formation       ....       4.579 sec  ( 87.7%)
  XC integration            ....       0.620 sec  ( 13.5% of F)
    Basis function eval.    ....       0.035 sec  (  5.6% of XC)
    Density eval.           ....       0.084 sec  ( 13.6% of XC)
    XC-Functional eval.     ....       0.113 sec  ( 18.2% of XC)
    XC-Potential eval.      ....       0.198 sec  ( 31.9% of XC)
Diagonalization             ....       0.088 sec  (  1.7%)
Density matrix formation    ....       0.014 sec  (  0.3%)
Population analysis         ....       0.006 sec  (  0.1%)
Initial guess               ....       0.084 sec  (  1.6%)
Orbital Transformation      ....       0.000 sec  (  0.0%)
Orbital Orthonormalization  ....       0.000 sec  (  0.0%)
DIIS solution               ....       0.032 sec  (  0.6%)
Grid generation             ....       0.164 sec  (  3.1%)


-------------------------------------------------------------------------------
                          DFT DISPERSION CORRECTION                            
                                                                               
                              DFTD3 V3.1  Rev 1                                
                              USING zero damping                               
-------------------------------------------------------------------------------
The M06 functional is recognized
Active option DFTDOPT                   ...         3   

molecular C6(AA) [au] = 900.458284 


            DFT-D V3
 parameters
 s6 scaling factor         :     1.0000 
 rs6 scaling factor        :     1.3250 
 s8 scaling factor         :     0.0000 
 rs8 scaling factor        :     1.0000 
 Damping factor alpha6     :    14.0000 
 Damping factor alpha8     :    16.0000 
 ad hoc parameters k1-k3   :    16.0000     1.3333    -4.0000 

 Edisp/kcal,au: -0.000204833400  -0.000000326423 
 E6   /kcal   :  -0.000204833 
 E8   /kcal   :  -0.000000000 
 % E8         :   0.000000000 

-------------------------   ----------------
Dispersion correction           -0.000000326
-------------------------   ----------------


-------------------------   --------------------
FINAL SINGLE POINT ENERGY     -1442.575069900244
-------------------------   --------------------


                            ***************************************
                            *     ORCA property calculations      *
                            ***************************************

                                    ---------------------
                                    Active property flags
                                    ---------------------
   (+) Dipole Moment


------------------------------------------------------------------------------
                       ORCA ELECTRIC PROPERTIES CALCULATION
------------------------------------------------------------------------------

Dipole Moment Calculation                       ... on
Quadrupole Moment Calculation                   ... off
Polarizability Calculation                      ... off
GBWName                                         ... TMD17_CrS.gbw
Electron density file                           ... TMD17_CrS.scfp
The origin for moment calculation is the CENTER OF MASS  = ( 0.000000,  0.000000  0.073484)

-------------
DIPOLE MOMENT
-------------
                                X             Y             Z
Electronic contribution:      0.00000       0.00000       5.15130
Nuclear contribution   :      0.00000       0.00000      -2.93936
                        -----------------------------------------
Total Dipole Moment    :      0.00000       0.00000       2.21194
                        -----------------------------------------
Magnitude (a.u.)       :      2.21194
Magnitude (Debye)      :      5.62231



--------------------
Rotational spectrum 
--------------------
 
Rotational constants in cm-1:     0.000000     0.194593     0.194593 
Rotational constants in MHz :     0.000000  5833.746532  5833.746532 

 Dipole components along the rotational axes: 
x,y,z [a.u.] :     2.211943     0.000000     0.000000 
x,y,z [Debye]:     5.622313     0.000000     0.000000 

 

Timings for individual modules:

Sum of individual times         ...        6.307 sec (=   0.105 min)
GTO integral calculation        ...        0.711 sec (=   0.012 min)  11.3 %
SCF iterations                  ...        5.597 sec (=   0.093 min)  88.7 %
                             ****ORCA TERMINATED NORMALLY****
TOTAL RUN TIME: 0 days 0 hours 0 minutes 6 seconds 845 msec
