
                                 *****************
                                 * O   R   C   A *
                                 *****************

           --- An Ab Initio, DFT and Semiempirical electronic structure package ---

                  #######################################################
                  #                        -***-                        #
                  #          Department of theory and spectroscopy      #
                  #               Directorship: Frank Neese             #
                  #        Max Planck Institute fuer Kohlenforschung    #
                  #                Kaiser Wilhelm Platz 1               #
                  #                 D-45470 Muelheim/Ruhr               #
                  #                      Germany                        #
                  #                                                     #
                  #                  All rights reserved                #
                  #                        -***-                        #
                  #######################################################


                         Program Version 4.2.0 -  RELEASE  -


 With contributions from (in alphabetic order):
   Daniel Aravena         : Magnetic Suceptibility
   Michael Atanasov       : Ab Initio Ligand Field Theory (pilot matlab implementation)
   Alexander A. Auer      : GIAO ZORA, VPT2
   Ute Becker             : Parallelization
   Giovanni Bistoni       : ED, misc. LED, open-shell LED, HFLED
   Martin Brehm           : Molecular dynamics
   Dmytro Bykov           : SCF Hessian
   Vijay G. Chilkuri      : MRCI spin determinant printing, contributions to CSF-ICE
   Dipayan Datta          : RHF DLPNO-CCSD density
   Achintya Kumar Dutta   : EOM-CC, STEOM-CC
   Dmitry Ganyushin       : Spin-Orbit,Spin-Spin,Magnetic field MRCI
   Miquel Garcia          : C-PCM Hessian, Gaussian charge scheme
   Yang Guo               : DLPNO-NEVPT2, CIM, IAO-localization
   Andreas Hansen         : Spin unrestricted coupled pair/coupled cluster methods
   Benjamin Helmich-Paris : CASSCF linear response (MC-RPA)
   Lee Huntington         : MR-EOM, pCC
   Robert Izsak           : Overlap fitted RIJCOSX, COSX-SCS-MP3, EOM
   Christian Kollmar      : KDIIS, OOCD, Brueckner-CCSD(T), CCSD density
   Simone Kossmann        : Meta GGA functionals, TD-DFT gradient, OOMP2, MP2 Hessian
   Martin Krupicka        : AUTO-CI
   Lucas Lang             : DCDCAS
   Dagmar Lenk            : GEPOL surface, SMD
   Dimitrios Liakos       : Extrapolation schemes; Compound Job, initial MDCI parallelization
   Dimitrios Manganas     : Further ROCIS development; embedding schemes
   Dimitrios Pantazis     : SARC Basis sets
   Taras Petrenko         : DFT Hessian,TD-DFT gradient, ASA, ECA, R-Raman, ABS, FL, XAS/XES, NRVS
   Peter Pinski           : DLPNO-MP2, DLPNO-MP2 Gradient
   Christoph Reimann      : Effective Core Potentials
   Marius Retegan         : Local ZFS, SOC
   Christoph Riplinger    : Optimizer, TS searches, QM/MM, DLPNO-CCSD(T), (RO)-DLPNO pert. Triples
   Tobias Risthaus        : Range-separated hybrids, TD-DFT gradient, RPA, STAB
   Michael Roemelt        : Original ROCIS implementation
   Masaaki Saitow         : Open-shell DLPNO-CCSD energy and density
   Barbara Sandhoefer     : DKH picture change effects
   Avijit Sen             : IP-ROCIS
   Kantharuban Sivalingam : CASSCF convergence, NEVPT2, FIC-MRCI
   Bernardo de Souza      : ESD, SOC TD-DFT
   Georgi Stoychev        : AutoAux, RI-MP2 NMR
   Willem Van den Heuvel  : Paramagnetic NMR
   Boris Wezisla          : Elementary symmetry handling
   Frank Wennmohs         : Technical directorship


 We gratefully acknowledge several colleagues who have allowed us to
 interface, adapt or use parts of their codes:
   Stefan Grimme, W. Hujo, H. Kruse,             : VdW corrections, initial TS optimization,
                  C. Bannwarth                     DFT functionals, gCP, sTDA/sTD-DF
   Ed Valeev, F. Pavosevic, A. Kumar             : LibInt (2-el integral package), F12 methods
   Garnet Chan, S. Sharma, J. Yang, R. Olivares  : DMRG
   Ulf Ekstrom                                   : XCFun DFT Library
   Mihaly Kallay                                 : mrcc  (arbitrary order and MRCC methods)
   Andreas Klamt, Michael Diedenhofen            : otool_cosmo (COSMO solvation model)
   Jiri Pittner, Ondrej Demel                    : Mk-CCSD
   Frank Weinhold                                : gennbo (NPA and NBO analysis)
   Christopher J. Cramer and Donald G. Truhlar   : smd solvation model
   Lars Goerigk                                  : TD-DFT with DH, B97 family of functionals
   V. Asgeirsson, H. Jonsson                     : NEB implementation
   FAccTs GmbH                                   : IRC, NEB, NEB-TS, Multilevel, MM, QM/MM, CI optimization
   S Lehtola, MJT Oliveira, MAL Marques          : LibXC Library


 Your calculation uses the libint2 library for the computation of 2-el integrals
 For citations please refer to: http://libint.valeyev.net

 Your ORCA version has been built with support for libXC version: 4.2.3
 For citations please refer to: https://tddft.org/programs/libxc/

 This ORCA versions uses:
   CBLAS   interface :  Fast vector & matrix operations
   LAPACKE interface :  Fast linear algebra routines
   SCALAPACK package :  Parallel linear algebra routines


Your calculation utilizes the atom-pairwise dispersion correction
with the zero-damping scheme (D30)
Cite in your paper:
S.Grimme, J.Antony, S.Ehrlich and H.Krieg, J.Chem.Phys., 132, (2010), 154104 
   

XCFun DFT library Copyright 2009-2010 Ulf Ekstrom and contributors.
See http://admol.org/xcfun for more information. This is free soft-
ware; see the source code for copying conditions. There is ABSOLUTELY
NO WARRANTY; not even for MERCHANTABILITY or FITNESS FOR A PARTICULAR
PURPOSE. For details see the documentation. Scientific users of this 
library should cite U. Ekstrom, L. Visscher, R. Bast, A. J. Thorvald-
sen and K. Ruud; J.Chem.Theor.Comp. 2010, DOI: 10.1021/ct100117s
XCFun Version 0.99 
----- Orbital basis set information -----
Your calculation utilizes the basis: def2-TZVPPD
   F. Weigend and R. Ahlrichs, Phys. Chem. Chem. Phys. 7, 3297 (2005).
   D. Rappoport and F. Furche, J. Chem. Phys. 133 134105 (2010).

----- AuxJK basis set information -----
Your calculation utilizes the auxiliary basis: def2/JK
   H-Ba, Hf-Rn: F. Weigend, J. Comput. Chem. 29, 167 (2008).

================================================================================
                                        WARNINGS
                       Please study these warnings very carefully!
================================================================================


WARNING: your system is open-shell and RHF/RKS was chosen
  ===> : WILL SWITCH to UHF/UKS


WARNING: Minnesota functionals are quite sensitive to the integration grid.
         see SE Wheeler, KN Houk, JCTC 2010, 6, 395,
             N Mardirossian, M Head-Gordon, JCTC 2016, 12, 4303.
         Grid6 seems to be a minimum grid for reliable results with these functionals!
  ===> : Please increase the integration grid!


INFO   : the flag for use of LIBINT has been found!

================================================================================
                                       INPUT FILE
================================================================================
NAME = TMD19_FeCl.in
|  1> #
|  2> # TMD19_FeCl M06-D3/Def2-TZVPPD
|  3> #
|  4> ! m06 d3zero def2-tzvppd def2/jk grid4 nofinalgrid
|  5> 
|  6> *xyz 0 6
|  7> Fe       0.000000    0.000000    0.869767 
|  8> Cl       0.000000    0.000000   -1.330233 
|  9> *
| 10> 
| 11> %maxcore 5000
| 12> 
| 13> %pal
| 14> nprocs = 24
| 15> end
| 16> 
| 17> 
| 18>                          ****END OF INPUT****
================================================================================

                       ****************************
                       * Single Point Calculation *
                       ****************************

---------------------------------
CARTESIAN COORDINATES (ANGSTROEM)
---------------------------------
  Fe     0.000000    0.000000    0.869767
  Cl     0.000000    0.000000   -1.330233

----------------------------
CARTESIAN COORDINATES (A.U.)
----------------------------
  NO LB      ZA    FRAG     MASS         X           Y           Z
   0 Fe   26.0000    0    55.850    0.000000    0.000000    1.643621
   1 Cl   17.0000    0    35.453    0.000000    0.000000   -2.513776

--------------------------------
INTERNAL COORDINATES (ANGSTROEM)
--------------------------------
 Fe     0   0   0     0.000000000000     0.00000000     0.00000000
 Cl     1   0   0     2.200000000000     0.00000000     0.00000000

---------------------------
INTERNAL COORDINATES (A.U.)
---------------------------
 Fe     0   0   0     0.000000000000     0.00000000     0.00000000
 Cl     1   0   0     4.157397494627     0.00000000     0.00000000

---------------------
BASIS SET INFORMATION
---------------------
There are 2 groups of distinct atoms

 Group   1 Type Fe  : 17s13p7d2f1g contracted to 6s6p4d2f1g pattern {842111/631111/4111/11/1}
 Group   2 Type Cl  : 15s10p4d1f contracted to 6s6p4d1f pattern {732111/511111/1111/1}

Atom   0Fe   basis set group =>   1
Atom   1Cl   basis set group =>   2
----------------------------------
AUXILIARY/JK BASIS SET INFORMATION
----------------------------------
There are 2 groups of distinct atoms

 Group   1 Type Fe  : 19s14p12d10f7g3h1i contracted to 16s13p11d9f5g3h1i pattern {4111111111111111/2111111111111/21111111111/211111111/31111/111/1}
 Group   2 Type Cl  : 16s12p10d4f1g contracted to 13s11p9d4f1g pattern {4111111111111/21111111111/211111111/1111/1}

Atom   0Fe   basis set group =>   1
Atom   1Cl   basis set group =>   2


           ************************************************************
           *        Program running with 24 parallel MPI-processes    *
           *              working on a common directory               *
           ************************************************************
------------------------------------------------------------------------------
                           ORCA GTO INTEGRAL CALCULATION
------------------------------------------------------------------------------

                         BASIS SET STATISTICS AND STARTUP INFO

 # of primitive gaussian shells          ...   70
 # of primitive gaussian functions       ...  186
 # of contracted shells                  ...   36
 # of contracted basis functions         ...  118
 Highest angular momentum                ...    4
 Maximum contraction depth               ...    8
 Integral package used                   ... LIBINT
 Integral threshhold            Thresh   ...  1.000e-10
 Primitive cut-off              TCut     ...  1.000e-11


------------------------------ INTEGRAL EVALUATION ----------------------------


 * One electron integrals 
 Pre-screening matrix                    ... done
 Shell pair data                         ... done (   0.000 sec)



           ************************************************************
           *        Program running with 24 parallel MPI-processes    *
           *              working on a common directory               *
           ************************************************************
-------------------------------------------------------------------------------
                                 ORCA SCF
-------------------------------------------------------------------------------

------------
SCF SETTINGS
------------
Hamiltonian:
 Density Functional     Method          .... DFT(GTOs)
 Exchange Functional    Exchange        .... M06
 Correlation Functional Correlation     .... M06
 Gradients option       PostSCFGGA      .... off
 Hybrid DFT is turned on
   Fraction HF Exchange ScalHFX         ....  0.270000
   Scaling of DF-GGA-X  ScalDFX         ....  0.730000
   Scaling of DF-GGA-C  ScalDFC         ....  1.000000
   Scaling of DF-LDA-C  ScalLDAC        ....  1.000000
   Perturbative correction              ....  0.000000
   Density functional embedding theory  .... OFF


General Settings:
 Integral files         IntName         .... TMD19_FeCl
 Hartree-Fock type      HFTyp           .... UHF
 Total Charge           Charge          ....    0
 Multiplicity           Mult            ....    6
 Number of Electrons    NEL             ....   43
 Basis Dimension        Dim             ....  118
 Nuclear Repulsion      ENuc            ....    106.3165118494 Eh

Convergence Acceleration:
 DIIS                   CNVDIIS         .... on
   Start iteration      DIISMaxIt       ....    12
   Startup error        DIISStart       ....  0.200000
   # of expansion vecs  DIISMaxEq       ....     5
   Bias factor          DIISBfac        ....   1.050
   Max. coefficient     DIISMaxC        ....  10.000
 Newton-Raphson         CNVNR           .... off
 SOSCF                  CNVSOSCF        .... off
 Level Shifting         CNVShift        .... on
   Level shift para.    LevelShift      ....    0.2500
   Turn off err/grad.   ShiftErr        ....    0.0010
 Zerner damping         CNVZerner       .... off
 Static damping         CNVDamp         .... on
   Fraction old density DampFac         ....    0.7000
   Max. Damping (<1)    DampMax         ....    0.9800
   Min. Damping (>=0)   DampMin         ....    0.0000
   Turn off err/grad.   DampErr         ....    0.1000
 Fernandez-Rico         CNVRico         .... off

SCF Procedure:
 Maximum # iterations   MaxIter         ....   125
 SCF integral mode      SCFMode         .... Direct
   Integral package                     .... LIBINT
 Reset frequency        DirectResetFreq ....    20
 Integral Threshold     Thresh          ....  1.000e-10 Eh
 Primitive CutOff       TCut            ....  1.000e-11 Eh

Convergence Tolerance:
 Convergence Check Mode ConvCheckMode   .... Total+1el-Energy
 Convergence forced     ConvForced      .... 0
 Energy Change          TolE            ....  1.000e-06 Eh
 1-El. energy change                    ....  1.000e-03 Eh
 DIIS Error             TolErr          ....  1.000e-06


Diagonalization of the overlap matrix:
Smallest eigenvalue                        ... 2.470e-03
Time for diagonalization                   ...    0.003 sec
Threshold for overlap eigenvalues          ... 1.000e-08
Number of eigenvalues below threshold      ... 0
Time for construction of square roots      ...    0.001 sec
Total time needed                          ...    0.004 sec

-------------------
DFT GRID GENERATION
-------------------

General Integration Accuracy     IntAcc      ...  4.670
Radial Grid Type                 RadialGrid  ... Gauss-Chebyshev
Angular Grid (max. acc.)         AngularGrid ... Lebedev-302
Angular grid pruning method      GridPruning ... 3 (G Style)
Weight generation scheme         WeightScheme... Becke
Basis function cutoff            BFCut       ...    1.0000e-10
Integration weight cutoff        WCut        ...    1.0000e-14
Grids for H and He will be reduced by one unit

# of grid points (after initial pruning)     ...  16378 (   0.0 sec)
# of grid points (after weights+screening)   ...  16351 (   0.0 sec)
nearest neighbour list constructed           ...    0.0 sec
Grid point re-assignment to atoms done       ...    0.0 sec
Grid point division into batches done        ...    0.1 sec
Reduced shell lists constructed in    0.1 sec

Total number of grid points                  ...    16351
Total number of batches                      ...      256
Average number of points per batch           ...       63
Average number of grid points per atom       ...     8176
Average number of shells per batch           ...     6.33 (17.59%)
Average number of basis functions per batch  ...    18.00 (15.25%)
Average number of large shells per batch     ...     3.92 (61.84%)
Average number of large basis fcns per batch ...    10.75 (59.72%)
Maximum spatial batch extension              ...  24.49, 24.19, 18.13 au
Average spatial batch extension              ...   0.85,  0.84,  0.66 au

Time for grid setup =    0.210 sec

------------------------------
INITIAL GUESS: MODEL POTENTIAL
------------------------------
Loading Hartree-Fock densities                     ... done
Calculating cut-offs                               ... done
Setting up the integral package                    ... done
Initializing the effective Hamiltonian             ... done
Starting the Coulomb interaction                   ... done (   0.0 sec)
Reading the grid                                   ... done
Mapping shells                                     ... done
Starting the XC term evaluation                    ... done (   0.0 sec)
  promolecular density results
     # of electrons  =     42.999992190
     EX              =    -81.465879759
     EC              =     -1.805133777
     EX+EC           =    -83.271013536
Transforming the Hamiltonian                       ... done (   0.0 sec)
Diagonalizing the Hamiltonian                      ... done (   0.0 sec)
Back transforming the eigenvectors                 ... done (   0.0 sec)
Now organizing SCF variables                       ... done
                      ------------------
                      INITIAL GUESS DONE (   0.3 sec)
                      ------------------
--------------
SCF ITERATIONS
--------------
ITER       Energy         Delta-E        Max-DP      RMS-DP      [F,P]     Damp
               ***  Starting incremental Fock matrix formation  ***
  0  -1723.8140993325   0.000000000000 0.04900520  0.00061595  0.0851813 0.7000
  1  -1723.8298366606  -0.015737328109 0.03819913  0.00042578  0.0397061 0.7000
                               ***Turning on DIIS***
  2  -1723.8367450560  -0.006908395346 0.07571274  0.00090275  0.0391903 0.0000
  3  -1723.8559706781  -0.019225622190 0.01047411  0.00026534  0.0139918 0.0000
  4  -1723.8581065754  -0.002135897259 0.02104018  0.00019775  0.0109144 0.0000
  5  -1723.8588996053  -0.000793029926 0.01664723  0.00015723  0.0048501 0.0000
  6  -1723.8592589150  -0.000359309720 0.01107833  0.00010237  0.0044808 0.0000
  7  -1723.8594048988  -0.000145983753 0.00675253  0.00006422  0.0013800 0.0000
  8  -1723.8594551234  -0.000050224650 0.00620801  0.00007403  0.0009286 0.0000
  9  -1723.8594752421  -0.000020118691 0.00124790  0.00001244  0.0011856 0.0000
 10  -1723.8594777187  -0.000002476576 0.00062024  0.00000991  0.0002488 0.0000
 11  -1723.8594779742  -0.000000255472 0.00009906  0.00000222  0.0000653 0.0000
 12  -1723.8594780030  -0.000000028778 0.00009366  0.00000189  0.0000318 0.0000
                 **** Energy Check signals convergence ****

               *****************************************************
               *                     SUCCESS                       *
               *           SCF CONVERGED AFTER  13 CYCLES          *
               *****************************************************


----------------
TOTAL SCF ENERGY
----------------

Total Energy       :        -1723.85947800 Eh          -46908.60118 eV

Components:
Nuclear Repulsion  :          106.31651185 Eh            2893.01937 eV
Electronic Energy  :        -1830.17598985 Eh          -49801.62055 eV
One Electron Energy:        -2592.56950265 Eh          -70547.40273 eV
Two Electron Energy:          762.39351279 Eh           20745.78218 eV

Virial components:
Potential Energy   :        -3445.33485478 Eh          -93752.32767 eV
Kinetic Energy     :         1721.47537678 Eh           46843.72649 eV
Virial Ratio       :            2.00138492


DFT components:
N(Alpha)           :       23.999998424709 electrons
N(Beta)            :       18.999999742476 electrons
N(Total)           :       42.999998167185 electrons
E(XC)              :      -61.715250649320 Eh       
DFET-embed. en.    :        0.000000000000 Eh       

---------------
SCF CONVERGENCE
---------------

  Last Energy change         ...    6.3369e-10  Tolerance :   1.0000e-06
  Last MAX-Density change    ...    1.5493e-04  Tolerance :   1.0000e-05
  Last RMS-Density change    ...    2.1246e-06  Tolerance :   1.0000e-06
  Last DIIS Error            ...    7.6116e-05  Tolerance :   1.0000e-06

             **** THE GBW FILE WAS UPDATED (TMD19_FeCl.gbw) ****
             **** DENSITY FILE WAS UPDATED (TMD19_FeCl.scfp) ****
             **** ENERGY FILE WAS UPDATED (TMD19_FeCl.en.tmp) ****
----------------------
UHF SPIN CONTAMINATION
----------------------

Warning: in a DFT calculation there is little theoretical justification to 
         calculate <S**2> as in Hartree-Fock theory. We will do it anyways
         but you should keep in mind that the values have only limited relevance

Expectation value of <S**2>     :     8.761356
Ideal value S*(S+1) for S=2.5   :     8.750000
Deviation                       :     0.011356

             **** THE GBW FILE WAS UPDATED (TMD19_FeCl.gbw) ****
             **** DENSITY FILE WAS UPDATED (TMD19_FeCl.scfp) ****
----------------
ORBITAL ENERGIES
----------------
                 SPIN UP ORBITALS
  NO   OCC          E(Eh)            E(eV) 
   0   1.0000    -256.416572     -6977.4496 
   1   1.0000    -101.686238     -2767.0232 
   2   1.0000     -30.361245      -826.1715 
   3   1.0000     -26.157318      -711.7768 
   4   1.0000     -26.132436      -711.0997 
   5   1.0000     -26.132436      -711.0997 
   6   1.0000      -9.562274      -260.2027 
   7   1.0000      -7.267209      -197.7508 
   8   1.0000      -7.265025      -197.6914 
   9   1.0000      -7.265025      -197.6914 
  10   1.0000      -3.711960      -101.0076 
  11   1.0000      -2.488066       -67.7037 
  12   1.0000      -2.440695       -66.4147 
  13   1.0000      -2.440695       -66.4147 
  14   1.0000      -0.812041       -22.0968 
  15   1.0000      -0.474231       -12.9045 
  16   1.0000      -0.459410       -12.5012 
  17   1.0000      -0.459410       -12.5012 
  18   1.0000      -0.433507       -11.7963 
  19   1.0000      -0.411374       -11.1941 
  20   1.0000      -0.358529        -9.7561 
  21   1.0000      -0.319478        -8.6934 
  22   1.0000      -0.319478        -8.6934 
  23   1.0000      -0.205404        -5.5893 
  24   0.0000      -0.042178        -1.1477 
  25   0.0000      -0.042178        -1.1477 
  26   0.0000      -0.020069        -0.5461 
  27   0.0000       0.009390         0.2555 
  28   0.0000       0.026246         0.7142 
  29   0.0000       0.026246         0.7142 
  30   0.0000       0.041593         1.1318 
  31   0.0000       0.041593         1.1318 
  32   0.0000       0.066240         1.8025 
  33   0.0000       0.102790         2.7971 
  34   0.0000       0.144527         3.9328 
  35   0.0000       0.145482         3.9588 
  36   0.0000       0.180850         4.9212 
  37   0.0000       0.181725         4.9450 
  38   0.0000       0.181725         4.9450 
  39   0.0000       0.223742         6.0883 
  40   0.0000       0.224282         6.1030 
  41   0.0000       0.269187         7.3249 
  42   0.0000       0.279088         7.5944 
  43   0.0000       0.287237         7.8161 
  44   0.0000       0.287237         7.8161 
  45   0.0000       0.478456        13.0195 
  46   0.0000       0.478456        13.0195 
  47   0.0000       0.488259        13.2862 
  48   0.0000       0.517782        14.0896 
  49   0.0000       0.517782        14.0896 
  50   0.0000       0.580983        15.8093 
  51   0.0000       0.599444        16.3117 
  52   0.0000       0.599444        16.3117 
  53   0.0000       0.604378        16.4460 
  54   0.0000       0.604612        16.4523 
  55   0.0000       0.736291        20.0355 
  56   0.0000       0.818057        22.2605 
  57   0.0000       0.825113        22.4525 
  58   0.0000       0.883291        24.0356 
  59   0.0000       0.883291        24.0356 
  60   0.0000       0.952992        25.9322 
  61   0.0000       1.161728        31.6122 
  62   0.0000       1.911448        52.0131 
  63   0.0000       1.911448        52.0131 
  64   0.0000       1.917821        52.1866 
  65   0.0000       1.917935        52.1897 
  66   0.0000       1.965071        53.4723 
  67   0.0000       2.010489        54.7082 
  68   0.0000       2.049490        55.7695 
  69   0.0000       2.049490        55.7695 
  70   0.0000       2.081139        56.6307 
  71   0.0000       2.082312        56.6626 
  72   0.0000       2.106469        57.3199 
  73   0.0000       2.106469        57.3199 
  74   0.0000       2.263052        61.5808 
  75   0.0000       2.263052        61.5808 
  76   0.0000       2.266070        61.6629 
  77   0.0000       2.276145        61.9371 
  78   0.0000       2.317895        63.0731 
  79   0.0000       2.317895        63.0731 
  80   0.0000       2.355882        64.1068 
  81   0.0000       2.355882        64.1068 
  82   0.0000       2.358963        64.1907 
  83   0.0000       2.466219        67.1092 
  84   0.0000       2.538571        69.0780 
  85   0.0000       2.538571        69.0780 
  86   0.0000       2.756308        75.0030 
  87   0.0000       3.200849        87.0995 
  88   0.0000       3.399775        92.5126 
  89   0.0000       3.420485        93.0761 
  90   0.0000       3.438459        93.5652 
  91   0.0000       3.438459        93.5652 
  92   0.0000       3.548991        96.5730 
  93   0.0000       8.206944       223.3223 
  94   0.0000       8.207059       223.3254 
  95   0.0000       8.230181       223.9546 
  96   0.0000       8.230181       223.9546 
  97   0.0000       8.306635       226.0350 
  98   0.0000       8.366501       227.6641 
  99   0.0000       8.377298       227.9579 
 100   0.0000       8.377298       227.9579 
 101   0.0000       8.383034       228.1139 
 102   0.0000       8.392136       228.3616 
 103   0.0000       8.392136       228.3616 
 104   0.0000       8.395070       228.4415 
 105   0.0000       8.409015       228.8209 
 106   0.0000       8.410767       228.8686 
 107   0.0000       9.049460       246.2483 
 108   0.0000       9.068904       246.7774 
 109   0.0000       9.079659       247.0701 
 110   0.0000       9.079659       247.0701 
 111   0.0000       9.096535       247.5293 
 112   0.0000       9.096535       247.5293 
 113   0.0000       9.231529       251.2027 
 114   0.0000      10.894753       296.4613 
 115   0.0000      10.894753       296.4613 
 116   0.0000      11.134345       302.9809 
 117   0.0000      25.062831       681.9943 

                 SPIN DOWN ORBITALS
  NO   OCC          E(Eh)            E(eV) 
   0   1.0000    -256.413663     -6977.3705 
   1   1.0000    -101.684583     -2766.9782 
   2   1.0000     -30.302808      -824.5813 
   3   1.0000     -26.091477      -709.9852 
   4   1.0000     -26.080191      -709.6781 
   5   1.0000     -26.080191      -709.6781 
   6   1.0000      -9.560771      -260.1618 
   7   1.0000      -7.264524      -197.6777 
   8   1.0000      -7.262674      -197.6274 
   9   1.0000      -7.262674      -197.6274 
  10   1.0000      -3.500688       -95.2586 
  11   1.0000      -2.252529       -61.2944 
  12   1.0000      -2.231926       -60.7338 
  13   1.0000      -2.231926       -60.7338 
  14   1.0000      -0.801712       -21.8157 
  15   1.0000      -0.369247       -10.0477 
  16   1.0000      -0.323683        -8.8079 
  17   1.0000      -0.323683        -8.8079 
  18   1.0000      -0.286478        -7.7954 
  19   0.0000      -0.151138        -4.1127 
  20   0.0000      -0.120215        -3.2712 
  21   0.0000      -0.112158        -3.0520 
  22   0.0000      -0.112154        -3.0519 
  23   0.0000      -0.046662        -1.2697 
  24   0.0000      -0.017631        -0.4798 
  25   0.0000      -0.017338        -0.4718 
  26   0.0000       0.002139         0.0582 
  27   0.0000       0.037125         1.0102 
  28   0.0000       0.037181         1.0117 
  29   0.0000       0.051327         1.3967 
  30   0.0000       0.082833         2.2540 
  31   0.0000       0.083917         2.2835 
  32   0.0000       0.097948         2.6653 
  33   0.0000       0.158107         4.3023 
  34   0.0000       0.161296         4.3891 
  35   0.0000       0.176850         4.8123 
  36   0.0000       0.216302         5.8859 
  37   0.0000       0.240965         6.5570 
  38   0.0000       0.241016         6.5584 
  39   0.0000       0.241254         6.5649 
  40   0.0000       0.251577         6.8458 
  41   0.0000       0.300736         8.1834 
  42   0.0000       0.322460         8.7746 
  43   0.0000       0.322599         8.7784 
  44   0.0000       0.362611         9.8671 
  45   0.0000       0.503042        13.6885 
  46   0.0000       0.503043        13.6885 
  47   0.0000       0.527633        14.3576 
  48   0.0000       0.531117        14.4524 
  49   0.0000       0.531344        14.4586 
  50   0.0000       0.609313        16.5802 
  51   0.0000       0.609864        16.5952 
  52   0.0000       0.618355        16.8263 
  53   0.0000       0.618358        16.8264 
  54   0.0000       0.632976        17.2242 
  55   0.0000       0.755733        20.5645 
  56   0.0000       0.811813        22.0905 
  57   0.0000       0.839366        22.8403 
  58   0.0000       0.950187        25.8559 
  59   0.0000       0.950283        25.8585 
  60   0.0000       0.994747        27.0685 
  61   0.0000       1.192635        32.4532 
  62   0.0000       1.925040        52.3830 
  63   0.0000       1.925043        52.3831 
  64   0.0000       1.929402        52.5017 
  65   0.0000       1.929470        52.5036 
  66   0.0000       1.981721        53.9254 
  67   0.0000       2.032590        55.3096 
  68   0.0000       2.066105        56.2216 
  69   0.0000       2.066109        56.2217 
  70   0.0000       2.094589        56.9967 
  71   0.0000       2.095331        57.0169 
  72   0.0000       2.118255        57.6407 
  73   0.0000       2.118255        57.6407 
  74   0.0000       2.278635        62.0048 
  75   0.0000       2.278635        62.0048 
  76   0.0000       2.298812        62.5538 
  77   0.0000       2.313440        62.9519 
  78   0.0000       2.335827        63.5611 
  79   0.0000       2.335828        63.5611 
  80   0.0000       2.379103        64.7387 
  81   0.0000       2.379126        64.7393 
  82   0.0000       2.403396        65.3997 
  83   0.0000       2.533421        68.9379 
  84   0.0000       2.560591        69.6772 
  85   0.0000       2.560593        69.6773 
  86   0.0000       2.795738        76.0759 
  87   0.0000       3.234093        88.0042 
  88   0.0000       3.436697        93.5173 
  89   0.0000       3.443671        93.7071 
  90   0.0000       3.517316        95.7110 
  91   0.0000       3.517339        95.7117 
  92   0.0000       3.641566        99.0921 
  93   0.0000       8.211085       223.4350 
  94   0.0000       8.211259       223.4397 
  95   0.0000       8.240156       224.2261 
  96   0.0000       8.240156       224.2261 
  97   0.0000       8.320892       226.4230 
  98   0.0000       8.489611       231.0141 
  99   0.0000       8.494641       231.1509 
 100   0.0000       8.499763       231.2903 
 101   0.0000       8.499763       231.2903 
 102   0.0000       8.499848       231.2926 
 103   0.0000       8.516215       231.7380 
 104   0.0000       8.518735       231.8066 
 105   0.0000       8.518735       231.8066 
 106   0.0000       8.525869       232.0007 
 107   0.0000       9.212490       250.6846 
 108   0.0000       9.212490       250.6846 
 109   0.0000       9.215284       250.7606 
 110   0.0000       9.224861       251.0212 
 111   0.0000       9.261129       252.0081 
 112   0.0000       9.261129       252.0081 
 113   0.0000       9.413152       256.1449 
 114   0.0000      10.899997       296.6040 
 115   0.0000      10.900001       296.6041 
 116   0.0000      11.136771       303.0469 
 117   0.0000      25.064501       682.0398 

                    ********************************
                    * MULLIKEN POPULATION ANALYSIS *
                    ********************************

--------------------------------------------
MULLIKEN ATOMIC CHARGES AND SPIN POPULATIONS
--------------------------------------------
   0 Fe:    0.337520    4.863507
   1 Cl:   -0.337520    0.136493
Sum of atomic charges         :   -0.0000000
Sum of atomic spin populations:    5.0000000

-----------------------------------------------------
MULLIKEN REDUCED ORBITAL CHARGES AND SPIN POPULATIONS
-----------------------------------------------------
CHARGE
  0 Fes       :     7.157662  s :     7.157662
      pz      :     4.247308  p :    12.318055
      px      :     4.035373
      py      :     4.035373
      dz2     :     1.069651  d :     6.184818
      dxz     :     1.058345
      dyz     :     1.058345
      dx2y2   :     0.999755
      dxy     :     1.998721
      f0      :     0.000996  f :     0.001906
      f+1     :     0.000445
      f-1     :     0.000445
      f+2     :     0.000001
      f-2     :     0.000002
      f+3     :     0.000009
      f-3     :     0.000009
      g0      :     0.000011  g :     0.000039
      g+1     :     0.000008
      g-1     :     0.000008
      g+2     :     0.000002
      g-2     :     0.000005
      g+3     :     0.000001
      g-3     :     0.000001
      g+4     :     0.000003
      g-4     :     0.000000
  1 Cls       :     5.896200  s :     5.896200
      pz      :     3.624461  p :    11.417890
      px      :     3.896715
      py      :     3.896715
      dz2     :     0.003022  d :     0.021937
      dxz     :     0.008733
      dyz     :     0.008733
      dx2y2   :     0.000227
      dxy     :     0.001223
      f0      :     0.000685  f :     0.001493
      f+1     :     0.000371
      f-1     :     0.000371
      f+2     :     0.000016
      f-2     :     0.000050
      f+3     :     0.000000
      f-3     :     0.000000

SPIN
  0 Fes       :     0.926270  s :     0.926270
      pz      :     0.142969  p :     0.145325
      px      :     0.001178
      py      :     0.001178
      dz2     :     0.916841  d :     3.791804
      dxz     :     0.937214
      dyz     :     0.937214
      dx2y2   :     0.999755
      dxy     :     0.000779
      f0      :     0.000037  f :     0.000083
      f+1     :     0.000026
      f-1     :     0.000026
      f+2     :     0.000001
      f-2     :    -0.000000
      f+3     :    -0.000003
      f-3     :    -0.000003
      g0      :     0.000005  g :     0.000025
      g+1     :     0.000005
      g-1     :     0.000005
      g+2     :     0.000002
      g-2     :     0.000005
      g+3     :     0.000000
      g-3     :     0.000000
      g+4     :     0.000003
      g-4     :     0.000000
  1 Cls       :    -0.034057  s :    -0.034057
      pz      :     0.050758  p :     0.175932
      px      :     0.062587
      py      :     0.062587
      dz2     :    -0.002986  d :    -0.005581
      dxz     :    -0.001026
      dyz     :    -0.001026
      dx2y2   :     0.000227
      dxy     :    -0.000769
      f0      :     0.000160  f :     0.000199
      f+1     :     0.000019
      f-1     :     0.000019
      f+2     :     0.000016
      f-2     :    -0.000014
      f+3     :     0.000000
      f-3     :     0.000000


                     *******************************
                     * LOEWDIN POPULATION ANALYSIS *
                     *******************************

-------------------------------------------
LOEWDIN ATOMIC CHARGES AND SPIN POPULATIONS
-------------------------------------------
   0 Fe:    0.209996    4.648311
   1 Cl:   -0.209996    0.351689

----------------------------------------------------
LOEWDIN REDUCED ORBITAL CHARGES AND SPIN POPULATIONS
----------------------------------------------------
CHARGE
  0 Fes       :     6.750013  s :     6.750013
      pz      :     4.455375  p :    12.596414
      px      :     4.070519
      py      :     4.070519
      dz2     :     1.195678  d :     6.438771
      dxz     :     1.123466
      dyz     :     1.123466
      dx2y2   :     0.999190
      dxy     :     1.996972
      f0      :     0.002985  f :     0.004753
      f+1     :     0.000874
      f-1     :     0.000874
      f+2     :     0.000001
      f-2     :     0.000003
      f+3     :     0.000009
      f-3     :     0.000009
      g0      :     0.000022  g :     0.000053
      g+1     :     0.000010
      g-1     :     0.000010
      g+2     :     0.000002
      g-2     :     0.000005
      g+3     :     0.000001
      g-3     :     0.000001
      g+4     :     0.000003
      g-4     :     0.000000
  1 Cls       :     5.757096  s :     5.757096
      pz      :     3.756259  p :    11.346745
      px      :     3.795243
      py      :     3.795243
      dz2     :     0.081058  d :     0.103236
      dxz     :     0.009250
      dyz     :     0.009250
      dx2y2   :     0.000771
      dxy     :     0.002907
      f0      :     0.001511  f :     0.002919
      f+1     :     0.000629
      f-1     :     0.000629
      f+2     :     0.000036
      f-2     :     0.000114
      f+3     :     0.000000
      f-3     :     0.000000

SPIN
  0 Fes       :     0.614831  s :     0.614831
      pz      :     0.246904  p :     0.255255
      px      :     0.004176
      py      :     0.004176
      dz2     :     0.913782  d :     3.777782
      dxz     :     0.931786
      dyz     :     0.931786
      dx2y2   :     0.999190
      dxy     :     0.001238
      f0      :     0.000312  f :     0.000419
      f+1     :     0.000056
      f-1     :     0.000056
      f+2     :     0.000001
      f-2     :    -0.000001
      f+3     :    -0.000003
      f-3     :    -0.000003
      g0      :     0.000006  g :     0.000024
      g+1     :     0.000004
      g-1     :     0.000004
      g+2     :     0.000002
      g-2     :     0.000005
      g+3     :     0.000000
      g-3     :     0.000000
      g+4     :     0.000003
      g-4     :     0.000000
  1 Cls       :     0.047531  s :     0.047531
      pz      :     0.136935  p :     0.258992
      px      :     0.061029
      py      :     0.061029
      dz2     :     0.038865  d :     0.043633
      dxz     :     0.002602
      dyz     :     0.002602
      dx2y2   :     0.000771
      dxy     :    -0.001207
      f0      :     0.000833  f :     0.001533
      f+1     :     0.000349
      f-1     :     0.000349
      f+2     :     0.000036
      f-2     :    -0.000035
      f+3     :     0.000000
      f-3     :     0.000000


                      *****************************
                      * MAYER POPULATION ANALYSIS *
                      *****************************

  NA   - Mulliken gross atomic population
  ZA   - Total nuclear charge
  QA   - Mulliken gross atomic charge
  VA   - Mayer's total valence
  BVA  - Mayer's bonded valence
  FA   - Mayer's free valence

  ATOM       NA         ZA         QA         VA         BVA        FA
  0 Fe    25.6625    26.0000     0.3375     5.5631     0.7854     4.7777
  1 Cl    17.3375    17.0000    -0.3375     0.8005     0.7854     0.0151

  Mayer bond orders larger than 0.100000
B(  0-Fe,  1-Cl) :   0.7854 

-------
TIMINGS
-------

Total SCF time: 0 days 0 hours 0 min 3 sec 

Total time                  ....       3.390 sec
Sum of individual times     ....       3.177 sec  ( 93.7%)

Fock matrix formation       ....       2.781 sec  ( 82.0%)
  XC integration            ....       0.574 sec  ( 20.7% of F)
    Basis function eval.    ....       0.017 sec  (  3.0% of XC)
    Density eval.           ....       0.043 sec  (  7.5% of XC)
    XC-Functional eval.     ....       0.061 sec  ( 10.5% of XC)
    XC-Potential eval.      ....       0.097 sec  ( 16.9% of XC)
Diagonalization             ....       0.050 sec  (  1.5%)
Density matrix formation    ....       0.008 sec  (  0.2%)
Population analysis         ....       0.006 sec  (  0.2%)
Initial guess               ....       0.102 sec  (  3.0%)
Orbital Transformation      ....       0.000 sec  (  0.0%)
Orbital Orthonormalization  ....       0.000 sec  (  0.0%)
DIIS solution               ....       0.020 sec  (  0.6%)
Grid generation             ....       0.210 sec  (  6.2%)


-------------------------------------------------------------------------------
                          DFT DISPERSION CORRECTION                            
                                                                               
                              DFTD3 V3.1  Rev 1                                
                              USING zero damping                               
-------------------------------------------------------------------------------
The M06 functional is recognized
Active option DFTDOPT                   ...         3   

molecular C6(AA) [au] = 597.150346 


            DFT-D V3
 parameters
 s6 scaling factor         :     1.0000 
 rs6 scaling factor        :     1.3250 
 s8 scaling factor         :     0.0000 
 rs8 scaling factor        :     1.0000 
 Damping factor alpha6     :    14.0000 
 Damping factor alpha8     :    16.0000 
 ad hoc parameters k1-k3   :    16.0000     1.3333    -4.0000 

 Edisp/kcal,au: -0.000163838728  -0.000000261094 
 E6   /kcal   :  -0.000163839 
 E8   /kcal   :  -0.000000000 
 % E8         :   0.000000000 

-------------------------   ----------------
Dispersion correction           -0.000000261
-------------------------   ----------------


-------------------------   --------------------
FINAL SINGLE POINT ENERGY     -1723.859478263427
-------------------------   --------------------


                            ***************************************
                            *     ORCA property calculations      *
                            ***************************************

                                    ---------------------
                                    Active property flags
                                    ---------------------
   (+) Dipole Moment


------------------------------------------------------------------------------
                       ORCA ELECTRIC PROPERTIES CALCULATION
------------------------------------------------------------------------------

Dipole Moment Calculation                       ... on
Quadrupole Moment Calculation                   ... off
Polarizability Calculation                      ... off
GBWName                                         ... TMD19_FeCl.gbw
Electron density file                           ... TMD19_FeCl.scfp
The origin for moment calculation is the CENTER OF MASS  = ( 0.000000,  0.000000  0.029302)

-------------
DIPOLE MOMENT
-------------
                                X             Y             Z
Electronic contribution:      0.00000       0.00000       2.21671
Nuclear contribution   :      0.00000       0.00000      -1.26002
                        -----------------------------------------
Total Dipole Moment    :      0.00000       0.00000       0.95669
                        -----------------------------------------
Magnitude (a.u.)       :      0.95669
Magnitude (Debye)      :      2.43172



--------------------
Rotational spectrum 
--------------------
 
Rotational constants in cm-1:     0.000000     0.160606     0.160606 
Rotational constants in MHz :     0.000000  4814.831818  4814.831818 

 Dipole components along the rotational axes: 
x,y,z [a.u.] :     0.956694     0.000000     0.000000 
x,y,z [Debye]:     2.431723     0.000001     0.000000 

 

Timings for individual modules:

Sum of individual times         ...        4.667 sec (=   0.078 min)
GTO integral calculation        ...        0.845 sec (=   0.014 min)  18.1 %
SCF iterations                  ...        3.822 sec (=   0.064 min)  81.9 %
                             ****ORCA TERMINATED NORMALLY****
TOTAL RUN TIME: 0 days 0 hours 0 minutes 5 seconds 256 msec
