
                                 *****************
                                 * O   R   C   A *
                                 *****************

           --- An Ab Initio, DFT and Semiempirical electronic structure package ---

                  #######################################################
                  #                        -***-                        #
                  #          Department of theory and spectroscopy      #
                  #               Directorship: Frank Neese             #
                  #        Max Planck Institute fuer Kohlenforschung    #
                  #                Kaiser Wilhelm Platz 1               #
                  #                 D-45470 Muelheim/Ruhr               #
                  #                      Germany                        #
                  #                                                     #
                  #                  All rights reserved                #
                  #                        -***-                        #
                  #######################################################


                         Program Version 4.2.0 -  RELEASE  -


 With contributions from (in alphabetic order):
   Daniel Aravena         : Magnetic Suceptibility
   Michael Atanasov       : Ab Initio Ligand Field Theory (pilot matlab implementation)
   Alexander A. Auer      : GIAO ZORA, VPT2
   Ute Becker             : Parallelization
   Giovanni Bistoni       : ED, misc. LED, open-shell LED, HFLED
   Martin Brehm           : Molecular dynamics
   Dmytro Bykov           : SCF Hessian
   Vijay G. Chilkuri      : MRCI spin determinant printing, contributions to CSF-ICE
   Dipayan Datta          : RHF DLPNO-CCSD density
   Achintya Kumar Dutta   : EOM-CC, STEOM-CC
   Dmitry Ganyushin       : Spin-Orbit,Spin-Spin,Magnetic field MRCI
   Miquel Garcia          : C-PCM Hessian, Gaussian charge scheme
   Yang Guo               : DLPNO-NEVPT2, CIM, IAO-localization
   Andreas Hansen         : Spin unrestricted coupled pair/coupled cluster methods
   Benjamin Helmich-Paris : CASSCF linear response (MC-RPA)
   Lee Huntington         : MR-EOM, pCC
   Robert Izsak           : Overlap fitted RIJCOSX, COSX-SCS-MP3, EOM
   Christian Kollmar      : KDIIS, OOCD, Brueckner-CCSD(T), CCSD density
   Simone Kossmann        : Meta GGA functionals, TD-DFT gradient, OOMP2, MP2 Hessian
   Martin Krupicka        : AUTO-CI
   Lucas Lang             : DCDCAS
   Dagmar Lenk            : GEPOL surface, SMD
   Dimitrios Liakos       : Extrapolation schemes; Compound Job, initial MDCI parallelization
   Dimitrios Manganas     : Further ROCIS development; embedding schemes
   Dimitrios Pantazis     : SARC Basis sets
   Taras Petrenko         : DFT Hessian,TD-DFT gradient, ASA, ECA, R-Raman, ABS, FL, XAS/XES, NRVS
   Peter Pinski           : DLPNO-MP2, DLPNO-MP2 Gradient
   Christoph Reimann      : Effective Core Potentials
   Marius Retegan         : Local ZFS, SOC
   Christoph Riplinger    : Optimizer, TS searches, QM/MM, DLPNO-CCSD(T), (RO)-DLPNO pert. Triples
   Tobias Risthaus        : Range-separated hybrids, TD-DFT gradient, RPA, STAB
   Michael Roemelt        : Original ROCIS implementation
   Masaaki Saitow         : Open-shell DLPNO-CCSD energy and density
   Barbara Sandhoefer     : DKH picture change effects
   Avijit Sen             : IP-ROCIS
   Kantharuban Sivalingam : CASSCF convergence, NEVPT2, FIC-MRCI
   Bernardo de Souza      : ESD, SOC TD-DFT
   Georgi Stoychev        : AutoAux, RI-MP2 NMR
   Willem Van den Heuvel  : Paramagnetic NMR
   Boris Wezisla          : Elementary symmetry handling
   Frank Wennmohs         : Technical directorship


 We gratefully acknowledge several colleagues who have allowed us to
 interface, adapt or use parts of their codes:
   Stefan Grimme, W. Hujo, H. Kruse,             : VdW corrections, initial TS optimization,
                  C. Bannwarth                     DFT functionals, gCP, sTDA/sTD-DF
   Ed Valeev, F. Pavosevic, A. Kumar             : LibInt (2-el integral package), F12 methods
   Garnet Chan, S. Sharma, J. Yang, R. Olivares  : DMRG
   Ulf Ekstrom                                   : XCFun DFT Library
   Mihaly Kallay                                 : mrcc  (arbitrary order and MRCC methods)
   Andreas Klamt, Michael Diedenhofen            : otool_cosmo (COSMO solvation model)
   Jiri Pittner, Ondrej Demel                    : Mk-CCSD
   Frank Weinhold                                : gennbo (NPA and NBO analysis)
   Christopher J. Cramer and Donald G. Truhlar   : smd solvation model
   Lars Goerigk                                  : TD-DFT with DH, B97 family of functionals
   V. Asgeirsson, H. Jonsson                     : NEB implementation
   FAccTs GmbH                                   : IRC, NEB, NEB-TS, Multilevel, MM, QM/MM, CI optimization
   S Lehtola, MJT Oliveira, MAL Marques          : LibXC Library


 Your calculation uses the libint2 library for the computation of 2-el integrals
 For citations please refer to: http://libint.valeyev.net

 Your ORCA version has been built with support for libXC version: 4.2.3
 For citations please refer to: https://tddft.org/programs/libxc/

 This ORCA versions uses:
   CBLAS   interface :  Fast vector & matrix operations
   LAPACKE interface :  Fast linear algebra routines
   SCALAPACK package :  Parallel linear algebra routines


Your calculation utilizes the atom-pairwise dispersion correction
with the zero-damping scheme (D30)
Cite in your paper:
S.Grimme, J.Antony, S.Ehrlich and H.Krieg, J.Chem.Phys., 132, (2010), 154104 
   

XCFun DFT library Copyright 2009-2010 Ulf Ekstrom and contributors.
See http://admol.org/xcfun for more information. This is free soft-
ware; see the source code for copying conditions. There is ABSOLUTELY
NO WARRANTY; not even for MERCHANTABILITY or FITNESS FOR A PARTICULAR
PURPOSE. For details see the documentation. Scientific users of this 
library should cite U. Ekstrom, L. Visscher, R. Bast, A. J. Thorvald-
sen and K. Ruud; J.Chem.Theor.Comp. 2010, DOI: 10.1021/ct100117s
XCFun Version 0.99 
----- Orbital basis set information -----
Your calculation utilizes the basis: def2-TZVPPD
   F. Weigend and R. Ahlrichs, Phys. Chem. Chem. Phys. 7, 3297 (2005).
   D. Rappoport and F. Furche, J. Chem. Phys. 133 134105 (2010).

----- AuxJK basis set information -----
Your calculation utilizes the auxiliary basis: def2/JK
   H-Ba, Hf-Rn: F. Weigend, J. Comput. Chem. 29, 167 (2008).

================================================================================
                                        WARNINGS
                       Please study these warnings very carefully!
================================================================================


WARNING: your system is open-shell and RHF/RKS was chosen
  ===> : WILL SWITCH to UHF/UKS


WARNING: Minnesota functionals are quite sensitive to the integration grid.
         see SE Wheeler, KN Houk, JCTC 2010, 6, 395,
             N Mardirossian, M Head-Gordon, JCTC 2016, 12, 4303.
         Grid6 seems to be a minimum grid for reliable results with these functionals!
  ===> : Please increase the integration grid!


INFO   : the flag for use of LIBINT has been found!

================================================================================
                                       INPUT FILE
================================================================================
NAME = TMD22_CoF.in
|  1> #
|  2> # TMD22_CoF M06-D3/Def2-TZVPPD
|  3> #
|  4> ! m06 d3zero def2-tzvppd def2/jk grid4 nofinalgrid
|  5> 
|  6> *xyz 0 3
|  7> Co       0.000000    0.000000    0.440000 
|  8> F        0.000000    0.000000   -1.320000 
|  9> *
| 10> 
| 11> %maxcore 5000
| 12> 
| 13> %pal
| 14> nprocs = 24
| 15> end
| 16> 
| 17> 
| 18>                          ****END OF INPUT****
================================================================================

                       ****************************
                       * Single Point Calculation *
                       ****************************

---------------------------------
CARTESIAN COORDINATES (ANGSTROEM)
---------------------------------
  Co     0.000000    0.000000    0.440000
  F      0.000000    0.000000   -1.320000

----------------------------
CARTESIAN COORDINATES (A.U.)
----------------------------
  NO LB      ZA    FRAG     MASS         X           Y           Z
   0 Co   27.0000    0    58.930    0.000000    0.000000    0.831479
   1 F     9.0000    0    18.998    0.000000    0.000000   -2.494438

--------------------------------
INTERNAL COORDINATES (ANGSTROEM)
--------------------------------
 Co     0   0   0     0.000000000000     0.00000000     0.00000000
 F      1   0   0     1.760000000000     0.00000000     0.00000000

---------------------------
INTERNAL COORDINATES (A.U.)
---------------------------
 Co     0   0   0     0.000000000000     0.00000000     0.00000000
 F      1   0   0     3.325917995701     0.00000000     0.00000000

---------------------
BASIS SET INFORMATION
---------------------
There are 2 groups of distinct atoms

 Group   1 Type Co  : 17s13p7d2f1g contracted to 6s6p4d2f1g pattern {842111/631111/4111/11/1}
 Group   2 Type F   : 12s7p3d1f contracted to 6s4p3d1f pattern {621111/4111/111/1}

Atom   0Co   basis set group =>   1
Atom   1F    basis set group =>   2
----------------------------------
AUXILIARY/JK BASIS SET INFORMATION
----------------------------------
There are 2 groups of distinct atoms

 Group   1 Type Co  : 19s14p12d10f7g3h1i contracted to 16s13p11d9f5g3h1i pattern {4111111111111111/2111111111111/21111111111/211111111/31111/111/1}
 Group   2 Type F   : 14s10p6d2f1g contracted to 10s8p4d2f1g pattern {5111111111/31111111/3111/11/1}

Atom   0Co   basis set group =>   1
Atom   1F    basis set group =>   2


           ************************************************************
           *        Program running with 24 parallel MPI-processes    *
           *              working on a common directory               *
           ************************************************************
------------------------------------------------------------------------------
                           ORCA GTO INTEGRAL CALCULATION
------------------------------------------------------------------------------

                         BASIS SET STATISTICS AND STARTUP INFO

 # of primitive gaussian shells          ...   63
 # of primitive gaussian functions       ...  169
 # of contracted shells                  ...   33
 # of contracted basis functions         ...  107
 Highest angular momentum                ...    4
 Maximum contraction depth               ...    8
 Integral package used                   ... LIBINT
 Integral threshhold            Thresh   ...  1.000e-10
 Primitive cut-off              TCut     ...  1.000e-11


------------------------------ INTEGRAL EVALUATION ----------------------------


 * One electron integrals 
 Pre-screening matrix                    ... done
 Shell pair data                         ... done (   0.000 sec)



           ************************************************************
           *        Program running with 24 parallel MPI-processes    *
           *              working on a common directory               *
           ************************************************************
-------------------------------------------------------------------------------
                                 ORCA SCF
-------------------------------------------------------------------------------

------------
SCF SETTINGS
------------
Hamiltonian:
 Density Functional     Method          .... DFT(GTOs)
 Exchange Functional    Exchange        .... M06
 Correlation Functional Correlation     .... M06
 Gradients option       PostSCFGGA      .... off
 Hybrid DFT is turned on
   Fraction HF Exchange ScalHFX         ....  0.270000
   Scaling of DF-GGA-X  ScalDFX         ....  0.730000
   Scaling of DF-GGA-C  ScalDFC         ....  1.000000
   Scaling of DF-LDA-C  ScalLDAC        ....  1.000000
   Perturbative correction              ....  0.000000
   Density functional embedding theory  .... OFF


General Settings:
 Integral files         IntName         .... TMD22_CoF
 Hartree-Fock type      HFTyp           .... UHF
 Total Charge           Charge          ....    0
 Multiplicity           Mult            ....    3
 Number of Electrons    NEL             ....   36
 Basis Dimension        Dim             ....  107
 Nuclear Repulsion      ENuc            ....     73.0625350096 Eh

Convergence Acceleration:
 DIIS                   CNVDIIS         .... on
   Start iteration      DIISMaxIt       ....    12
   Startup error        DIISStart       ....  0.200000
   # of expansion vecs  DIISMaxEq       ....     5
   Bias factor          DIISBfac        ....   1.050
   Max. coefficient     DIISMaxC        ....  10.000
 Newton-Raphson         CNVNR           .... off
 SOSCF                  CNVSOSCF        .... off
 Level Shifting         CNVShift        .... on
   Level shift para.    LevelShift      ....    0.2500
   Turn off err/grad.   ShiftErr        ....    0.0010
 Zerner damping         CNVZerner       .... off
 Static damping         CNVDamp         .... on
   Fraction old density DampFac         ....    0.7000
   Max. Damping (<1)    DampMax         ....    0.9800
   Min. Damping (>=0)   DampMin         ....    0.0000
   Turn off err/grad.   DampErr         ....    0.1000
 Fernandez-Rico         CNVRico         .... off

SCF Procedure:
 Maximum # iterations   MaxIter         ....   125
 SCF integral mode      SCFMode         .... Direct
   Integral package                     .... LIBINT
 Reset frequency        DirectResetFreq ....    20
 Integral Threshold     Thresh          ....  1.000e-10 Eh
 Primitive CutOff       TCut            ....  1.000e-11 Eh

Convergence Tolerance:
 Convergence Check Mode ConvCheckMode   .... Total+1el-Energy
 Convergence forced     ConvForced      .... 0
 Energy Change          TolE            ....  1.000e-06 Eh
 1-El. energy change                    ....  1.000e-03 Eh
 DIIS Error             TolErr          ....  1.000e-06


Diagonalization of the overlap matrix:
Smallest eigenvalue                        ... 2.298e-03
Time for diagonalization                   ...    0.002 sec
Threshold for overlap eigenvalues          ... 1.000e-08
Number of eigenvalues below threshold      ... 0
Time for construction of square roots      ...    0.001 sec
Total time needed                          ...    0.004 sec

-------------------
DFT GRID GENERATION
-------------------

General Integration Accuracy     IntAcc      ...  4.670
Radial Grid Type                 RadialGrid  ... Gauss-Chebyshev
Angular Grid (max. acc.)         AngularGrid ... Lebedev-302
Angular grid pruning method      GridPruning ... 3 (G Style)
Weight generation scheme         WeightScheme... Becke
Basis function cutoff            BFCut       ...    1.0000e-10
Integration weight cutoff        WCut        ...    1.0000e-14
Grids for H and He will be reduced by one unit

# of grid points (after initial pruning)     ...  15912 (   0.0 sec)
# of grid points (after weights+screening)   ...  15863 (   0.0 sec)
nearest neighbour list constructed           ...    0.0 sec
Grid point re-assignment to atoms done       ...    0.0 sec
Grid point division into batches done        ...    0.1 sec
Reduced shell lists constructed in    0.1 sec

Total number of grid points                  ...    15863
Total number of batches                      ...      249
Average number of points per batch           ...       63
Average number of grid points per atom       ...     7932
Average number of shells per batch           ...     5.92 (17.93%)
Average number of basis functions per batch  ...    16.08 (15.03%)
Average number of large shells per batch     ...     3.42 (57.75%)
Average number of large basis fcns per batch ...     8.58 (53.37%)
Maximum spatial batch extension              ...  28.57, 31.41, 18.45 au
Average spatial batch extension              ...   0.89,  0.95,  0.67 au

Time for grid setup =    0.209 sec

------------------------------
INITIAL GUESS: MODEL POTENTIAL
------------------------------
Loading Hartree-Fock densities                     ... done
Calculating cut-offs                               ... done
Setting up the integral package                    ... done
Initializing the effective Hamiltonian             ... done
Starting the Coulomb interaction                   ... done (   0.0 sec)
Reading the grid                                   ... done
Mapping shells                                     ... done
Starting the XC term evaluation                    ... done (   0.0 sec)
  promolecular density results
     # of electrons  =     36.000020312
     EX              =    -67.693511037
     EC              =     -1.514921245
     EX+EC           =    -69.208432282
Transforming the Hamiltonian                       ... done (   0.0 sec)
Diagonalizing the Hamiltonian                      ... done (   0.0 sec)
Back transforming the eigenvectors                 ... done (   0.0 sec)
Now organizing SCF variables                       ... done
                      ------------------
                      INITIAL GUESS DONE (   0.3 sec)
                      ------------------
--------------
SCF ITERATIONS
--------------
ITER       Energy         Delta-E        Max-DP      RMS-DP      [F,P]     Damp
               ***  Starting incremental Fock matrix formation  ***
  0  -1482.4439524913   0.000000000000 0.02455339  0.00084314  0.2742809 0.7000
  1  -1482.4939693125  -0.050016821288 0.01453064  0.00043617  0.0943685 0.7000
                               ***Turning on DIIS***
  2  -1482.5096618295  -0.015692516964 0.03267373  0.00070148  0.0409519 0.0000
  3  -1482.5470867803  -0.037424950808 0.00833140  0.00031589  0.0595893 0.0000
  4  -1482.5506515528  -0.003564772455 0.00403363  0.00014091  0.0167864 0.0000
  5  -1482.5513402152  -0.000688662430 0.00370994  0.00008762  0.0102036 0.0000
  6  -1482.5517461277  -0.000405912501 0.00511909  0.00009690  0.0045195 0.0000
  7  -1482.5521387664  -0.000392638663 0.00606796  0.00010918  0.0046233 0.0000
  8  -1482.5525733308  -0.000434564442 0.00552348  0.00010099  0.0046155 0.0000
  9  -1482.5529824584  -0.000409127552 0.00417678  0.00007928  0.0046641 0.0000
 10  -1482.5533065601  -0.000324101758 0.00218774  0.00003683  0.0048498 0.0000
 11  -1482.5532293562   0.000077203945 0.00162212  0.00002374  0.0053766 0.0000
 12  -1482.5533089921  -0.000079635908 0.00167552  0.00003128  0.0053486 0.0000
 13  -1482.5534307392  -0.000121747072 0.00325272  0.00005877  0.0053320 0.0000
 14  -1482.5536714401  -0.000240700914 0.00500655  0.00009230  0.0051914 0.0000
 15  -1482.5540515714  -0.000380131334 0.00660399  0.00012652  0.0049800 0.0000
 16  -1482.5545732791  -0.000521707695 0.00522987  0.00010918  0.0048410 0.0000
 17  -1482.5550345282  -0.000461249094 0.00504324  0.00010980  0.0047909 0.0000
 18  -1482.5554964900  -0.000461961788 0.00303101  0.00006221  0.0049343 0.0000
 19  -1482.5557384459  -0.000241955946 0.00266017  0.00005711  0.0052803 0.0000
               *** Restarting incremental Fock matrix formation ***
                                   *** Resetting DIIS ***
 20  -1482.5555608338   0.000177612115 0.00453627  0.00010450  0.0062539 0.0000
 21  -1482.5559324730  -0.000371639198 0.00467291  0.00008977  0.0077583 0.0000
 22  -1482.5562948715  -0.000362398529 0.00474434  0.00010761  0.0056314 0.0000
 23  -1482.5567410835  -0.000446211924 0.00521618  0.00010912  0.0051163 0.0000
 24  -1482.5571825645  -0.000441481087 0.00571869  0.00011332  0.0049219 0.0000
 25  -1482.5576345420  -0.000451977495 0.00729071  0.00013872  0.0047804 0.0000
 26  -1482.5581785623  -0.000544020214 0.00598443  0.00010838  0.0044378 0.0000
 27  -1482.5585967415  -0.000418179244 0.01144158  0.00020695  0.0045249 0.0000
 28  -1482.5593561011  -0.000759359555 0.00317273  0.00005945  0.0045518 0.0000
 29  -1482.5594277497  -0.000071648656 0.00311087  0.00005627  0.0050376 0.0000
 30  -1482.5596240056  -0.000196255867 0.00213970  0.00004124  0.0051499 0.0000
 31  -1482.5597509647  -0.000126959149 0.00212921  0.00003843  0.0059419 0.0000
 32  -1482.5598777239  -0.000126759158 0.00294785  0.00005032  0.0065650 0.0000
 33  -1482.5600662468  -0.000188522891 0.00083439  0.00002445  0.0062965 0.0000
 34  -1482.5601454851  -0.000079238364 0.00499698  0.00008332  0.0047504 0.0000
 35  -1482.5604475779  -0.000302092787 0.00788190  0.00013102  0.0048018 0.0000
 36  -1482.5609275292  -0.000479951261 0.00618621  0.00010155  0.0044713 0.0000
 37  -1482.5613017006  -0.000374171384 0.00465473  0.00007762  0.0046249 0.0000
 38  -1482.5615817870  -0.000280086381 0.00361566  0.00006810  0.0048607 0.0000
 39  -1482.5613122792   0.000269507742 0.00080115  0.00001483  0.0101763 0.0000
               *** Restarting incremental Fock matrix formation ***
                                   *** Resetting DIIS ***
 40  -1482.5613180152  -0.000005735937 0.00538539  0.00012050  0.0101671 0.0000
 41  -1482.5615655004  -0.000247485246 0.00596657  0.00009329  0.0140642 0.0000
 42  -1482.5620165508  -0.000451050444 0.00752194  0.00011943  0.0048194 0.0000
 43  -1482.5624664601  -0.000449909221 0.00694866  0.00011458  0.0049404 0.0000
 44  -1482.5629015695  -0.000435109475 0.00475610  0.00007949  0.0049562 0.0000
 45  -1482.5631903495  -0.000288779929 0.00263585  0.00004904  0.0056309 0.0000
 46  -1482.5629844861   0.000205863380 0.00095023  0.00001817  0.0117107 0.0000
 47  -1482.5629441928   0.000040293240 0.00375012  0.00006622  0.0124957 0.0000
 48  -1482.5632487998  -0.000304606969 0.00450523  0.00007618  0.0088490 0.0000
 49  -1482.5635594316  -0.000310631824 0.00732091  0.00012956  0.0075160 0.0000
 50  -1482.5640839142  -0.000524482583 0.00808897  0.00013834  0.0049047 0.0000
 51  -1482.5646150271  -0.000531112910 0.00856075  0.00014442  0.0049453 0.0000
 52  -1482.5651771031  -0.000562075990 0.01009154  0.00016994  0.0047851 0.0000
 53  -1482.5658198056  -0.000642702456 0.00676198  0.00011012  0.0045753 0.0000
 54  -1482.5662206158  -0.000400810186 0.01872804  0.00032289  0.0043763 0.0000
 55  -1482.5670701800  -0.000849564269 0.00438434  0.00007521  0.0114443 0.0000
 56  -1482.5672896443  -0.000219464295 0.00752035  0.00012512  0.0032176 0.0000
 57  -1482.5675834359  -0.000293791582 0.01028594  0.00018549  0.0024958 0.0000
 58  -1482.5678201893  -0.000236753358 0.00338387  0.00006604  0.0079296 0.0000
 59  -1482.5679604588  -0.000140269551 0.00278634  0.00004367  0.0031390 0.0000
               *** Restarting incremental Fock matrix formation ***
                                   *** Resetting DIIS ***
 60  -1482.5680143548  -0.000053896020 0.00140964  0.00002837  0.0011716 0.0000
 61  -1482.5680400640  -0.000025709166 0.00117512  0.00002056  0.0012970 0.0000
 62  -1482.5680586376  -0.000018573601 0.00358001  0.00005998  0.0009021 0.0000
 63  -1482.5680982205  -0.000039582876 0.00016776  0.00000452  0.0016090 0.0000
 64  -1482.5680944904   0.000003730043 0.00022516  0.00000526  0.0021536 0.0000
 65  -1482.5680982908  -0.000003800357 0.00014813  0.00000312  0.0018565 0.0000
 66  -1482.5681005030  -0.000002212208 0.00031582  0.00000663  0.0016597 0.0000
 67  -1482.5681050008  -0.000004497804 0.00112145  0.00002363  0.0012883 0.0000
 68  -1482.5681177671  -0.000012766282 0.00232424  0.00003805  0.0005606 0.0000
 69  -1482.5681322585  -0.000014491436 0.00092765  0.00001988  0.0013785 0.0000
 70  -1482.5681399594  -0.000007700911 0.00244693  0.00004319  0.0003527 0.0000
 71  -1482.5681499673  -0.000010007846 0.00179270  0.00003360  0.0005627 0.0000
 72  -1482.5681539991  -0.000004031862 0.00032977  0.00000578  0.0001394 0.0000
 73  -1482.5681543191  -0.000000319969 0.00051073  0.00000916  0.0002071 0.0000
 74  -1482.5681547157  -0.000000396584 0.00015414  0.00000344  0.0000664 0.0000
                 **** Energy Check signals convergence ****

               *****************************************************
               *                     SUCCESS                       *
               *           SCF CONVERGED AFTER  75 CYCLES          *
               *****************************************************


----------------
TOTAL SCF ENERGY
----------------

Total Energy       :        -1482.56815488 Eh          -40342.73048 eV

Components:
Nuclear Repulsion  :           73.06253501 Eh            1988.13265 eV
Electronic Energy  :        -1555.63068989 Eh          -42330.86313 eV
One Electron Energy:        -2202.67332943 Eh          -59937.78847 eV
Two Electron Energy:          647.04263953 Eh           17606.92534 eV

Virial components:
Potential Energy   :        -2963.05753092 Eh          -80628.89451 eV
Kinetic Energy     :         1480.48937604 Eh           40286.16403 eV
Virial Ratio       :            2.00140412


DFT components:
N(Alpha)           :       18.999988379811 electrons
N(Beta)            :       16.999988342363 electrons
N(Total)           :       35.999976722175 electrons
E(XC)              :      -51.425546705853 Eh       
DFET-embed. en.    :        0.000000000000 Eh       

---------------
SCF CONVERGENCE
---------------

  Last Energy change         ...   -1.6571e-07  Tolerance :   1.0000e-06
  Last MAX-Density change    ...    1.1794e-04  Tolerance :   1.0000e-05
  Last RMS-Density change    ...    2.7156e-06  Tolerance :   1.0000e-06
  Last DIIS Error            ...    6.5104e-05  Tolerance :   1.0000e-06

             **** THE GBW FILE WAS UPDATED (TMD22_CoF.gbw) ****
             **** DENSITY FILE WAS UPDATED (TMD22_CoF.scfp) ****
             **** ENERGY FILE WAS UPDATED (TMD22_CoF.en.tmp) ****
----------------------
UHF SPIN CONTAMINATION
----------------------

Warning: in a DFT calculation there is little theoretical justification to 
         calculate <S**2> as in Hartree-Fock theory. We will do it anyways
         but you should keep in mind that the values have only limited relevance

Expectation value of <S**2>     :     2.146054
Ideal value S*(S+1) for S=1.0   :     2.000000
Deviation                       :     0.146054

             **** THE GBW FILE WAS UPDATED (TMD22_CoF.gbw) ****
             **** DENSITY FILE WAS UPDATED (TMD22_CoF.scfp) ****
----------------
ORBITAL ENERGIES
----------------
                 SPIN UP ORBITALS
  NO   OCC          E(Eh)            E(eV) 
   0   1.0000    -277.794452     -7559.1713 
   1   1.0000     -33.086149      -900.3199 
   2   1.0000     -28.647390      -779.5351 
   3   1.0000     -28.642387      -779.3990 
   4   1.0000     -28.636871      -779.2489 
   5   1.0000     -24.684242      -671.6924 
   6   1.0000      -3.872420      -105.3739 
   7   1.0000      -2.532141       -68.9031 
   8   1.0000      -2.527254       -68.7701 
   9   1.0000      -2.513135       -68.3859 
  10   1.0000      -1.110098       -30.2073 
  11   1.0000      -0.425175       -11.5696 
  12   1.0000      -0.399293       -10.8653 
  13   1.0000      -0.385538       -10.4910 
  14   1.0000      -0.352086        -9.5808 
  15   1.0000      -0.331495        -9.0205 
  16   1.0000      -0.319593        -8.6966 
  17   1.0000      -0.299608        -8.1528 
  18   1.0000      -0.296204        -8.0601 
  19   0.0000      -0.110929        -3.0185 
  20   0.0000      -0.015658        -0.4261 
  21   0.0000      -0.009530        -0.2593 
  22   0.0000       0.008385         0.2282 
  23   0.0000       0.046400         1.2626 
  24   0.0000       0.095807         2.6070 
  25   0.0000       0.101244         2.7550 
  26   0.0000       0.117014         3.1841 
  27   0.0000       0.119075         3.2402 
  28   0.0000       0.127966         3.4821 
  29   0.0000       0.184910         5.0316 
  30   0.0000       0.203262         5.5310 
  31   0.0000       0.207165         5.6372 
  32   0.0000       0.266025         7.2389 
  33   0.0000       0.266458         7.2507 
  34   0.0000       0.280487         7.6324 
  35   0.0000       0.382446        10.4069 
  36   0.0000       0.550547        14.9812 
  37   0.0000       0.550979        14.9929 
  38   0.0000       0.567966        15.4551 
  39   0.0000       0.576042        15.6749 
  40   0.0000       0.634551        17.2670 
  41   0.0000       0.652197        17.7472 
  42   0.0000       0.691316        18.8117 
  43   0.0000       0.692359        18.8401 
  44   0.0000       0.795225        21.6392 
  45   0.0000       0.795989        21.6599 
  46   0.0000       0.933152        25.3924 
  47   0.0000       0.945081        25.7169 
  48   0.0000       1.013246        27.5718 
  49   0.0000       1.070669        29.1344 
  50   0.0000       1.071756        29.1640 
  51   0.0000       1.123881        30.5823 
  52   0.0000       1.378541        37.5120 
  53   0.0000       2.139280        58.2128 
  54   0.0000       2.303772        62.6888 
  55   0.0000       2.306515        62.7635 
  56   0.0000       2.340775        63.6957 
  57   0.0000       2.341294        63.7098 
  58   0.0000       2.664091        72.4936 
  59   0.0000       2.672881        72.7328 
  60   0.0000       2.690632        73.2158 
  61   0.0000       2.694664        73.3255 
  62   0.0000       2.696415        73.3732 
  63   0.0000       2.703756        73.5729 
  64   0.0000       2.818983        76.7084 
  65   0.0000       2.873917        78.2033 
  66   0.0000       2.882127        78.4267 
  67   0.0000       3.025801        82.3362 
  68   0.0000       3.232621        87.9641 
  69   0.0000       3.472009        94.4782 
  70   0.0000       3.474981        94.5590 
  71   0.0000       3.811812       103.7247 
  72   0.0000       3.832823       104.2964 
  73   0.0000       3.834158       104.3327 
  74   0.0000       3.876177       105.4761 
  75   0.0000       3.903249       106.2128 
  76   0.0000       4.028910       109.6322 
  77   0.0000       4.342663       118.1699 
  78   0.0000       6.974322       189.7810 
  79   0.0000       6.975702       189.8185 
  80   0.0000       6.985918       190.0965 
  81   0.0000       6.985947       190.0973 
  82   0.0000       7.024994       191.1598 
  83   0.0000       7.027671       191.2326 
  84   0.0000       7.131638       194.0617 
  85   0.0000       8.621019       234.5899 
  86   0.0000       8.621031       234.5902 
  87   0.0000       8.669033       235.8964 
  88   0.0000       8.672654       235.9949 
  89   0.0000       8.883536       241.7333 
  90   0.0000       9.954292       270.8701 
  91   0.0000       9.961071       271.0545 
  92   0.0000       9.965968       271.1878 
  93   0.0000       9.965969       271.1878 
  94   0.0000       9.974296       271.4144 
  95   0.0000       9.974319       271.4150 
  96   0.0000       9.982028       271.6248 
  97   0.0000       9.993956       271.9494 
  98   0.0000      10.022966       272.7388 
  99   0.0000      10.499864       285.7158 
 100   0.0000      10.504546       285.8432 
 101   0.0000      10.505877       285.8794 
 102   0.0000      10.519017       286.2370 
 103   0.0000      10.561621       287.3963 
 104   0.0000      10.599200       288.4189 
 105   0.0000      10.894290       296.4487 
 106   0.0000      56.972363      1550.2968 

                 SPIN DOWN ORBITALS
  NO   OCC          E(Eh)            E(eV) 
   0   1.0000    -277.793921     -7559.1569 
   1   1.0000     -33.054627      -899.4621 
   2   1.0000     -28.613738      -778.6194 
   3   1.0000     -28.610498      -778.5312 
   4   1.0000     -28.608285      -778.4710 
   5   1.0000     -24.682615      -671.6481 
   6   1.0000      -3.729215      -101.4771 
   7   1.0000      -2.385648       -64.9168 
   8   1.0000      -2.384999       -64.8991 
   9   1.0000      -2.376465       -64.6669 
  10   1.0000      -1.105503       -30.0823 
  11   1.0000      -0.399923       -10.8825 
  12   1.0000      -0.368219       -10.0198 
  13   1.0000      -0.358447        -9.7538 
  14   1.0000      -0.255993        -6.9659 
  15   1.0000      -0.238978        -6.5029 
  16   1.0000      -0.223065        -6.0699 
  17   0.0000      -0.104315        -2.8386 
  18   0.0000      -0.058641        -1.5957 
  19   0.0000      -0.055543        -1.5114 
  20   0.0000      -0.026230        -0.7138 
  21   0.0000      -0.020691        -0.5630 
  22   0.0000      -0.002725        -0.0742 
  23   0.0000       0.025990         0.7072 
  24   0.0000       0.079062         2.1514 
  25   0.0000       0.080589         2.1930 
  26   0.0000       0.110024         2.9939 
  27   0.0000       0.110793         3.0148 
  28   0.0000       0.123513         3.3609 
  29   0.0000       0.182634         4.9697 
  30   0.0000       0.197316         5.3693 
  31   0.0000       0.206011         5.6058 
  32   0.0000       0.258677         7.0390 
  33   0.0000       0.265295         7.2190 
  34   0.0000       0.272279         7.4091 
  35   0.0000       0.377696        10.2776 
  36   0.0000       0.547677        14.9030 
  37   0.0000       0.548009        14.9121 
  38   0.0000       0.575064        15.6483 
  39   0.0000       0.575593        15.6627 
  40   0.0000       0.636867        17.3300 
  41   0.0000       0.646278        17.5861 
  42   0.0000       0.691647        18.8207 
  43   0.0000       0.694792        18.9063 
  44   0.0000       0.795240        21.6396 
  45   0.0000       0.800760        21.7898 
  46   0.0000       0.960269        26.1302 
  47   0.0000       0.960943        26.1486 
  48   0.0000       1.013283        27.5728 
  49   0.0000       1.075236        29.2587 
  50   0.0000       1.087158        29.5831 
  51   0.0000       1.130588        30.7649 
  52   0.0000       1.372508        37.3478 
  53   0.0000       2.148329        58.4590 
  54   0.0000       2.309494        62.8445 
  55   0.0000       2.310364        62.8682 
  56   0.0000       2.342884        63.7531 
  57   0.0000       2.343369        63.7663 
  58   0.0000       2.677137        72.8486 
  59   0.0000       2.689773        73.1925 
  60   0.0000       2.717511        73.9472 
  61   0.0000       2.724703        74.1429 
  62   0.0000       2.732045        74.3427 
  63   0.0000       2.745083        74.6975 
  64   0.0000       2.824409        76.8561 
  65   0.0000       2.904829        79.0444 
  66   0.0000       2.913448        79.2790 
  67   0.0000       3.041798        82.7715 
  68   0.0000       3.245557        88.3161 
  69   0.0000       3.475437        94.5715 
  70   0.0000       3.477958        94.6400 
  71   0.0000       3.840410       104.5029 
  72   0.0000       3.841934       104.5443 
  73   0.0000       3.850985       104.7906 
  74   0.0000       3.914435       106.5172 
  75   0.0000       3.926328       106.8408 
  76   0.0000       4.040340       109.9432 
  77   0.0000       4.349113       118.3454 
  78   0.0000       6.977880       189.8778 
  79   0.0000       6.979370       189.9183 
  80   0.0000       6.990388       190.2181 
  81   0.0000       6.990405       190.2186 
  82   0.0000       7.029687       191.2875 
  83   0.0000       7.029910       191.2936 
  84   0.0000       7.135412       194.1644 
  85   0.0000       8.628818       234.8021 
  86   0.0000       8.629082       234.8093 
  87   0.0000       8.677256       236.1201 
  88   0.0000       8.678504       236.1541 
  89   0.0000       8.890673       241.9275 
  90   0.0000      10.006315       272.2857 
  91   0.0000      10.016611       272.5658 
  92   0.0000      10.020504       272.6718 
  93   0.0000      10.031132       272.9610 
  94   0.0000      10.037036       273.1216 
  95   0.0000      10.038243       273.1545 
  96   0.0000      10.050761       273.4951 
  97   0.0000      10.065067       273.8844 
  98   0.0000      10.083542       274.3871 
  99   0.0000      10.545047       286.9453 
 100   0.0000      10.549320       287.0616 
 101   0.0000      10.601270       288.4752 
 102   0.0000      10.604327       288.5584 
 103   0.0000      10.665077       290.2115 
 104   0.0000      10.683191       290.7044 
 105   0.0000      10.928263       297.3732 
 106   0.0000      56.973789      1550.3356 

                    ********************************
                    * MULLIKEN POPULATION ANALYSIS *
                    ********************************

--------------------------------------------
MULLIKEN ATOMIC CHARGES AND SPIN POPULATIONS
--------------------------------------------
   0 Co:    0.605624    1.946283
   1 F :   -0.605624    0.053717
Sum of atomic charges         :   -0.0000000
Sum of atomic spin populations:    2.0000000

-----------------------------------------------------
MULLIKEN REDUCED ORBITAL CHARGES AND SPIN POPULATIONS
-----------------------------------------------------
CHARGE
  0 Cos       :     6.559178  s :     6.559178
      pz      :     4.061643  p :    12.123876
      px      :     4.033500
      py      :     4.028733
      dz2     :     1.507555  d :     7.707881
      dxz     :     1.653853
      dyz     :     1.377593
      dx2y2   :     1.923069
      dxy     :     1.245810
      f0      :     0.001598  f :     0.003407
      f+1     :     0.000872
      f-1     :     0.000820
      f+2     :     0.000047
      f-2     :     0.000044
      f+3     :     0.000009
      f-3     :     0.000018
      g0      :     0.000014  g :     0.000034
      g+1     :     0.000005
      g-1     :     0.000005
      g+2     :     0.000001
      g-2     :     0.000004
      g+3     :     0.000003
      g-3     :     0.000001
      g+4     :     0.000001
      g-4     :     0.000001
  1 F s       :     3.950930  s :     3.950930
      pz      :     1.745423  p :     5.646865
      px      :     1.956462
      py      :     1.944980
      dz2     :     0.005236  d :     0.007619
      dxz     :     0.001150
      dyz     :     0.001906
      dx2y2   :    -0.000462
      dxy     :    -0.000211
      f0      :     0.000113  f :     0.000210
      f+1     :     0.000047
      f-1     :     0.000044
      f+2     :     0.000004
      f-2     :     0.000002
      f+3     :     0.000000
      f-3     :     0.000000

SPIN
  0 Cos       :    -0.215654  s :    -0.215654
      pz      :    -0.001268  p :    -0.003820
      px      :    -0.002861
      py      :     0.000310
      dz2     :     0.373450  d :     2.165583
      dxz     :     0.342305
      dyz     :     0.618922
      dx2y2   :     0.077149
      dxy     :     0.753756
      f0      :     0.000064  f :     0.000172
      f+1     :     0.000026
      f-1     :     0.000091
      f+2     :    -0.000003
      f-2     :     0.000010
      f+3     :    -0.000001
      f-3     :    -0.000015
      g0      :    -0.000002  g :     0.000002
      g+1     :     0.000000
      g-1     :     0.000000
      g+2     :     0.000000
      g-2     :    -0.000000
      g+3     :     0.000003
      g-3     :     0.000000
      g+4     :     0.000001
      g-4     :     0.000000
  1 F s       :    -0.004782  s :    -0.004782
      pz      :     0.017218  p :     0.059941
      px      :     0.015040
      py      :     0.027683
      dz2     :     0.000081  d :    -0.001453
      dxz     :    -0.000407
      dyz     :    -0.001105
      dx2y2   :     0.000112
      dxy     :    -0.000134
      f0      :     0.000002  f :     0.000011
      f+1     :     0.000003
      f-1     :     0.000005
      f+2     :    -0.000000
      f-2     :     0.000001
      f+3     :     0.000000
      f-3     :     0.000000


                     *******************************
                     * LOEWDIN POPULATION ANALYSIS *
                     *******************************

-------------------------------------------
LOEWDIN ATOMIC CHARGES AND SPIN POPULATIONS
-------------------------------------------
   0 Co:    0.562943    1.977635
   1 F :   -0.562943    0.022365

----------------------------------------------------
LOEWDIN REDUCED ORBITAL CHARGES AND SPIN POPULATIONS
----------------------------------------------------
CHARGE
  0 Cos       :     6.373308  s :     6.373308
      pz      :     4.114473  p :    12.228811
      px      :     4.060856
      py      :     4.053482
      dz2     :     1.584167  d :     7.827076
      dxz     :     1.675979
      dyz     :     1.405153
      dx2y2   :     1.918515
      dxy     :     1.243261
      f0      :     0.004300  f :     0.007799
      f+1     :     0.001727
      f-1     :     0.001638
      f+2     :     0.000058
      f-2     :     0.000050
      f+3     :     0.000009
      f-3     :     0.000018
      g0      :     0.000034  g :     0.000063
      g+1     :     0.000009
      g-1     :     0.000009
      g+2     :     0.000001
      g-2     :     0.000004
      g+3     :     0.000003
      g-3     :     0.000001
      g+4     :     0.000001
      g-4     :     0.000001
  1 F s       :     3.850366  s :     3.850366
      pz      :     1.846930  p :     5.620101
      px      :     1.892474
      py      :     1.880697
      dz2     :     0.057893  d :     0.091976
      dxz     :     0.014704
      dyz     :     0.012987
      dx2y2   :     0.004068
      dxy     :     0.002324
      f0      :     0.000219  f :     0.000499
      f+1     :     0.000139
      f-1     :     0.000115
      f+2     :     0.000016
      f-2     :     0.000010
      f+3     :     0.000000
      f-3     :     0.000000

SPIN
  0 Cos       :    -0.170889  s :    -0.170889
      pz      :    -0.001142  p :    -0.002515
      px      :    -0.003400
      py      :     0.002028
      dz2     :     0.367129  d :     2.150737
      dxz     :     0.340497
      dyz     :     0.612575
      dx2y2   :     0.077863
      dxy     :     0.752674
      f0      :     0.000125  f :     0.000299
      f+1     :     0.000042
      f-1     :     0.000139
      f+2     :    -0.000004
      f-2     :     0.000013
      f+3     :    -0.000001
      f-3     :    -0.000015
      g0      :    -0.000002  g :     0.000003
      g+1     :    -0.000000
      g-1     :     0.000000
      g+2     :     0.000000
      g-2     :    -0.000000
      g+3     :     0.000003
      g-3     :     0.000000
      g+4     :     0.000001
      g-4     :     0.000000
  1 F s       :    -0.017731  s :    -0.017731
      pz      :    -0.007513  p :     0.035913
      px      :     0.015368
      py      :     0.028058
      dz2     :    -0.000911  d :     0.004082
      dxz     :     0.001583
      dyz     :     0.003068
      dx2y2   :    -0.000599
      dxy     :     0.000942
      f0      :     0.000042  f :     0.000101
      f+1     :     0.000017
      f-1     :     0.000038
      f+2     :    -0.000001
      f-2     :     0.000005
      f+3     :     0.000000
      f-3     :     0.000000


                      *****************************
                      * MAYER POPULATION ANALYSIS *
                      *****************************

  NA   - Mulliken gross atomic population
  ZA   - Total nuclear charge
  QA   - Mulliken gross atomic charge
  VA   - Mayer's total valence
  BVA  - Mayer's bonded valence
  FA   - Mayer's free valence

  ATOM       NA         ZA         QA         VA         BVA        FA
  0 Co    26.3944    27.0000     0.6056     2.9494     0.7653     2.1841
  1 F      9.6056     9.0000    -0.6056     0.7677     0.7653     0.0024

  Mayer bond orders larger than 0.100000
B(  0-Co,  1-F ) :   0.7653 

-------
TIMINGS
-------

Total SCF time: 0 days 0 hours 0 min 13 sec 

Total time                  ....      13.293 sec
Sum of individual times     ....      12.947 sec  ( 97.4%)

Fock matrix formation       ....      12.260 sec  ( 92.2%)
  XC integration            ....       1.789 sec  ( 14.6% of F)
    Basis function eval.    ....       0.094 sec  (  5.3% of XC)
    Density eval.           ....       0.224 sec  ( 12.5% of XC)
    XC-Functional eval.     ....       0.332 sec  ( 18.6% of XC)
    XC-Potential eval.      ....       0.506 sec  ( 28.3% of XC)
Diagonalization             ....       0.227 sec  (  1.7%)
Density matrix formation    ....       0.038 sec  (  0.3%)
Population analysis         ....       0.005 sec  (  0.0%)
Initial guess               ....       0.107 sec  (  0.8%)
Orbital Transformation      ....       0.000 sec  (  0.0%)
Orbital Orthonormalization  ....       0.000 sec  (  0.0%)
DIIS solution               ....       0.101 sec  (  0.8%)
Grid generation             ....       0.209 sec  (  1.6%)


-------------------------------------------------------------------------------
                          DFT DISPERSION CORRECTION                            
                                                                               
                              DFTD3 V3.1  Rev 1                                
                              USING zero damping                               
-------------------------------------------------------------------------------
The M06 functional is recognized
Active option DFTDOPT                   ...         3   

molecular C6(AA) [au] = 300.923928 


            DFT-D V3
 parameters
 s6 scaling factor         :     1.0000 
 rs6 scaling factor        :     1.3250 
 s8 scaling factor         :     0.0000 
 rs8 scaling factor        :     1.0000 
 Damping factor alpha6     :    14.0000 
 Damping factor alpha8     :    16.0000 
 ad hoc parameters k1-k3   :    16.0000     1.3333    -4.0000 

 Edisp/kcal,au: -0.000059595547  -0.000000094972 
 E6   /kcal   :  -0.000059596 
 E8   /kcal   :  -0.000000000 
 % E8         :   0.000000000 

-------------------------   ----------------
Dispersion correction           -0.000000095
-------------------------   ----------------


-------------------------   --------------------
FINAL SINGLE POINT ENERGY     -1482.568154976381
-------------------------   --------------------


                            ***************************************
                            *     ORCA property calculations      *
                            ***************************************

                                    ---------------------
                                    Active property flags
                                    ---------------------
   (+) Dipole Moment


------------------------------------------------------------------------------
                       ORCA ELECTRIC PROPERTIES CALCULATION
------------------------------------------------------------------------------

Dipole Moment Calculation                       ... on
Quadrupole Moment Calculation                   ... off
Polarizability Calculation                      ... off
GBWName                                         ... TMD22_CoF.gbw
Electron density file                           ... TMD22_CoF.scfp
The origin for moment calculation is the CENTER OF MASS  = ( 0.000000,  0.000000  0.020657)

-------------
DIPOLE MOMENT
-------------
                                X             Y             Z
Electronic contribution:      0.00000      -0.00000       2.60994
Nuclear contribution   :      0.00000       0.00000      -0.74365
                        -----------------------------------------
Total Dipole Moment    :      0.00000      -0.00000       1.86630
                        -----------------------------------------
Magnitude (a.u.)       :      1.86630
Magnitude (Debye)      :      4.74376



--------------------
Rotational spectrum 
--------------------
 
Rotational constants in cm-1:     0.000000     0.378809     0.378809 
Rotational constants in MHz :     0.000000 11356.420741 11356.420741 

 Dipole components along the rotational axes: 
x,y,z [a.u.] :     1.866300    -0.000000     0.000000 
x,y,z [Debye]:     4.743756    -0.000000     0.000000 

 

Timings for individual modules:

Sum of individual times         ...       14.570 sec (=   0.243 min)
GTO integral calculation        ...        0.845 sec (=   0.014 min)   5.8 %
SCF iterations                  ...       13.725 sec (=   0.229 min)  94.2 %
                             ****ORCA TERMINATED NORMALLY****
TOTAL RUN TIME: 0 days 0 hours 0 minutes 15 seconds 173 msec
