
                                 *****************
                                 * O   R   C   A *
                                 *****************

           --- An Ab Initio, DFT and Semiempirical electronic structure package ---

                  #######################################################
                  #                        -***-                        #
                  #          Department of theory and spectroscopy      #
                  #               Directorship: Frank Neese             #
                  #        Max Planck Institute fuer Kohlenforschung    #
                  #                Kaiser Wilhelm Platz 1               #
                  #                 D-45470 Muelheim/Ruhr               #
                  #                      Germany                        #
                  #                                                     #
                  #                  All rights reserved                #
                  #                        -***-                        #
                  #######################################################


                         Program Version 4.2.0 -  RELEASE  -


 With contributions from (in alphabetic order):
   Daniel Aravena         : Magnetic Suceptibility
   Michael Atanasov       : Ab Initio Ligand Field Theory (pilot matlab implementation)
   Alexander A. Auer      : GIAO ZORA, VPT2
   Ute Becker             : Parallelization
   Giovanni Bistoni       : ED, misc. LED, open-shell LED, HFLED
   Martin Brehm           : Molecular dynamics
   Dmytro Bykov           : SCF Hessian
   Vijay G. Chilkuri      : MRCI spin determinant printing, contributions to CSF-ICE
   Dipayan Datta          : RHF DLPNO-CCSD density
   Achintya Kumar Dutta   : EOM-CC, STEOM-CC
   Dmitry Ganyushin       : Spin-Orbit,Spin-Spin,Magnetic field MRCI
   Miquel Garcia          : C-PCM Hessian, Gaussian charge scheme
   Yang Guo               : DLPNO-NEVPT2, CIM, IAO-localization
   Andreas Hansen         : Spin unrestricted coupled pair/coupled cluster methods
   Benjamin Helmich-Paris : CASSCF linear response (MC-RPA)
   Lee Huntington         : MR-EOM, pCC
   Robert Izsak           : Overlap fitted RIJCOSX, COSX-SCS-MP3, EOM
   Christian Kollmar      : KDIIS, OOCD, Brueckner-CCSD(T), CCSD density
   Simone Kossmann        : Meta GGA functionals, TD-DFT gradient, OOMP2, MP2 Hessian
   Martin Krupicka        : AUTO-CI
   Lucas Lang             : DCDCAS
   Dagmar Lenk            : GEPOL surface, SMD
   Dimitrios Liakos       : Extrapolation schemes; Compound Job, initial MDCI parallelization
   Dimitrios Manganas     : Further ROCIS development; embedding schemes
   Dimitrios Pantazis     : SARC Basis sets
   Taras Petrenko         : DFT Hessian,TD-DFT gradient, ASA, ECA, R-Raman, ABS, FL, XAS/XES, NRVS
   Peter Pinski           : DLPNO-MP2, DLPNO-MP2 Gradient
   Christoph Reimann      : Effective Core Potentials
   Marius Retegan         : Local ZFS, SOC
   Christoph Riplinger    : Optimizer, TS searches, QM/MM, DLPNO-CCSD(T), (RO)-DLPNO pert. Triples
   Tobias Risthaus        : Range-separated hybrids, TD-DFT gradient, RPA, STAB
   Michael Roemelt        : Original ROCIS implementation
   Masaaki Saitow         : Open-shell DLPNO-CCSD energy and density
   Barbara Sandhoefer     : DKH picture change effects
   Avijit Sen             : IP-ROCIS
   Kantharuban Sivalingam : CASSCF convergence, NEVPT2, FIC-MRCI
   Bernardo de Souza      : ESD, SOC TD-DFT
   Georgi Stoychev        : AutoAux, RI-MP2 NMR
   Willem Van den Heuvel  : Paramagnetic NMR
   Boris Wezisla          : Elementary symmetry handling
   Frank Wennmohs         : Technical directorship


 We gratefully acknowledge several colleagues who have allowed us to
 interface, adapt or use parts of their codes:
   Stefan Grimme, W. Hujo, H. Kruse,             : VdW corrections, initial TS optimization,
                  C. Bannwarth                     DFT functionals, gCP, sTDA/sTD-DF
   Ed Valeev, F. Pavosevic, A. Kumar             : LibInt (2-el integral package), F12 methods
   Garnet Chan, S. Sharma, J. Yang, R. Olivares  : DMRG
   Ulf Ekstrom                                   : XCFun DFT Library
   Mihaly Kallay                                 : mrcc  (arbitrary order and MRCC methods)
   Andreas Klamt, Michael Diedenhofen            : otool_cosmo (COSMO solvation model)
   Jiri Pittner, Ondrej Demel                    : Mk-CCSD
   Frank Weinhold                                : gennbo (NPA and NBO analysis)
   Christopher J. Cramer and Donald G. Truhlar   : smd solvation model
   Lars Goerigk                                  : TD-DFT with DH, B97 family of functionals
   V. Asgeirsson, H. Jonsson                     : NEB implementation
   FAccTs GmbH                                   : IRC, NEB, NEB-TS, Multilevel, MM, QM/MM, CI optimization
   S Lehtola, MJT Oliveira, MAL Marques          : LibXC Library


 Your calculation uses the libint2 library for the computation of 2-el integrals
 For citations please refer to: http://libint.valeyev.net

 Your ORCA version has been built with support for libXC version: 4.2.3
 For citations please refer to: https://tddft.org/programs/libxc/

 This ORCA versions uses:
   CBLAS   interface :  Fast vector & matrix operations
   LAPACKE interface :  Fast linear algebra routines
   SCALAPACK package :  Parallel linear algebra routines


Your calculation utilizes the atom-pairwise dispersion correction
with the Becke-Johnson damping scheme (D3BJ)
Cite in your paper:
S.Grimme, S.Ehrlich, L.Goerigk, J Comput Chem, (2011), 32, 1456–1465 
S.Grimme, J.Antony, S.Ehrlich and H.Krieg, J.Chem.Phys., 132, (2010), 154104 
   

----- Orbital basis set information -----
Your calculation utilizes the basis: def2-TZVPPD
   F. Weigend and R. Ahlrichs, Phys. Chem. Chem. Phys. 7, 3297 (2005).
   D. Rappoport and F. Furche, J. Chem. Phys. 133 134105 (2010).

----- AuxC basis set information -----
Your calculation utilizes the auxiliary basis: def2-TZVPPD/C
   A. Hellweg, C. Hattig, S. Hofener and W. Klopper, Theor. Chem. Acc. 117, 587 (2007).

----- AuxJK basis set information -----
Your calculation utilizes the auxiliary basis: def2/JK
   H-Ba, Hf-Rn: F. Weigend, J. Comput. Chem. 29, 167 (2008).

================================================================================
                                        WARNINGS
                       Please study these warnings very carefully!
================================================================================


WARNING: No MP2 level density has been requested!
         To caclulate MP2 level properties use
         %mp2 Density relaxed end
         or
         %mp2 Density unrelaxed end
         Otherwise for double-hybrid DFT only the energy is correct!

WARNING: The frozen-core approximation is turned on by default for 
         the MP2 part of double-hybrid DFT.

INFO   : the flag for use of LIBINT has been found!

================================================================================
                                       INPUT FILE
================================================================================
NAME = MOR07_ed01.in
|  1> #
|  2> # MOR07_ed01 ri-B2PLYP-D3BJ/Def2-TZVPPD
|  3> #
|  4> ! rijk ri-b2plyp d3bj def2-tzvppd def2/jk def2-tzvppd/c grid4 nofinalgrid
|  5> 
|  6> *xyz 0 1
|  7> Cr      -0.000046    0.000041   -0.405569 
|  8> O       -2.277907    2.043130   -0.317819 
|  9> C       -1.422280    1.275470   -0.391359 
| 10> C       -0.000325   -0.000192    1.429559 
| 11> O       -0.000571   -0.000422    2.587655 
| 12> C        1.422359   -1.275089   -0.391211 
| 13> O        2.278285   -2.042429   -0.317709 
| 14> C        1.275390    1.422211   -0.390822 
| 15> O        2.043071    2.277781   -0.316760 
| 16> C       -1.275267   -1.422351   -0.391135 
| 17> O       -2.042647   -2.278220   -0.317434 
| 18> *
| 19> 
| 20> %maxcore 5000
| 21> 
| 22> %pal
| 23> nprocs = 24
| 24> end
| 25> 
| 26> 
| 27>                          ****END OF INPUT****
================================================================================

                       ****************************
                       * Single Point Calculation *
                       ****************************

---------------------------------
CARTESIAN COORDINATES (ANGSTROEM)
---------------------------------
  Cr    -0.000046    0.000041   -0.405569
  O     -2.277907    2.043130   -0.317819
  C     -1.422280    1.275470   -0.391359
  C     -0.000325   -0.000192    1.429559
  O     -0.000571   -0.000422    2.587655
  C      1.422359   -1.275089   -0.391211
  O      2.278285   -2.042429   -0.317709
  C      1.275390    1.422211   -0.390822
  O      2.043071    2.277781   -0.316760
  C     -1.275267   -1.422351   -0.391135
  O     -2.042647   -2.278220   -0.317434

----------------------------
CARTESIAN COORDINATES (A.U.)
----------------------------
  NO LB      ZA    FRAG     MASS         X           Y           Z
   0 Cr   24.0000    0    52.000   -0.000087    0.000077   -0.766414
   1 O     8.0000    0    15.999   -4.304620    3.860956   -0.600591
   2 C     6.0000    0    12.011   -2.687720    2.410289   -0.739561
   3 C     6.0000    0    12.011   -0.000614   -0.000363    2.701475
   4 O     8.0000    0    15.999   -0.001079   -0.000797    4.889959
   5 C     6.0000    0    12.011    2.687869   -2.409569   -0.739282
   6 O     8.0000    0    15.999    4.305335   -3.859631   -0.600383
   7 C     6.0000    0    12.011    2.410138    2.687589   -0.738547
   8 O     8.0000    0    15.999    3.860845    4.304382   -0.598590
   9 C     6.0000    0    12.011   -2.409905   -2.687854   -0.739138
  10 O     8.0000    0    15.999   -3.860043   -4.305212   -0.599863

--------------------------------
INTERNAL COORDINATES (ANGSTROEM)
--------------------------------
 Cr     0   0   0     0.000000000000     0.00000000     0.00000000
 O      1   0   0     3.061137608756     0.00000000     0.00000000
 C      2   1   0     1.151871334103     2.01783897     0.00000000
 C      1   2   3     1.835128036000    88.35571758   180.24238282
 O      4   1   2     1.158096048967   179.99463193    91.76122125
 C      1   2   3     1.910339931292   177.92665485   179.81632214
 O      6   1   4     1.151877830796   176.77207242     0.00000000
 C      1   2   3     1.910372207975    89.98385338    90.67316090
 O      8   1   2     1.151876435433   176.75578430    88.60960898
 C      1   2   3     1.910391567418    90.00030062   269.79805641
 O     10   1   2     1.151874839973   176.76441128   271.68563110

---------------------------
INTERNAL COORDINATES (A.U.)
---------------------------
 Cr     0   0   0     0.000000000000     0.00000000     0.00000000
 O      1   0   0     5.784711738796     0.00000000     0.00000000
 C      2   1   0     2.176721362970     2.01783897     0.00000000
 C      1   2   3     3.467889408721    88.35571758   180.24238282
 O      4   1   2     2.188484369323   179.99463193    91.76122125
 C      1   2   3     3.610019292836   177.92665485   179.81632214
 O      6   1   4     2.176733639940   176.77207242     0.00000000
 C      1   2   3     3.610080286928    89.98385338    90.67316090
 O      8   1   2     2.176731003085   176.75578430    88.60960898
 C      1   2   3     3.610116870972    90.00030062   269.79805641
 O     10   1   2     2.176727988103   176.76441128   271.68563110

---------------------
BASIS SET INFORMATION
---------------------
There are 3 groups of distinct atoms

 Group   1 Type Cr  : 17s13p7d2f1g contracted to 6s6p4d2f1g pattern {842111/631111/4111/11/1}
 Group   2 Type O   : 12s7p3d1f contracted to 6s4p3d1f pattern {621111/4111/111/1}
 Group   3 Type C   : 12s6p3d1f contracted to 6s3p3d1f pattern {621111/411/111/1}

Atom   0Cr   basis set group =>   1
Atom   1O    basis set group =>   2
Atom   2C    basis set group =>   3
Atom   3C    basis set group =>   3
Atom   4O    basis set group =>   2
Atom   5C    basis set group =>   3
Atom   6O    basis set group =>   2
Atom   7C    basis set group =>   3
Atom   8O    basis set group =>   2
Atom   9C    basis set group =>   3
Atom  10O    basis set group =>   2
---------------------------------
AUXILIARY/C BASIS SET INFORMATION
---------------------------------
There are 3 groups of distinct atoms

 Group   1 Type Cr  : 10s10p9d7f5g3h1i contracted to 10s10p9d7f5g3h1i pattern {1111111111/1111111111/111111111/1111111/11111/111/1}
 Group   2 Type O   : 9s7p6d4f1g contracted to 9s7p5d4f1g pattern {111111111/1111111/21111/1111/1}
 Group   3 Type C   : 9s7p6d4f1g contracted to 9s7p5d4f1g pattern {111111111/1111111/21111/1111/1}

Atom   0Cr   basis set group =>   1
Atom   1O    basis set group =>   2
Atom   2C    basis set group =>   3
Atom   3C    basis set group =>   3
Atom   4O    basis set group =>   2
Atom   5C    basis set group =>   3
Atom   6O    basis set group =>   2
Atom   7C    basis set group =>   3
Atom   8O    basis set group =>   2
Atom   9C    basis set group =>   3
Atom  10O    basis set group =>   2
----------------------------------
AUXILIARY/JK BASIS SET INFORMATION
----------------------------------
There are 3 groups of distinct atoms

 Group   1 Type Cr  : 19s14p12d10f7g3h1i contracted to 16s13p11d9f5g3h1i pattern {4111111111111111/2111111111111/21111111111/211111111/31111/111/1}
 Group   2 Type O   : 14s10p6d2f1g contracted to 10s8p4d2f1g pattern {5111111111/31111111/3111/11/1}
 Group   3 Type C   : 14s10p6d2f1g contracted to 10s8p5d1f1g pattern {5111111111/31111111/21111/2/1}

Atom   0Cr   basis set group =>   1
Atom   1O    basis set group =>   2
Atom   2C    basis set group =>   3
Atom   3C    basis set group =>   3
Atom   4O    basis set group =>   2
Atom   5C    basis set group =>   3
Atom   6O    basis set group =>   2
Atom   7C    basis set group =>   3
Atom   8O    basis set group =>   2
Atom   9C    basis set group =>   3
Atom  10O    basis set group =>   2


           ************************************************************
           *        Program running with 24 parallel MPI-processes    *
           *              working on a common directory               *
           ************************************************************
------------------------------------------------------------------------------
                           ORCA GTO INTEGRAL CALCULATION
                           -- RI-GTO INTEGRALS CHOSEN --
------------------------------------------------------------------------------

                         BASIS SET STATISTICS AND STARTUP INFO

Gaussian basis set:
 # of primitive gaussian shells          ...  265
 # of primitive gaussian functions       ...  649
 # of contracted shells                  ...  154
 # of contracted basis functions         ...  452
 Highest angular momentum                ...    4
 Maximum contraction depth               ...    8
Auxiliary gaussian basis set:
 # of primitive gaussian shells          ...  396
 # of primitive gaussian functions       ... 1270
 # of contracted shells                  ...  308
 # of contracted aux-basis functions     ... 1024
 Highest angular momentum                ...    6
 Maximum contraction depth               ...    5
Ratio of auxiliary to basis functions    ...  2.27
Integral package used                  ... LIBINT
 One Electron integrals                  ... done
 Ordering auxiliary basis shells         ... done
 Integral threshhold             Thresh  ...  1.000e-10
 Primitive cut-off               TCut    ...  1.000e-11
 Pre-screening matrix                    ... done
 Shell pair data                         ... 
 Ordering of the shell pairs             ... done (   0.002 sec) 10695 of 11935 pairs
 Determination of significant pairs      ... done (   0.000 sec)
 Creation of shell pair data             ... done (   0.001 sec)
 Storage of shell pair data              ... done (   0.005 sec)
 Shell pair data done in (   0.008 sec)
 Computing two index integrals           ... done
 Cholesky decomposition of the V-matrix  ... done


Timings:
 Total evaluation time                   ...   0.499 sec (  0.008 min)
 One electron matrix time                ...   0.116 sec (  0.002 min) = 23.2%
 Schwartz matrix evaluation time         ...   0.231 sec (  0.004 min) = 46.3%
 Two index repulsion integral time       ...   0.058 sec (  0.001 min) = 11.6%
 Cholesky decomposition of V             ...   0.053 sec (  0.001 min) = 10.6%
 Three index repulsion integral time     ...   0.000 sec (  0.000 min) =  0.0%



           ************************************************************
           *        Program running with 24 parallel MPI-processes    *
           *              working on a common directory               *
           ************************************************************
-------------------------------------------------------------------------------
                                 ORCA SCF
-------------------------------------------------------------------------------

------------
SCF SETTINGS
------------
Hamiltonian:
 Density Functional     Method          .... DFT(GTOs)
 Exchange Functional    Exchange        .... B88
   X-Alpha parameter    XAlpha          ....  0.666667
   Becke's b parameter  XBeta           ....  0.004200
 Correlation Functional Correlation     .... LYP
 LDA part of GGA corr.  LDAOpt          .... VWN-3
 Gradients option       PostSCFGGA      .... off
 Hybrid DFT is turned on
   Fraction HF Exchange ScalHFX         ....  0.530000
   Scaling of DF-GGA-X  ScalDFX         ....  0.470000
   Scaling of DF-GGA-C  ScalDFC         ....  0.730000
   Scaling of DF-LDA-C  ScalLDAC        ....  0.730000
   Perturbative correction              ....  0.270000
   Density functional embedding theory  .... OFF
 RI-approximation to the Coulomb term is turned on
   Number of auxiliary basis functions  .... 1024
   RI-JK (J+K treated both via RI)      .... on


General Settings:
 Integral files         IntName         .... MOR07_ed01
 Hartree-Fock type      HFTyp           .... RHF
 Total Charge           Charge          ....    0
 Multiplicity           Mult            ....    1
 Number of Electrons    NEL             ....   94
 Basis Dimension        Dim             ....  452
 Nuclear Repulsion      ENuc            ....    753.7684398673 Eh

Convergence Acceleration:
 DIIS                   CNVDIIS         .... on
   Start iteration      DIISMaxIt       ....    12
   Startup error        DIISStart       ....  0.200000
   # of expansion vecs  DIISMaxEq       ....     5
   Bias factor          DIISBfac        ....   1.050
   Max. coefficient     DIISMaxC        ....  10.000
 Newton-Raphson         CNVNR           .... off
 SOSCF                  CNVSOSCF        .... off
 Level Shifting         CNVShift        .... on
   Level shift para.    LevelShift      ....    0.2500
   Turn off err/grad.   ShiftErr        ....    0.0010
 Zerner damping         CNVZerner       .... off
 Static damping         CNVDamp         .... on
   Fraction old density DampFac         ....    0.7000
   Max. Damping (<1)    DampMax         ....    0.9800
   Min. Damping (>=0)   DampMin         ....    0.0000
   Turn off err/grad.   DampErr         ....    0.1000
 Fernandez-Rico         CNVRico         .... off

SCF Procedure:
 Maximum # iterations   MaxIter         ....   125
 SCF integral mode      SCFMode         .... Direct
   Integral package                     .... LIBINT
 Reset frequency        DirectResetFreq ....    20
 Integral Threshold     Thresh          ....  1.000e-10 Eh
 Primitive CutOff       TCut            ....  1.000e-11 Eh

Convergence Tolerance:
 Convergence Check Mode ConvCheckMode   .... Total+1el-Energy
 Convergence forced     ConvForced      .... 0
 Energy Change          TolE            ....  1.000e-06 Eh
 1-El. energy change                    ....  1.000e-03 Eh
 DIIS Error             TolErr          ....  1.000e-06


Diagonalization of the overlap matrix:
Smallest eigenvalue                        ... 1.041e-05
Time for diagonalization                   ...    0.030 sec
Threshold for overlap eigenvalues          ... 1.000e-08
Number of eigenvalues below threshold      ... 0
Time for construction of square roots      ...    0.026 sec
Total time needed                          ...    0.058 sec

-------------------
DFT GRID GENERATION
-------------------

General Integration Accuracy     IntAcc      ...  4.670
Radial Grid Type                 RadialGrid  ... Gauss-Chebyshev
Angular Grid (max. acc.)         AngularGrid ... Lebedev-302
Angular grid pruning method      GridPruning ... 3 (G Style)
Weight generation scheme         WeightScheme... Becke
Basis function cutoff            BFCut       ...    1.0000e-10
Integration weight cutoff        WCut        ...    1.0000e-14
Grids for H and He will be reduced by one unit

# of grid points (after initial pruning)     ...  71784 (   0.0 sec)
# of grid points (after weights+screening)   ...  67810 (   0.0 sec)
nearest neighbour list constructed           ...    0.0 sec
Grid point re-assignment to atoms done       ...    0.0 sec
Grid point division into batches done        ...    0.3 sec
Reduced shell lists constructed in    0.4 sec

Total number of grid points                  ...    67810
Total number of batches                      ...     1063
Average number of points per batch           ...       63
Average number of grid points per atom       ...     6165
Average number of shells per batch           ...   110.87 (71.99%)
Average number of basis functions per batch  ...   340.48 (75.33%)
Average number of large shells per batch     ...    94.52 (85.25%)
Average number of large basis fcns per batch ...   288.09 (84.61%)
Average number of aux-shells per batch       ...   110.87 (36.00%)
Average number of aux functions per batch    ...   340.48 (33.25%)
Maximum spatial batch extension              ...   4.97,  3.91, 18.21 au
Average spatial batch extension              ...   0.07,  0.07,  0.08 au

Time for grid setup =    0.519 sec

------------------------------
INITIAL GUESS: MODEL POTENTIAL
------------------------------
Loading Hartree-Fock densities                     ... done
Calculating cut-offs                               ... done
Setting up the integral package                    ... done
Initializing the effective Hamiltonian             ... done
Starting the Coulomb interaction                   ... done (   0.0 sec)
Reading the grid                                   ... done
Mapping shells                                     ... done
Starting the XC term evaluation                    ... done (   0.1 sec)
  promolecular density results
     # of electrons  =     93.999955849
     EX              =   -114.033858468
     EC              =     -1.244139238
     EX+EC           =   -115.277997706
Transforming the Hamiltonian                       ... done (   0.0 sec)
Diagonalizing the Hamiltonian                      ... done (   0.0 sec)
Back transforming the eigenvectors                 ... done (   0.0 sec)
Now organizing SCF variables                       ... done
                      ------------------
                      INITIAL GUESS DONE (   0.8 sec)
                      ------------------
--------------
SCF ITERATIONS
--------------
ITER       Energy         Delta-E        Max-DP      RMS-DP      [F,P]     Damp
  0  -1609.8108214555   0.000000000000 0.30896717  0.00098162  0.1988734 0.7000
  1  -1609.6280978234   0.182723632140 0.25952853  0.00083397  0.1465541 0.7000
                               ***Turning on DIIS***
  2  -1609.7153744453  -0.087276621882 0.58492267  0.00184092  0.0585864 0.0000
  3  -1609.9840482544  -0.268673809165 0.04154506  0.00039525  0.0994349 0.0000
  4  -1610.0204879805  -0.036439726069 0.01330276  0.00017717  0.0159404 0.0000
  5  -1610.0234415382  -0.002953557726 0.01795245  0.00009263  0.0088855 0.0000
  6  -1610.0240838219  -0.000642283720 0.00738289  0.00004832  0.0107235 0.0000
  7  -1610.0242031567  -0.000119334784 0.00635075  0.00002862  0.0090040 0.0000
  8  -1610.0243358269  -0.000132670128 0.00335317  0.00001546  0.0035242 0.0000
  9  -1610.0243601553  -0.000024328475 0.00176846  0.00001011  0.0016907 0.0000
 10  -1610.0243699082  -0.000009752850 0.00075810  0.00000816  0.0005667 0.0000
 11  -1610.0243723228  -0.000002414589 0.00029145  0.00000304  0.0002278 0.0000
 12  -1610.0243726452  -0.000000322396 0.00022110  0.00000245  0.0002247 0.0000
                 **** Energy Check signals convergence ****

               *****************************************************
               *                     SUCCESS                       *
               *           SCF CONVERGED AFTER  13 CYCLES          *
               *****************************************************


----------------
TOTAL SCF ENERGY
----------------

Total Energy       :        -1610.02437279 Eh          -43810.99049 eV

Components:
Nuclear Repulsion  :          753.76843987 Eh           20511.08201 eV
Electronic Energy  :        -2363.79281266 Eh          -64322.07250 eV
One Electron Energy:        -3709.16313804 Eh         -100931.46024 eV
Two Electron Energy:         1345.37032538 Eh           36609.38774 eV

Virial components:
Potential Energy   :        -3217.03746918 Eh          -87540.03999 eV
Kinetic Energy     :         1607.01309639 Eh           43729.04949 eV
Virial Ratio       :            2.00187383


DFT components:
N(Alpha)           :       46.999973235873 electrons
N(Beta)            :       46.999973235873 electrons
N(Total)           :       93.999946471746 electrons
E(X)               :      -53.935089893107 Eh       
E(C)               :       -2.619629029359 Eh       
E(XC)              :      -56.554718922466 Eh       
DFET-embed. en.    :        0.000000000000 Eh       

---------------
SCF CONVERGENCE
---------------

  Last Energy change         ...   -1.4608e-07  Tolerance :   1.0000e-06
  Last MAX-Density change    ...    2.2385e-04  Tolerance :   1.0000e-05
  Last RMS-Density change    ...    2.7767e-06  Tolerance :   1.0000e-06
  Last DIIS Error            ...    7.8304e-05  Tolerance :   1.0000e-06

             **** THE GBW FILE WAS UPDATED (MOR07_ed01.gbw) ****
             **** DENSITY FILE WAS UPDATED (MOR07_ed01.scfp) ****
             **** ENERGY FILE WAS UPDATED (MOR07_ed01.en.tmp) ****
             **** THE GBW FILE WAS UPDATED (MOR07_ed01.gbw) ****
             **** DENSITY FILE WAS UPDATED (MOR07_ed01.scfp) ****
----------------
ORBITAL ENERGIES
----------------

  NO   OCC          E(Eh)            E(eV) 
   0   2.0000    -217.791312     -5926.4029 
   1   2.0000     -25.461799      -692.8508 
   2   2.0000     -21.600578      -587.7816 
   3   2.0000     -21.600577      -587.7816 
   4   2.0000     -21.598677      -587.7299 
   5   2.0000     -19.828633      -539.5645 
   6   2.0000     -19.828622      -539.5642 
   7   2.0000     -19.828619      -539.5642 
   8   2.0000     -19.828617      -539.5641 
   9   2.0000     -19.802945      -538.8655 
  10   2.0000     -10.760316      -292.8031 
  11   2.0000     -10.760308      -292.8029 
  12   2.0000     -10.760305      -292.8028 
  13   2.0000     -10.760303      -292.8027 
  14   2.0000     -10.742267      -292.3120 
  15   2.0000      -3.142968       -85.5245 
  16   2.0000      -2.013270       -54.7839 
  17   2.0000      -2.013268       -54.7838 
  18   2.0000      -2.010799       -54.7166 
  19   2.0000      -1.301886       -35.4261 
  20   2.0000      -1.301249       -35.4088 
  21   2.0000      -1.301242       -35.4086 
  22   2.0000      -1.300810       -35.3968 
  23   2.0000      -1.276235       -34.7281 
  24   2.0000      -0.713210       -19.4074 
  25   2.0000      -0.678181       -18.4542 
  26   2.0000      -0.678176       -18.4541 
  27   2.0000      -0.674239       -18.3470 
  28   2.0000      -0.660339       -17.9687 
  29   2.0000      -0.593058       -16.1379 
  30   2.0000      -0.562867       -15.3164 
  31   2.0000      -0.558538       -15.1986 
  32   2.0000      -0.558533       -15.1985 
  33   2.0000      -0.553549       -15.0628 
  34   2.0000      -0.550670       -14.9845 
  35   2.0000      -0.550667       -14.9844 
  36   2.0000      -0.541415       -14.7327 
  37   2.0000      -0.535120       -14.5614 
  38   2.0000      -0.525659       -14.3039 
  39   2.0000      -0.525658       -14.3039 
  40   2.0000      -0.524800       -14.2805 
  41   2.0000      -0.501183       -13.6379 
  42   2.0000      -0.495305       -13.4779 
  43   2.0000      -0.495296       -13.4777 
  44   2.0000      -0.295903        -8.0519 
  45   2.0000      -0.295899        -8.0518 
  46   2.0000      -0.293058        -7.9745 
  47   0.0000      -0.074903        -2.0382 
  48   0.0000       0.006490         0.1766 
  49   0.0000       0.006498         0.1768 
  50   0.0000       0.017112         0.4656 
  51   0.0000       0.024723         0.6727 
  52   0.0000       0.030306         0.8247 
  53   0.0000       0.030310         0.8248 
  54   0.0000       0.031764         0.8643 
  55   0.0000       0.047519         1.2931 
  56   0.0000       0.047527         1.2933 
  57   0.0000       0.050733         1.3805 
  58   0.0000       0.059778         1.6266 
  59   0.0000       0.063956         1.7403 
  60   0.0000       0.068748         1.8707 
  61   0.0000       0.068766         1.8712 
  62   0.0000       0.077732         2.1152 
  63   0.0000       0.081539         2.2188 
  64   0.0000       0.081541         2.2188 
  65   0.0000       0.087587         2.3834 
  66   0.0000       0.090574         2.4646 
  67   0.0000       0.094106         2.5608 
  68   0.0000       0.094122         2.5612 
  69   0.0000       0.107626         2.9287 
  70   0.0000       0.113482         3.0880 
  71   0.0000       0.118310         3.2194 
  72   0.0000       0.119344         3.2475 
  73   0.0000       0.119350         3.2477 
  74   0.0000       0.123923         3.3721 
  75   0.0000       0.137957         3.7540 
  76   0.0000       0.137991         3.7549 
  77   0.0000       0.142283         3.8717 
  78   0.0000       0.155471         4.2306 
  79   0.0000       0.162422         4.4197 
  80   0.0000       0.169851         4.6219 
  81   0.0000       0.169864         4.6222 
  82   0.0000       0.170704         4.6451 
  83   0.0000       0.178933         4.8690 
  84   0.0000       0.187261         5.0956 
  85   0.0000       0.200015         5.4427 
  86   0.0000       0.200046         5.4435 
  87   0.0000       0.218984         5.9589 
  88   0.0000       0.233041         6.3414 
  89   0.0000       0.244909         6.6643 
  90   0.0000       0.262766         7.1502 
  91   0.0000       0.262785         7.1507 
  92   0.0000       0.275613         7.4998 
  93   0.0000       0.275620         7.5000 
  94   0.0000       0.275953         7.5091 
  95   0.0000       0.284222         7.7341 
  96   0.0000       0.288156         7.8411 
  97   0.0000       0.302744         8.2381 
  98   0.0000       0.304910         8.2970 
  99   0.0000       0.313586         8.5331 
 100   0.0000       0.313640         8.5346 
 101   0.0000       0.317072         8.6280 
 102   0.0000       0.323305         8.7976 
 103   0.0000       0.323435         8.8011 
 104   0.0000       0.326616         8.8877 
 105   0.0000       0.348596         9.4858 
 106   0.0000       0.348619         9.4864 
 107   0.0000       0.362438         9.8624 
 108   0.0000       0.372485        10.1358 
 109   0.0000       0.386910        10.5284 
 110   0.0000       0.386934        10.5290 
 111   0.0000       0.387106        10.5337 
 112   0.0000       0.390559        10.6276 
 113   0.0000       0.398161        10.8345 
 114   0.0000       0.401558        10.9269 
 115   0.0000       0.401565        10.9271 
 116   0.0000       0.407301        11.0832 
 117   0.0000       0.407303        11.0833 
 118   0.0000       0.409519        11.1436 
 119   0.0000       0.425687        11.5835 
 120   0.0000       0.449473        12.2308 
 121   0.0000       0.452690        12.3183 
 122   0.0000       0.501534        13.6474 
 123   0.0000       0.501549        13.6478 
 124   0.0000       0.510582        13.8937 
 125   0.0000       0.522311        14.2128 
 126   0.0000       0.539931        14.6923 
 127   0.0000       0.550509        14.9801 
 128   0.0000       0.550550        14.9812 
 129   0.0000       0.551443        15.0055 
 130   0.0000       0.562049        15.2941 
 131   0.0000       0.575129        15.6501 
 132   0.0000       0.575154        15.6507 
 133   0.0000       0.580271        15.7900 
 134   0.0000       0.580293        15.7906 
 135   0.0000       0.587161        15.9775 
 136   0.0000       0.592000        16.1091 
 137   0.0000       0.593599        16.1526 
 138   0.0000       0.595195        16.1961 
 139   0.0000       0.595242        16.1973 
 140   0.0000       0.602448        16.3934 
 141   0.0000       0.603732        16.4284 
 142   0.0000       0.603751        16.4289 
 143   0.0000       0.624633        16.9971 
 144   0.0000       0.625023        17.0077 
 145   0.0000       0.625073        17.0091 
 146   0.0000       0.636249        17.3132 
 147   0.0000       0.648041        17.6341 
 148   0.0000       0.658553        17.9201 
 149   0.0000       0.658609        17.9217 
 150   0.0000       0.663390        18.0517 
 151   0.0000       0.671429        18.2705 
 152   0.0000       0.692958        18.8564 
 153   0.0000       0.715060        19.4578 
 154   0.0000       0.719220        19.5710 
 155   0.0000       0.724109        19.7040 
 156   0.0000       0.724163        19.7055 
 157   0.0000       0.729297        19.8452 
 158   0.0000       0.734310        19.9816 
 159   0.0000       0.746432        20.3115 
 160   0.0000       0.746442        20.3117 
 161   0.0000       0.749197        20.3867 
 162   0.0000       0.774115        21.0647 
 163   0.0000       0.774143        21.0655 
 164   0.0000       0.787148        21.4194 
 165   0.0000       0.791052        21.5256 
 166   0.0000       0.795059        21.6347 
 167   0.0000       0.803656        21.8686 
 168   0.0000       0.803768        21.8717 
 169   0.0000       0.805094        21.9077 
 170   0.0000       0.805312        21.9137 
 171   0.0000       0.837519        22.7901 
 172   0.0000       0.854517        23.2526 
 173   0.0000       0.857077        23.3223 
 174   0.0000       0.857113        23.3232 
 175   0.0000       0.884848        24.0779 
 176   0.0000       0.893381        24.3101 
 177   0.0000       0.905440        24.6383 
 178   0.0000       0.905470        24.6391 
 179   0.0000       0.923084        25.1184 
 180   0.0000       0.943600        25.6766 
 181   0.0000       0.943614        25.6771 
 182   0.0000       0.953844        25.9554 
 183   0.0000       0.956132        26.0177 
 184   0.0000       0.957835        26.0640 
 185   0.0000       0.970471        26.4079 
 186   0.0000       0.970822        26.4174 
 187   0.0000       0.970836        26.4178 
 188   0.0000       0.986676        26.8488 
 189   0.0000       0.994147        27.0521 
 190   0.0000       0.994167        27.0527 
 191   0.0000       0.998756        27.1775 
 192   0.0000       1.036951        28.2169 
 193   0.0000       1.045870        28.4596 
 194   0.0000       1.048598        28.5338 
 195   0.0000       1.048601        28.5339 
 196   0.0000       1.052782        28.6477 
 197   0.0000       1.052789        28.6478 
 198   0.0000       1.074929        29.2503 
 199   0.0000       1.095953        29.8224 
 200   0.0000       1.095968        29.8228 
 201   0.0000       1.106228        30.1020 
 202   0.0000       1.115921        30.3658 
 203   0.0000       1.188177        32.3319 
 204   0.0000       1.189982        32.3811 
 205   0.0000       1.190000        32.3816 
 206   0.0000       1.256123        34.1808 
 207   0.0000       1.281278        34.8653 
 208   0.0000       1.309633        35.6369 
 209   0.0000       1.328125        36.1401 
 210   0.0000       1.339918        36.4610 
 211   0.0000       1.339928        36.4613 
 212   0.0000       1.355959        36.8975 
 213   0.0000       1.356003        36.8987 
 214   0.0000       1.374556        37.4036 
 215   0.0000       1.419733        38.6329 
 216   0.0000       1.421238        38.6739 
 217   0.0000       1.469328        39.9825 
 218   0.0000       1.473046        40.0836 
 219   0.0000       1.473071        40.0843 
 220   0.0000       1.643308        44.7167 
 221   0.0000       1.678973        45.6872 
 222   0.0000       1.688421        45.9443 
 223   0.0000       1.688469        45.9456 
 224   0.0000       1.729621        47.0654 
 225   0.0000       1.768076        48.1118 
 226   0.0000       1.785226        48.5785 
 227   0.0000       1.785243        48.5789 
 228   0.0000       1.808212        49.2040 
 229   0.0000       1.816519        49.4300 
 230   0.0000       1.816553        49.4309 
 231   0.0000       1.842322        50.1321 
 232   0.0000       1.842341        50.1326 
 233   0.0000       1.848698        50.3056 
 234   0.0000       1.860324        50.6220 
 235   0.0000       1.862212        50.6734 
 236   0.0000       1.878275        51.1105 
 237   0.0000       1.878320        51.1117 
 238   0.0000       1.891593        51.4729 
 239   0.0000       1.893968        51.5375 
 240   0.0000       1.907104        51.8949 
 241   0.0000       1.907141        51.8959 
 242   0.0000       1.935288        52.6619 
 243   0.0000       1.942257        52.8515 
 244   0.0000       1.956604        53.2419 
 245   0.0000       1.977719        53.8165 
 246   0.0000       1.985213        54.0204 
 247   0.0000       1.985243        54.0212 
 248   0.0000       1.997555        54.3562 
 249   0.0000       2.006323        54.5948 
 250   0.0000       2.020846        54.9900 
 251   0.0000       2.079734        56.5924 
 252   0.0000       2.079744        56.5927 
 253   0.0000       2.092085        56.9285 
 254   0.0000       2.111494        57.4567 
 255   0.0000       2.147963        58.4490 
 256   0.0000       2.148092        58.4526 
 257   0.0000       2.212187        60.1967 
 258   0.0000       2.237315        60.8804 
 259   0.0000       2.244614        61.0790 
 260   0.0000       2.244643        61.0798 
 261   0.0000       2.285732        62.1979 
 262   0.0000       2.299996        62.5861 
 263   0.0000       2.393763        65.1376 
 264   0.0000       2.394462        65.1566 
 265   0.0000       2.394542        65.1588 
 266   0.0000       2.448271        66.6208 
 267   0.0000       2.448305        66.6218 
 268   0.0000       2.451178        66.6999 
 269   0.0000       2.457700        66.8774 
 270   0.0000       2.457729        66.8782 
 271   0.0000       2.466497        67.1168 
 272   0.0000       2.473593        67.3099 
 273   0.0000       2.488248        67.7087 
 274   0.0000       2.506937        68.2172 
 275   0.0000       2.506995        68.2188 
 276   0.0000       2.521301        68.6081 
 277   0.0000       2.521380        68.6102 
 278   0.0000       2.579686        70.1968 
 279   0.0000       2.583348        70.2965 
 280   0.0000       2.774219        75.4903 
 281   0.0000       2.776442        75.5508 
 282   0.0000       2.776474        75.5517 
 283   0.0000       2.788012        75.8657 
 284   0.0000       2.788467        75.8781 
 285   0.0000       2.788513        75.8793 
 286   0.0000       2.791445        75.9591 
 287   0.0000       2.804878        76.3246 
 288   0.0000       2.874340        78.2148 
 289   0.0000       2.874367        78.2155 
 290   0.0000       2.918879        79.4267 
 291   0.0000       2.918882        79.4268 
 292   0.0000       2.935069        79.8673 
 293   0.0000       2.947228        80.1981 
 294   0.0000       2.973813        80.9216 
 295   0.0000       2.991043        81.3904 
 296   0.0000       3.019743        82.1714 
 297   0.0000       3.019770        82.1721 
 298   0.0000       3.025435        82.3263 
 299   0.0000       3.045348        82.8681 
 300   0.0000       3.045385        82.8691 
 301   0.0000       3.046941        82.9115 
 302   0.0000       3.082221        83.8715 
 303   0.0000       3.119758        84.8929 
 304   0.0000       3.133514        85.2672 
 305   0.0000       3.149015        85.6891 
 306   0.0000       3.149021        85.6892 
 307   0.0000       3.169452        86.2452 
 308   0.0000       3.170859        86.2835 
 309   0.0000       3.170873        86.2838 
 310   0.0000       3.217603        87.5554 
 311   0.0000       3.220545        87.6355 
 312   0.0000       3.220566        87.6361 
 313   0.0000       3.225258        87.7637 
 314   0.0000       3.233515        87.9884 
 315   0.0000       3.251461        88.4768 
 316   0.0000       3.279274        89.2336 
 317   0.0000       3.284083        89.3644 
 318   0.0000       3.298976        89.7697 
 319   0.0000       3.346460        91.0618 
 320   0.0000       3.346470        91.0621 
 321   0.0000       3.356107        91.3243 
 322   0.0000       3.380325        91.9833 
 323   0.0000       3.380397        91.9853 
 324   0.0000       3.385991        92.1375 
 325   0.0000       3.412843        92.8682 
 326   0.0000       3.412855        92.8685 
 327   0.0000       3.415230        92.9331 
 328   0.0000       3.468662        94.3871 
 329   0.0000       3.493383        95.0598 
 330   0.0000       3.518891        95.7539 
 331   0.0000       3.542808        96.4047 
 332   0.0000       3.542898        96.4071 
 333   0.0000       3.552409        96.6660 
 334   0.0000       3.575861        97.3041 
 335   0.0000       3.575950        97.3066 
 336   0.0000       3.602907        98.0401 
 337   0.0000       3.610422        98.2446 
 338   0.0000       3.610459        98.2456 
 339   0.0000       3.638251        99.0018 
 340   0.0000       3.650280        99.3292 
 341   0.0000       3.697369       100.6105 
 342   0.0000       3.707076       100.8747 
 343   0.0000       3.719801       101.2209 
 344   0.0000       3.727392       101.4275 
 345   0.0000       3.727415       101.4281 
 346   0.0000       3.784576       102.9835 
 347   0.0000       3.784600       102.9842 
 348   0.0000       3.801959       103.4566 
 349   0.0000       3.997844       108.7869 
 350   0.0000       4.005701       109.0007 
 351   0.0000       4.005718       109.0011 
 352   0.0000       4.020262       109.3969 
 353   0.0000       4.054550       110.3299 
 354   0.0000       4.081519       111.0638 
 355   0.0000       4.081574       111.0653 
 356   0.0000       4.520512       123.0094 
 357   0.0000       4.556125       123.9785 
 358   0.0000       4.556154       123.9793 
 359   0.0000       4.618420       125.6736 
 360   0.0000       4.639399       126.2445 
 361   0.0000       4.687540       127.5545 
 362   0.0000       4.868196       132.4704 
 363   0.0000       4.895765       133.2205 
 364   0.0000       4.895814       133.2219 
 365   0.0000       4.988070       135.7323 
 366   0.0000       5.259640       143.1221 
 367   0.0000       5.259647       143.1223 
 368   0.0000       5.259735       143.1247 
 369   0.0000       5.260214       143.1377 
 370   0.0000       5.260286       143.1397 
 371   0.0000       5.261572       143.1747 
 372   0.0000       5.261634       143.1763 
 373   0.0000       5.261639       143.1765 
 374   0.0000       5.284164       143.7894 
 375   0.0000       5.284168       143.7895 
 376   0.0000       5.646262       153.6426 
 377   0.0000       5.646267       153.6427 
 378   0.0000       5.650784       153.7656 
 379   0.0000       5.654272       153.8606 
 380   0.0000       5.665615       154.1692 
 381   0.0000       5.665623       154.1694 
 382   0.0000       5.667183       154.2119 
 383   0.0000       5.669366       154.2713 
 384   0.0000       5.682021       154.6157 
 385   0.0000       5.717920       155.5925 
 386   0.0000       5.860727       159.4785 
 387   0.0000       5.860746       159.4790 
 388   0.0000       5.871914       159.7829 
 389   0.0000       5.894582       160.3997 
 390   0.0000       5.903351       160.6383 
 391   0.0000       5.903361       160.6386 
 392   0.0000       6.098545       165.9498 
 393   0.0000       6.266976       170.5331 
 394   0.0000       6.372607       173.4074 
 395   0.0000       6.380944       173.6343 
 396   0.0000       6.380955       173.6346 
 397   0.0000       6.414161       174.5382 
 398   0.0000       6.540686       177.9811 
 399   0.0000       6.551138       178.2655 
 400   0.0000       6.565327       178.6516 
 401   0.0000       6.565359       178.6525 
 402   0.0000       6.576978       178.9687 
 403   0.0000       6.598505       179.5544 
 404   0.0000       6.598512       179.5546 
 405   0.0000       6.623575       180.2366 
 406   0.0000       6.623592       180.2371 
 407   0.0000       6.624693       180.2671 
 408   0.0000       6.626369       180.3127 
 409   0.0000       6.636459       180.5872 
 410   0.0000       6.638734       180.6491 
 411   0.0000       6.638749       180.6495 
 412   0.0000       6.639486       180.6696 
 413   0.0000       6.649991       180.9555 
 414   0.0000       6.663048       181.3108 
 415   0.0000       6.670187       181.5050 
 416   0.0000       6.802045       185.0930 
 417   0.0000       6.802061       185.0935 
 418   0.0000       6.802770       185.1128 
 419   0.0000       6.909549       188.0184 
 420   0.0000       6.983717       190.0366 
 421   0.0000       6.983736       190.0371 
 422   0.0000       6.995637       190.3610 
 423   0.0000       7.015698       190.9069 
 424   0.0000       7.026796       191.2088 
 425   0.0000       7.026804       191.2090 
 426   0.0000       7.062722       192.1864 
 427   0.0000       7.083622       192.7552 
 428   0.0000       7.087085       192.8494 
 429   0.0000       7.091170       192.9605 
 430   0.0000       7.091173       192.9606 
 431   0.0000       7.139065       194.2638 
 432   0.0000       7.151638       194.6060 
 433   0.0000       7.151667       194.6068 
 434   0.0000       7.178398       195.3341 
 435   0.0000       7.306017       198.8068 
 436   0.0000       7.306024       198.8070 
 437   0.0000       7.385946       200.9818 
 438   0.0000       7.418672       201.8723 
 439   0.0000       7.471368       203.3063 
 440   0.0000       7.568123       205.9391 
 441   0.0000       7.568150       205.9398 
 442   0.0000      23.557517       641.0326 
 443   0.0000      23.557669       641.0368 
 444   0.0000      23.791237       647.3925 
 445   0.0000      23.818486       648.1340 
 446   0.0000      24.011447       653.3847 
 447   0.0000      44.619326      1214.1536 
 448   0.0000      44.804702      1219.1979 
 449   0.0000      44.804720      1219.1984 
 450   0.0000      44.833558      1219.9831 
 451   0.0000      44.874518      1221.0977 

                    ********************************
                    * MULLIKEN POPULATION ANALYSIS *
                    ********************************

-----------------------
MULLIKEN ATOMIC CHARGES
-----------------------
   0 Cr:   -0.369464
   1 O :   -0.287995
   2 C :    0.371011
   3 C :    0.360526
   4 O :   -0.323014
   5 C :    0.371026
   6 O :   -0.288014
   7 C :    0.370893
   8 O :   -0.287970
   9 C :    0.371001
  10 O :   -0.288000
Sum of atomic charges:   -0.0000000

--------------------------------
MULLIKEN REDUCED ORBITAL CHARGES
--------------------------------
  0 Crs       :     6.762251  s :     6.762251
      pz      :     4.122613  p :    12.394406
      px      :     4.135880
      py      :     4.135914
      dz2     :     0.367114  d :     5.193176
      dxz     :     1.502694
      dyz     :     1.502706
      dx2y2   :     1.341348
      dxy     :     0.479314
      f0      :     0.003579  f :     0.019380
      f+1     :     0.003082
      f-1     :     0.003082
      f+2     :     0.000007
      f-2     :     0.000775
      f+3     :     0.004427
      f-3     :     0.004428
      g0      :     0.000056  g :     0.000251
      g+1     :     0.000011
      g-1     :     0.000011
      g+2     :     0.000005
      g-2     :     0.000055
      g+3     :     0.000008
      g-3     :     0.000008
      g+4     :     0.000078
      g-4     :     0.000018
  1 O s       :     3.903807  s :     3.903807
      pz      :     1.489050  p :     4.329527
      px      :     1.410922
      py      :     1.429554
      dz2     :     0.003744  d :     0.052811
      dxz     :     0.010741
      dyz     :     0.008638
      dx2y2   :     0.018844
      dxy     :     0.010844
      f0      :     0.000252  f :     0.001849
      f+1     :     0.000118
      f-1     :     0.000103
      f+2     :     0.000012
      f-2     :     0.000430
      f+3     :     0.000526
      f-3     :     0.000408
  2 C s       :     3.433385  s :     3.433385
      pz      :     0.580109  p :     2.053338
      px      :     0.752691
      py      :     0.720538
      dz2     :     0.003300  d :     0.124925
      dxz     :     0.030644
      dyz     :     0.025403
      dx2y2   :     0.059995
      dxy     :     0.005584
      f0      :     0.002200  f :     0.017341
      f+1     :     0.001281
      f-1     :     0.001104
      f+2     :     0.000274
      f-2     :     0.003743
      f+3     :     0.004770
      f-3     :     0.003969
  3 C s       :     3.335053  s :     3.335053
      pz      :     0.920864  p :     2.127414
      px      :     0.603275
      py      :     0.603275
      dz2     :     0.014333  d :     0.158650
      dxz     :     0.065904
      dyz     :     0.065904
      dx2y2   :     0.005158
      dxy     :     0.007352
      f0      :     0.005487  f :     0.018356
      f+1     :     0.006223
      f-1     :     0.006223
      f+2     :     0.000229
      f-2     :     0.000170
      f+3     :     0.000011
      f-3     :     0.000011
  4 O s       :     3.907798  s :     3.907798
      pz      :     1.325467  p :     4.364140
      px      :     1.519336
      py      :     1.519337
      dz2     :     0.011940  d :     0.049267
      dxz     :     0.018882
      dyz     :     0.018883
      dx2y2   :    -0.000133
      dxy     :    -0.000306
      f0      :     0.000450  f :     0.001809
      f+1     :     0.000679
      f-1     :     0.000679
      f+2     :     0.000001
      f-2     :     0.000000
      f+3     :    -0.000000
      f-3     :    -0.000000
  5 C s       :     3.433300  s :     3.433300
      pz      :     0.580140  p :     2.053388
      px      :     0.752846
      py      :     0.720402
      dz2     :     0.003299  d :     0.124944
      dxz     :     0.030665
      dyz     :     0.025394
      dx2y2   :     0.059992
      dxy     :     0.005595
      f0      :     0.002200  f :     0.017341
      f+1     :     0.001281
      f-1     :     0.001104
      f+2     :     0.000275
      f-2     :     0.003742
      f+3     :     0.004773
      f-3     :     0.003966
  6 O s       :     3.903801  s :     3.903801
      pz      :     1.489065  p :     4.329552
      px      :     1.410853
      py      :     1.429633
      dz2     :     0.003744  d :     0.052811
      dxz     :     0.010749
      dyz     :     0.008631
      dx2y2   :     0.018842
      dxy     :     0.010846
      f0      :     0.000252  f :     0.001849
      f+1     :     0.000118
      f-1     :     0.000103
      f+2     :     0.000012
      f-2     :     0.000430
      f+3     :     0.000526
      f-3     :     0.000407
  7 C s       :     3.433452  s :     3.433452
      pz      :     0.580176  p :     2.053356
      px      :     0.720542
      py      :     0.752638
      dz2     :     0.003302  d :     0.124958
      dxz     :     0.025409
      dyz     :     0.030647
      dx2y2   :     0.059995
      dxy     :     0.005604
      f0      :     0.002200  f :     0.017341
      f+1     :     0.001105
      f-1     :     0.001282
      f+2     :     0.000275
      f-2     :     0.003742
      f+3     :     0.003969
      f-3     :     0.004769
  8 O s       :     3.903756  s :     3.903756
      pz      :     1.489069  p :     4.329551
      px      :     1.429550
      py      :     1.410932
      dz2     :     0.003747  d :     0.052814
      dxz     :     0.008638
      dyz     :     0.010739
      dx2y2   :     0.018843
      dxy     :     0.010846
      f0      :     0.000252  f :     0.001849
      f+1     :     0.000103
      f-1     :     0.000118
      f+2     :     0.000012
      f-2     :     0.000430
      f+3     :     0.000408
      f-3     :     0.000526
  9 C s       :     3.433376  s :     3.433376
      pz      :     0.580144  p :     2.053344
      px      :     0.720403
      py      :     0.752798
      dz2     :     0.003299  d :     0.124938
      dxz     :     0.025394
      dyz     :     0.030660
      dx2y2   :     0.059982
      dxy     :     0.005603
      f0      :     0.002200  f :     0.017341
      f+1     :     0.001104
      f-1     :     0.001281
      f+2     :     0.000275
      f-2     :     0.003742
      f+3     :     0.003966
      f-3     :     0.004772
 10 O s       :     3.903795  s :     3.903795
      pz      :     1.489069  p :     4.329544
      px      :     1.429616
      py      :     1.410860
      dz2     :     0.003746  d :     0.052812
      dxz     :     0.008631
      dyz     :     0.010747
      dx2y2   :     0.018843
      dxy     :     0.010846
      f0      :     0.000252  f :     0.001849
      f+1     :     0.000103
      f-1     :     0.000118
      f+2     :     0.000012
      f-2     :     0.000430
      f+3     :     0.000407
      f-3     :     0.000526


                     *******************************
                     * LOEWDIN POPULATION ANALYSIS *
                     *******************************

----------------------
LOEWDIN ATOMIC CHARGES
----------------------
   0 Cr:   -0.273617
   1 O :    0.127445
   2 C :   -0.053640
   3 C :   -0.139250
   4 O :    0.117808
   5 C :   -0.053696
   6 O :    0.127448
   7 C :   -0.053702
   8 O :    0.127443
   9 C :   -0.053683
  10 O :    0.127443

-------------------------------
LOEWDIN REDUCED ORBITAL CHARGES
-------------------------------
  0 Crs       :     5.960404  s :     5.960404
      pz      :     4.133898  p :    12.754706
      px      :     4.310407
      py      :     4.310402
      dz2     :     0.581043  d :     5.465916
      dxz     :     1.392081
      dyz     :     1.392097
      dx2y2   :     1.236260
      dxy     :     0.864435
      f0      :     0.018049  f :     0.091354
      f+1     :     0.013869
      f-1     :     0.013869
      f+2     :     0.000041
      f-2     :     0.002527
      f+3     :     0.021497
      f-3     :     0.021501
      g0      :     0.000414  g :     0.001237
      g+1     :     0.000020
      g-1     :     0.000020
      g+2     :     0.000011
      g-2     :     0.000281
      g+3     :     0.000011
      g-3     :     0.000011
      g+4     :     0.000421
      g-4     :     0.000047
  1 O s       :     3.385453  s :     3.385453
      pz      :     1.341604  p :     4.295440
      px      :     1.490218
      py      :     1.463617
      dz2     :     0.026851  d :     0.185814
      dxz     :     0.021392
      dyz     :     0.017259
      dx2y2   :     0.037629
      dxy     :     0.082682
      f0      :     0.000480  f :     0.005848
      f+1     :     0.000713
      f-1     :     0.000589
      f+2     :     0.000023
      f-2     :     0.000809
      f+3     :     0.001476
      f-3     :     0.001759
  2 C s       :     2.928307  s :     2.928307
      pz      :     0.581597  p :     2.241451
      px      :     0.857039
      py      :     0.802814
      dz2     :     0.083339  d :     0.796649
      dxz     :     0.132549
      dyz     :     0.109572
      dx2y2   :     0.271519
      dxy     :     0.199669
      f0      :     0.010533  f :     0.087233
      f+1     :     0.007057
      f-1     :     0.006022
      f+2     :     0.000995
      f-2     :     0.017704
      f+3     :     0.023922
      f-3     :     0.021001
  3 C s       :     2.883707  s :     2.883707
      pz      :     1.072449  p :     2.250893
      px      :     0.589222
      py      :     0.589222
      dz2     :     0.273164  d :     0.916297
      dxz     :     0.294240
      dyz     :     0.294240
      dx2y2   :     0.018286
      dxy     :     0.036368
      f0      :     0.030404  f :     0.088353
      f+1     :     0.028436
      f-1     :     0.028436
      f+2     :     0.000637
      f-2     :     0.000359
      f+3     :     0.000039
      f-3     :     0.000039
  4 O s       :     3.377921  s :     3.377921
      pz      :     1.585782  p :     4.312639
      px      :     1.363428
      py      :     1.363428
      dz2     :     0.106643  d :     0.185840
      dxz     :     0.039518
      dyz     :     0.039518
      dx2y2   :     0.000051
      dxy     :     0.000109
      f0      :     0.003248  f :     0.005792
      f+1     :     0.001271
      f-1     :     0.001271
      f+2     :     0.000001
      f-2     :     0.000000
      f+3     :     0.000000
      f-3     :     0.000000
  5 C s       :     2.928262  s :     2.928262
      pz      :     0.581610  p :     2.241462
      px      :     0.857224
      py      :     0.802628
      dz2     :     0.083348  d :     0.796737
      dxz     :     0.132637
      dyz     :     0.109517
      dx2y2   :     0.271544
      dxy     :     0.199691
      f0      :     0.010533  f :     0.087234
      f+1     :     0.007060
      f-1     :     0.006018
      f+2     :     0.000998
      f-2     :     0.017701
      f+3     :     0.023933
      f-3     :     0.020990
  6 O s       :     3.385445  s :     3.385445
      pz      :     1.341617  p :     4.295444
      px      :     1.490304
      py      :     1.463523
      dz2     :     0.026850  d :     0.185815
      dxz     :     0.021408
      dyz     :     0.017246
      dx2y2   :     0.037639
      dxy     :     0.082672
      f0      :     0.000480  f :     0.005848
      f+1     :     0.000714
      f-1     :     0.000588
      f+2     :     0.000023
      f-2     :     0.000809
      f+3     :     0.001475
      f-3     :     0.001760
  7 C s       :     2.928272  s :     2.928272
      pz      :     0.581652  p :     2.241463
      px      :     0.802821
      py      :     0.856990
      dz2     :     0.083342  d :     0.796732
      dxz     :     0.109604
      dyz     :     0.132576
      dx2y2   :     0.271531
      dxy     :     0.199680
      f0      :     0.010529  f :     0.087234
      f+1     :     0.006025
      f-1     :     0.007060
      f+2     :     0.000999
      f-2     :     0.017703
      f+3     :     0.021000
      f-3     :     0.023918
  8 O s       :     3.385444  s :     3.385444
      pz      :     1.341644  p :     4.295448
      px      :     1.463616
      py      :     1.490188
      dz2     :     0.026845  d :     0.185817
      dxz     :     0.017271
      dyz     :     0.021403
      dx2y2   :     0.037626
      dxy     :     0.082672
      f0      :     0.000480  f :     0.005848
      f+1     :     0.000589
      f-1     :     0.000713
      f+2     :     0.000023
      f-2     :     0.000810
      f+3     :     0.001758
      f-3     :     0.001476
  9 C s       :     2.928285  s :     2.928285
      pz      :     0.581618  p :     2.241457
      px      :     0.802649
      py      :     0.857189
      dz2     :     0.083347  d :     0.796708
      dxz     :     0.109535
      dyz     :     0.132629
      dx2y2   :     0.271518
      dxy     :     0.199678
      f0      :     0.010531  f :     0.087233
      f+1     :     0.006020
      f-1     :     0.007061
      f+2     :     0.000999
      f-2     :     0.017701
      f+3     :     0.020991
      f-3     :     0.023930
 10 O s       :     3.385448  s :     3.385448
      pz      :     1.341626  p :     4.295446
      px      :     1.463534
      py      :     1.490286
      dz2     :     0.026849  d :     0.185815
      dxz     :     0.017251
      dyz     :     0.021409
      dx2y2   :     0.037635
      dxy     :     0.082671
      f0      :     0.000480  f :     0.005848
      f+1     :     0.000588
      f-1     :     0.000713
      f+2     :     0.000023
      f-2     :     0.000809
      f+3     :     0.001760
      f-3     :     0.001475


                      *****************************
                      * MAYER POPULATION ANALYSIS *
                      *****************************

  NA   - Mulliken gross atomic population
  ZA   - Total nuclear charge
  QA   - Mulliken gross atomic charge
  VA   - Mayer's total valence
  BVA  - Mayer's bonded valence
  FA   - Mayer's free valence

  ATOM       NA         ZA         QA         VA         BVA        FA
  0 Cr    24.3695    24.0000    -0.3695     5.4018     5.4018     0.0000
  1 O      8.2880     8.0000    -0.2880     2.2546     2.2546     0.0000
  2 C      5.6290     6.0000     0.3710     3.1429     3.1429     0.0000
  3 C      5.6395     6.0000     0.3605     3.3393     3.3393     0.0000
  4 O      8.3230     8.0000    -0.3230     2.1593     2.1593    -0.0000
  5 C      5.6290     6.0000     0.3710     3.1429     3.1429    -0.0000
  6 O      8.2880     8.0000    -0.2880     2.2546     2.2546    -0.0000
  7 C      5.6291     6.0000     0.3709     3.1429     3.1429    -0.0000
  8 O      8.2880     8.0000    -0.2880     2.2545     2.2545    -0.0000
  9 C      5.6290     6.0000     0.3710     3.1428     3.1428    -0.0000
 10 O      8.2880     8.0000    -0.2880     2.2545     2.2545     0.0000

  Mayer bond orders larger than 0.100000
B(  0-Cr,  2-C ) :   0.9435 B(  0-Cr,  3-C ) :   1.3377 B(  0-Cr,  4-O ) :   0.1113 
B(  0-Cr,  5-C ) :   0.9434 B(  0-Cr,  7-C ) :   0.9436 B(  0-Cr,  9-C ) :   0.9435 
B(  1-O ,  2-C ) :   2.1735 B(  3-C ,  4-O ) :   2.0331 B(  5-C ,  6-O ) :   2.1734 
B(  7-C ,  8-O ) :   2.1734 B(  9-C , 10-O ) :   2.1734 

-------
TIMINGS
-------

Total SCF time: 0 days 0 hours 0 min 17 sec 

Total time                  ....      17.378 sec
Sum of individual times     ....      17.045 sec  ( 98.1%)

Fock matrix formation       ....      15.335 sec  ( 88.2%)
  XC integration            ....       1.890 sec  ( 12.3% of F)
    Basis function eval.    ....       0.268 sec  ( 14.2% of XC)
    Density eval.           ....       0.336 sec  ( 17.8% of XC)
    XC-Functional eval.     ....       0.034 sec  (  1.8% of XC)
    XC-Potential eval.      ....       0.533 sec  ( 28.2% of XC)
Diagonalization             ....       0.534 sec  (  3.1%)
Density matrix formation    ....       0.036 sec  (  0.2%)
Population analysis         ....       0.034 sec  (  0.2%)
Initial guess               ....       0.234 sec  (  1.3%)
Orbital Transformation      ....       0.000 sec  (  0.0%)
Orbital Orthonormalization  ....       0.000 sec  (  0.0%)
DIIS solution               ....       0.353 sec  (  2.0%)
Grid generation             ....       0.519 sec  (  3.0%)


           ************************************************************
           *        Program running with 24 parallel MPI-processes    *
           *              working on a common directory               *
           ************************************************************

------------------------------------------------------------------------------
                                ORCA  MP2 
------------------------------------------------------------------------------

Freezing NCore=30 chemical core electrons

-------------
RI-MP2 ENERGY
-------------
Dimension of the basis                    ...  452
Memory devoted to MP2                     ... 5000 MB   
Data format for buffers                   ... DOUBLE
Compression type for matrix containers    ... UNCOMPRESSED
Overall scaling of the MP2 energy         ...   2.700e-01
Calculating two index integrals           ... done (    0.011 sec)
Cholesky decomposition of V**-1           ... done (    0.129 sec)

-----------------
RI-TRANSFORMATION (AUX index driven)
-----------------

Dimension of the orbital-basis         ... 452
Dimension of the aux-basis             ... 1145
Transformation of internal/external MOs...   15-  46 to   47- 451
Number Format for Storage              ... Double (8 Byte)
Integral mode                          ... Direct

First Phase: integral generation and transformation of MO indices
  Aux angular momentum 0               ... done (    0.026 sec)
  Aux angular momentum 1               ... done (    0.048 sec)
  Aux angular momentum 2               ... done (    0.067 sec)
  Aux angular momentum 3               ... done (    0.062 sec)
  Aux angular momentum 4               ... done (    0.039 sec)
  Aux angular momentum 5               ... done (    0.048 sec)
  Aux angular momentum 6               ... done (    0.063 sec)
Closing buffer VIA ( 0.11 GB; CompressionRatio= 1.00)
  Phase 1 completed in     0.438 sec
Second Phase: sorting and transformation of aux index

IA-Transformation
Memory available                       ... 4975 MB 
Max. # MO pairs treated in a batch     ... 2    
# of internal orbitals                 ... 32
# batches for internal orbitals        ... 1
Closing buffer IAV ( 0.01 GB; CompressionRatio= 1.00)
(ia|v) transformation done in     0.070 sec

  Phase 2 completed in     0.176 sec
RI-Integral transformation completed in     0.615 sec
Opening buffers                              ... done

Starting loop over batches of integrals:

Operator 0  - window                       ... ( 15- 46)x( 47-451)
Operator 0  - Memory available             ...  5000 MB
Operator 0  - Memory needed per MO         ...   3.5 MB
Operator 0  - Number of orbitals per batch ... 2
Operator 0  - Number of batches            ... 1

OPERATOR  0   PASS   0:  MOs    15 ...   16 +   17 ...   18 +   19 ...   20 +   21 ...   22
                            +   23 ...   24 +   25 ...   26 +   27 ...   28 +   29 ...   30
                            +   31 ...   32 +   33 ...   34 +   35 ...   36 +   37 ...   38
                            +   39 ...   40 +   41 ...   42 +   43 ...   44 +   45 ...   46
  Reading integrals       ... ok
Time spent in pair loops =     0.042 sec
Deleting buffer (Ka|jb)[aa] ...done

-----------------------------------------------
 RI-MP2 CORRELATION ENERGY:     -0.924033819 Eh
-----------------------------------------------


-------
TIMINGS
-------

Total time                :    1.348 sec
Integral trafo            :    0.620 sec ( 46.0%)
I/O of integrals          :    0.005 sec (  0.4%)
K(i,j) Operators          :    0.020 sec (  1.5%)
T(i,j) pair energies      :    0.004 sec (  0.3%)
V-calculation             :    0.011 sec (  0.9%)
V**(-1/2)                 :    0.129 sec (  9.6%)
Gamma(ia|P)               :    0.000 sec (  0.0%)
Gamma-Trafo               :    0.000 sec (  0.0%)
D(virtual)                :    0.000 sec (  0.0%)
D(internal)               :    0.000 sec (  0.0%)
W(virtual)                :    0.000 sec (  0.0%)
W(internal)               :    0.000 sec (  0.0%)
L(virtual)                :    0.000 sec (  0.0%)
L(internal)               :    0.000 sec (  0.0%)
G(D)                      :    0.000 sec (  0.0%)
G(Z)                      :    0.000 sec (  0.0%)
Z-Vector Solution         :    0.000 sec (  0.0%)
Z-Vector Solution         :    0.000 sec (  0.0%)
3-Index Derivative 
+ Separable RIJ part      :    0.000 sec (  0.0%)
2-Index Derivative 
+ Separable RIJ part      :    0.000 sec (  0.0%)
Separable Gradient (X)    :    0.000 sec (  0.0%)


---------------------------------------
MP2 TOTAL ENERGY:    -1610.948406611 Eh
---------------------------------------


-------------------------------------------------------------------------------
                          DFT DISPERSION CORRECTION                            
                                                                               
                              DFTD3 V3.1  Rev 1                                
                          USING Becke-Johnson damping                          
-------------------------------------------------------------------------------
The B2PLYP functional is recognized
Active option DFTDOPT                   ...         4   

molecular C6(AA) [au] = 3700.705887 


            DFT-D V3
 parameters
 s6 scaling factor         :     0.6400 
 a1 scaling factor         :     0.3065 
 s8 scaling factor         :     0.9147 
 a2 scaling factor         :     5.0570 
 ad hoc parameters k1-k3   :    16.0000     1.3333    -4.0000 

 Edisp/kcal,au: -8.691204059072  -0.013850313806 
 E6   /kcal   :  -4.169514974 
 E8   /kcal   :  -4.521689085 
 % E8         :  52.026037525 

-------------------------   ----------------
Dispersion correction           -0.013850314
-------------------------   ----------------


-------------------------   --------------------
FINAL SINGLE POINT ENERGY     -1610.962256924420
-------------------------   --------------------


                            ***************************************
                            *     ORCA property calculations      *
                            ***************************************


  WARNING: The energy has been calculated at the MP2 level but the densities
           used in the property calculations are still SCF densities
           MP2 response densities have not been calculated 
           use %mp2 Density relaxed end
           or  %mp2 Density unrelaxed end

                                    ---------------------
                                    Active property flags
                                    ---------------------
   (+) Dipole Moment


------------------------------------------------------------------------------
                       ORCA ELECTRIC PROPERTIES CALCULATION
------------------------------------------------------------------------------

Dipole Moment Calculation                       ... on
Quadrupole Moment Calculation                   ... off
Polarizability Calculation                      ... off
GBWName                                         ... MOR07_ed01.gbw
Electron density file                           ... MOR07_ed01.scfp
The origin for moment calculation is the CENTER OF MASS  = (-0.000002,  0.000002 -0.015990)

-------------
DIPOLE MOMENT
-------------
                                X             Y             Z
Electronic contribution:     -0.00034       0.00033      -2.48617
Nuclear contribution   :      0.00017      -0.00015       1.50310
                        -----------------------------------------
Total Dipole Moment    :     -0.00017       0.00017      -0.98307
                        -----------------------------------------
Magnitude (a.u.)       :      0.98307
Magnitude (Debye)      :      2.49878



--------------------
Rotational spectrum 
--------------------
 
Rotational constants in cm-1:     0.031146     0.031144     0.021766 
Rotational constants in MHz :   933.731625   933.679962   652.524637 

 Dipole components along the rotational axes: 
x,y,z [a.u.] :     0.000167     0.000175    -0.983074 
x,y,z [Debye]:     0.000425     0.000444    -2.498777 

 

Timings for individual modules:

Sum of individual times         ...       20.406 sec (=   0.340 min)
GTO integral calculation        ...        0.863 sec (=   0.014 min)   4.2 %
SCF iterations                  ...       17.708 sec (=   0.295 min)  86.8 %
MP2 module                      ...        1.835 sec (=   0.031 min)   9.0 %
                             ****ORCA TERMINATED NORMALLY****
TOTAL RUN TIME: 0 days 0 hours 0 minutes 20 seconds 942 msec
