
                                 *****************
                                 * O   R   C   A *
                                 *****************

           --- An Ab Initio, DFT and Semiempirical electronic structure package ---

                  #######################################################
                  #                        -***-                        #
                  #          Department of theory and spectroscopy      #
                  #               Directorship: Frank Neese             #
                  #        Max Planck Institute fuer Kohlenforschung    #
                  #                Kaiser Wilhelm Platz 1               #
                  #                 D-45470 Muelheim/Ruhr               #
                  #                      Germany                        #
                  #                                                     #
                  #                  All rights reserved                #
                  #                        -***-                        #
                  #######################################################


                         Program Version 4.2.0 -  RELEASE  -


 With contributions from (in alphabetic order):
   Daniel Aravena         : Magnetic Suceptibility
   Michael Atanasov       : Ab Initio Ligand Field Theory (pilot matlab implementation)
   Alexander A. Auer      : GIAO ZORA, VPT2
   Ute Becker             : Parallelization
   Giovanni Bistoni       : ED, misc. LED, open-shell LED, HFLED
   Martin Brehm           : Molecular dynamics
   Dmytro Bykov           : SCF Hessian
   Vijay G. Chilkuri      : MRCI spin determinant printing, contributions to CSF-ICE
   Dipayan Datta          : RHF DLPNO-CCSD density
   Achintya Kumar Dutta   : EOM-CC, STEOM-CC
   Dmitry Ganyushin       : Spin-Orbit,Spin-Spin,Magnetic field MRCI
   Miquel Garcia          : C-PCM Hessian, Gaussian charge scheme
   Yang Guo               : DLPNO-NEVPT2, CIM, IAO-localization
   Andreas Hansen         : Spin unrestricted coupled pair/coupled cluster methods
   Benjamin Helmich-Paris : CASSCF linear response (MC-RPA)
   Lee Huntington         : MR-EOM, pCC
   Robert Izsak           : Overlap fitted RIJCOSX, COSX-SCS-MP3, EOM
   Christian Kollmar      : KDIIS, OOCD, Brueckner-CCSD(T), CCSD density
   Simone Kossmann        : Meta GGA functionals, TD-DFT gradient, OOMP2, MP2 Hessian
   Martin Krupicka        : AUTO-CI
   Lucas Lang             : DCDCAS
   Dagmar Lenk            : GEPOL surface, SMD
   Dimitrios Liakos       : Extrapolation schemes; Compound Job, initial MDCI parallelization
   Dimitrios Manganas     : Further ROCIS development; embedding schemes
   Dimitrios Pantazis     : SARC Basis sets
   Taras Petrenko         : DFT Hessian,TD-DFT gradient, ASA, ECA, R-Raman, ABS, FL, XAS/XES, NRVS
   Peter Pinski           : DLPNO-MP2, DLPNO-MP2 Gradient
   Christoph Reimann      : Effective Core Potentials
   Marius Retegan         : Local ZFS, SOC
   Christoph Riplinger    : Optimizer, TS searches, QM/MM, DLPNO-CCSD(T), (RO)-DLPNO pert. Triples
   Tobias Risthaus        : Range-separated hybrids, TD-DFT gradient, RPA, STAB
   Michael Roemelt        : Original ROCIS implementation
   Masaaki Saitow         : Open-shell DLPNO-CCSD energy and density
   Barbara Sandhoefer     : DKH picture change effects
   Avijit Sen             : IP-ROCIS
   Kantharuban Sivalingam : CASSCF convergence, NEVPT2, FIC-MRCI
   Bernardo de Souza      : ESD, SOC TD-DFT
   Georgi Stoychev        : AutoAux, RI-MP2 NMR
   Willem Van den Heuvel  : Paramagnetic NMR
   Boris Wezisla          : Elementary symmetry handling
   Frank Wennmohs         : Technical directorship


 We gratefully acknowledge several colleagues who have allowed us to
 interface, adapt or use parts of their codes:
   Stefan Grimme, W. Hujo, H. Kruse,             : VdW corrections, initial TS optimization,
                  C. Bannwarth                     DFT functionals, gCP, sTDA/sTD-DF
   Ed Valeev, F. Pavosevic, A. Kumar             : LibInt (2-el integral package), F12 methods
   Garnet Chan, S. Sharma, J. Yang, R. Olivares  : DMRG
   Ulf Ekstrom                                   : XCFun DFT Library
   Mihaly Kallay                                 : mrcc  (arbitrary order and MRCC methods)
   Andreas Klamt, Michael Diedenhofen            : otool_cosmo (COSMO solvation model)
   Jiri Pittner, Ondrej Demel                    : Mk-CCSD
   Frank Weinhold                                : gennbo (NPA and NBO analysis)
   Christopher J. Cramer and Donald G. Truhlar   : smd solvation model
   Lars Goerigk                                  : TD-DFT with DH, B97 family of functionals
   V. Asgeirsson, H. Jonsson                     : NEB implementation
   FAccTs GmbH                                   : IRC, NEB, NEB-TS, Multilevel, MM, QM/MM, CI optimization
   S Lehtola, MJT Oliveira, MAL Marques          : LibXC Library


 Your calculation uses the libint2 library for the computation of 2-el integrals
 For citations please refer to: http://libint.valeyev.net

 Your ORCA version has been built with support for libXC version: 4.2.3
 For citations please refer to: https://tddft.org/programs/libxc/

 This ORCA versions uses:
   CBLAS   interface :  Fast vector & matrix operations
   LAPACKE interface :  Fast linear algebra routines
   SCALAPACK package :  Parallel linear algebra routines


Your calculation utilizes the atom-pairwise dispersion correction
with the Becke-Johnson damping scheme (D3BJ)
Cite in your paper:
S.Grimme, S.Ehrlich, L.Goerigk, J Comput Chem, (2011), 32, 1456–1465 
S.Grimme, J.Antony, S.Ehrlich and H.Krieg, J.Chem.Phys., 132, (2010), 154104 
   

----- Orbital basis set information -----
Your calculation utilizes the basis: def2-TZVPPD
   F. Weigend and R. Ahlrichs, Phys. Chem. Chem. Phys. 7, 3297 (2005).
   D. Rappoport and F. Furche, J. Chem. Phys. 133 134105 (2010).

----- AuxC basis set information -----
Your calculation utilizes the auxiliary basis: def2-TZVPPD/C
   A. Hellweg, C. Hattig, S. Hofener and W. Klopper, Theor. Chem. Acc. 117, 587 (2007).

----- AuxJK basis set information -----
Your calculation utilizes the auxiliary basis: def2/JK
   H-Ba, Hf-Rn: F. Weigend, J. Comput. Chem. 29, 167 (2008).

================================================================================
                                        WARNINGS
                       Please study these warnings very carefully!
================================================================================


WARNING: No MP2 level density has been requested!
         To caclulate MP2 level properties use
         %mp2 Density relaxed end
         or
         %mp2 Density unrelaxed end
         Otherwise for double-hybrid DFT only the energy is correct!

WARNING: The frozen-core approximation is turned on by default for 
         the MP2 part of double-hybrid DFT.

INFO   : the flag for use of LIBINT has been found!

================================================================================
                                       INPUT FILE
================================================================================
NAME = MOR06_cod.in
|  1> #
|  2> # MOR06_cod ri-B2PLYP-D3BJ/Def2-TZVPPD
|  3> #
|  4> ! rijk ri-b2plyp d3bj def2-tzvppd def2/jk def2-tzvppd/c grid4 nofinalgrid
|  5> 
|  6> *xyz 0 1
|  7> C        1.191389    1.227675   -0.516531 
|  8> C        0.040474   -1.675611   -0.245785 
|  9> C       -0.040358    1.675615   -0.245809 
| 10> H        1.773340    1.813957   -1.228847 
| 11> C       -1.191236   -1.227682   -0.516688 
| 12> H        0.358706   -2.571437   -0.779467 
| 13> H       -0.358419    2.571431   -0.779611 
| 14> H       -1.772889   -1.813647   -1.229501 
| 15> C       -1.080136    1.086431    0.676864 
| 16> H       -1.767105    1.885380    0.980109 
| 17> H       -0.630813    0.710792    1.597907 
| 18> C        1.924335    0.021333    0.009175 
| 19> H        2.698129    0.353800    0.719005 
| 20> H        2.474959   -0.423127   -0.831863 
| 21> C        1.079920   -1.086274    0.677130 
| 22> H        0.630295   -0.710168    1.597840 
| 23> H        1.766727   -1.885140    0.980948 
| 24> C       -1.924342   -0.021538    0.009255 
| 25> H       -2.697754   -0.354225    0.719400 
| 26> H       -2.475456    0.422687   -0.831583 
| 27> *
| 28> 
| 29> %maxcore 5000
| 30> 
| 31> %pal
| 32> nprocs = 24
| 33> end
| 34> 
| 35> 
| 36>                          ****END OF INPUT****
================================================================================

                       ****************************
                       * Single Point Calculation *
                       ****************************

---------------------------------
CARTESIAN COORDINATES (ANGSTROEM)
---------------------------------
  C      1.191389    1.227675   -0.516531
  C      0.040474   -1.675611   -0.245785
  C     -0.040358    1.675615   -0.245809
  H      1.773340    1.813957   -1.228847
  C     -1.191236   -1.227682   -0.516688
  H      0.358706   -2.571437   -0.779467
  H     -0.358419    2.571431   -0.779611
  H     -1.772889   -1.813647   -1.229501
  C     -1.080136    1.086431    0.676864
  H     -1.767105    1.885380    0.980109
  H     -0.630813    0.710792    1.597907
  C      1.924335    0.021333    0.009175
  H      2.698129    0.353800    0.719005
  H      2.474959   -0.423127   -0.831863
  C      1.079920   -1.086274    0.677130
  H      0.630295   -0.710168    1.597840
  H      1.766727   -1.885140    0.980948
  C     -1.924342   -0.021538    0.009255
  H     -2.697754   -0.354225    0.719400
  H     -2.475456    0.422687   -0.831583

----------------------------
CARTESIAN COORDINATES (A.U.)
----------------------------
  NO LB      ZA    FRAG     MASS         X           Y           Z
   0 C     6.0000    0    12.011    2.251399    2.319970   -0.976102
   1 C     6.0000    0    12.011    0.076485   -3.166446   -0.464466
   2 C     6.0000    0    12.011   -0.076266    3.166453   -0.464512
   3 H     1.0000    0     1.008    3.351127    3.427882   -2.322184
   4 C     6.0000    0    12.011   -2.251110   -2.319983   -0.976399
   5 H     1.0000    0     1.008    0.677856   -4.859312   -1.472979
   6 H     1.0000    0     1.008   -0.677314    4.859300   -1.473251
   7 H     1.0000    0     1.008   -3.350275   -3.427296   -2.323420
   8 C     6.0000    0    12.011   -2.041161    2.053057    1.279088
   9 H     1.0000    0     1.008   -3.339344    3.562852    1.852138
  10 H     1.0000    0     1.008   -1.192064    1.343202    3.019607
  11 C     6.0000    0    12.011    3.636466    0.040314    0.017338
  12 H     1.0000    0     1.008    5.098725    0.668585    1.358723
  13 H     1.0000    0     1.008    4.676995   -0.799594   -1.571993
  14 C     6.0000    0    12.011    2.040753   -2.052760    1.279590
  15 H     1.0000    0     1.008    1.191085   -1.342023    3.019480
  16 H     1.0000    0     1.008    3.338630   -3.562398    1.853723
  17 C     6.0000    0    12.011   -3.636479   -0.040701    0.017489
  18 H     1.0000    0     1.008   -5.098016   -0.669388    1.359469
  19 H     1.0000    0     1.008   -4.677934    0.798763   -1.571464

--------------------------------
INTERNAL COORDINATES (ANGSTROEM)
--------------------------------
 C      0   0   0     0.000000000000     0.00000000     0.00000000
 C      1   0   0     3.134801162999     0.00000000     0.00000000
 C      1   2   0     1.338335278207    87.39837992     0.00000000
 H      1   2   3     1.090773869224   138.59690844   231.73164876
 C      2   1   3     1.338334169238    90.59792642    23.27312661
 H      2   1   3     1.090225804696   127.70230695   148.02237882
 H      3   1   2     1.090226435554   116.38985056   216.82127495
 H      5   2   1     1.090769254519   116.31133348   134.85786534
 C      3   1   2     1.509834938021   128.81657868    34.87302504
 H      9   3   1     1.096450382638   108.42988251   156.58100101
 H      9   3   1     1.091474243626   111.49893931    40.27530954
 C      1   2   3     1.506266131305    53.61359399   146.70866644
 H     12   1   2     1.101430928123   108.96745814   207.60715234
 H     12   1   2     1.099125287863   107.49160470    94.01837509
 C      2   1   3     1.509813956655    55.84198959   244.65586572
 H     15   2   1     1.091478478011   111.50228632    98.27166546
 H     15   2   1     1.096447043103   108.43503727   214.58537254
 C      5   2   1     1.506268168429   130.18472749   314.92812445
 H     18   5   2     1.101432105369   108.96661215   253.52266726
 H     18   5   2     1.099122847486   107.49095771   139.93611493

---------------------------
INTERNAL COORDINATES (A.U.)
---------------------------
 C      0   0   0     0.000000000000     0.00000000     0.00000000
 C      1   0   0     5.923915682365     0.00000000     0.00000000
 C      1   2   0     2.529087151176    87.39837992     0.00000000
 H      1   2   3     2.061263886870   138.59690844   231.73164876
 C      2   1   3     2.529085055529    90.59792642    23.27312661
 H      2   1   3     2.060228195008   127.70230695   148.02237882
 H      3   1   2     2.060229387158   116.38985056   216.82127495
 H      5   2   1     2.061255166342   116.31133348   134.85786534
 C      3   1   2     2.853174540286   128.81657868    34.87302504
 H      9   3   1     2.071990942619   108.42988251   156.58100101
 H      9   3   1     2.062587402682   111.49893931    40.27530954
 C      1   2   3     2.846430472967    53.61359399   146.70866644
 H     12   1   2     2.081402809582   108.96745814   207.60715234
 H     12   1   2     2.077045780928   107.49160470    94.01837509
 C      2   1   3     2.853134891250    55.84198959   244.65586572
 H     15   2   1     2.062595404510   111.50228632    98.27166546
 H     15   2   1     2.071984631812   108.43503727   214.58537254
 C      5   2   1     2.846434322573   130.18472749   314.92812445
 H     18   5   2     2.081405034256   108.96661215   253.52266726
 H     18   5   2     2.077041169284   107.49095771   139.93611493

---------------------
BASIS SET INFORMATION
---------------------
There are 2 groups of distinct atoms

 Group   1 Type C   : 12s6p3d1f contracted to 6s3p3d1f pattern {621111/411/111/1}
 Group   2 Type H   : 5s3p1d contracted to 3s3p1d pattern {311/111/1}

Atom   0C    basis set group =>   1
Atom   1C    basis set group =>   1
Atom   2C    basis set group =>   1
Atom   3H    basis set group =>   2
Atom   4C    basis set group =>   1
Atom   5H    basis set group =>   2
Atom   6H    basis set group =>   2
Atom   7H    basis set group =>   2
Atom   8C    basis set group =>   1
Atom   9H    basis set group =>   2
Atom  10H    basis set group =>   2
Atom  11C    basis set group =>   1
Atom  12H    basis set group =>   2
Atom  13H    basis set group =>   2
Atom  14C    basis set group =>   1
Atom  15H    basis set group =>   2
Atom  16H    basis set group =>   2
Atom  17C    basis set group =>   1
Atom  18H    basis set group =>   2
Atom  19H    basis set group =>   2
---------------------------------
AUXILIARY/C BASIS SET INFORMATION
---------------------------------
There are 2 groups of distinct atoms

 Group   1 Type C   : 9s7p6d4f1g contracted to 9s7p5d4f1g pattern {111111111/1111111/21111/1111/1}
 Group   2 Type H   : 5s4p3d1f contracted to 5s4p3d1f pattern {11111/1111/111/1}

Atom   0C    basis set group =>   1
Atom   1C    basis set group =>   1
Atom   2C    basis set group =>   1
Atom   3H    basis set group =>   2
Atom   4C    basis set group =>   1
Atom   5H    basis set group =>   2
Atom   6H    basis set group =>   2
Atom   7H    basis set group =>   2
Atom   8C    basis set group =>   1
Atom   9H    basis set group =>   2
Atom  10H    basis set group =>   2
Atom  11C    basis set group =>   1
Atom  12H    basis set group =>   2
Atom  13H    basis set group =>   2
Atom  14C    basis set group =>   1
Atom  15H    basis set group =>   2
Atom  16H    basis set group =>   2
Atom  17C    basis set group =>   1
Atom  18H    basis set group =>   2
Atom  19H    basis set group =>   2
----------------------------------
AUXILIARY/JK BASIS SET INFORMATION
----------------------------------
There are 2 groups of distinct atoms

 Group   1 Type C   : 14s10p6d2f1g contracted to 10s8p5d1f1g pattern {5111111111/31111111/21111/2/1}
 Group   2 Type H   : 4s2p2d contracted to 2s2p2d pattern {31/11/11}

Atom   0C    basis set group =>   1
Atom   1C    basis set group =>   1
Atom   2C    basis set group =>   1
Atom   3H    basis set group =>   2
Atom   4C    basis set group =>   1
Atom   5H    basis set group =>   2
Atom   6H    basis set group =>   2
Atom   7H    basis set group =>   2
Atom   8C    basis set group =>   1
Atom   9H    basis set group =>   2
Atom  10H    basis set group =>   2
Atom  11C    basis set group =>   1
Atom  12H    basis set group =>   2
Atom  13H    basis set group =>   2
Atom  14C    basis set group =>   1
Atom  15H    basis set group =>   2
Atom  16H    basis set group =>   2
Atom  17C    basis set group =>   1
Atom  18H    basis set group =>   2
Atom  19H    basis set group =>   2


           ************************************************************
           *        Program running with 24 parallel MPI-processes    *
           *              working on a common directory               *
           ************************************************************
------------------------------------------------------------------------------
                           ORCA GTO INTEGRAL CALCULATION
                           -- RI-GTO INTEGRALS CHOSEN --
------------------------------------------------------------------------------

                         BASIS SET STATISTICS AND STARTUP INFO

Gaussian basis set:
 # of primitive gaussian shells          ...  284
 # of primitive gaussian functions       ...  644
 # of contracted shells                  ...  188
 # of contracted basis functions         ...  500
 Highest angular momentum                ...    3
 Maximum contraction depth               ...    6
Auxiliary gaussian basis set:
 # of primitive gaussian shells          ...  360
 # of primitive gaussian functions       ... 1016
 # of contracted shells                  ...  272
 # of contracted aux-basis functions     ...  816
 Highest angular momentum                ...    4
 Maximum contraction depth               ...    5
Ratio of auxiliary to basis functions    ...  1.63
Integral package used                  ... LIBINT
 One Electron integrals                  ... done
 Ordering auxiliary basis shells         ... done
 Integral threshhold             Thresh  ...  1.000e-10
 Primitive cut-off               TCut    ...  1.000e-11
 Pre-screening matrix                    ... done
 Shell pair data                         ... 
 Ordering of the shell pairs             ... done (   0.003 sec) 16841 of 17766 pairs
 Determination of significant pairs      ... done (   0.000 sec)
 Creation of shell pair data             ... done (   0.002 sec)
 Storage of shell pair data              ... done (   0.008 sec)
 Shell pair data done in (   0.012 sec)
 Computing two index integrals           ... done
 Cholesky decomposition of the V-matrix  ... done


Timings:
 Total evaluation time                   ...   0.372 sec (  0.006 min)
 One electron matrix time                ...   0.153 sec (  0.003 min) = 41.2%
 Schwartz matrix evaluation time         ...   0.161 sec (  0.003 min) = 43.1%
 Two index repulsion integral time       ...   0.013 sec (  0.000 min) =  3.6%
 Cholesky decomposition of V             ...   0.011 sec (  0.000 min) =  3.0%
 Three index repulsion integral time     ...   0.000 sec (  0.000 min) =  0.0%



           ************************************************************
           *        Program running with 24 parallel MPI-processes    *
           *              working on a common directory               *
           ************************************************************
-------------------------------------------------------------------------------
                                 ORCA SCF
-------------------------------------------------------------------------------

------------
SCF SETTINGS
------------
Hamiltonian:
 Density Functional     Method          .... DFT(GTOs)
 Exchange Functional    Exchange        .... B88
   X-Alpha parameter    XAlpha          ....  0.666667
   Becke's b parameter  XBeta           ....  0.004200
 Correlation Functional Correlation     .... LYP
 LDA part of GGA corr.  LDAOpt          .... VWN-3
 Gradients option       PostSCFGGA      .... off
 Hybrid DFT is turned on
   Fraction HF Exchange ScalHFX         ....  0.530000
   Scaling of DF-GGA-X  ScalDFX         ....  0.470000
   Scaling of DF-GGA-C  ScalDFC         ....  0.730000
   Scaling of DF-LDA-C  ScalLDAC        ....  0.730000
   Perturbative correction              ....  0.270000
   Density functional embedding theory  .... OFF
 RI-approximation to the Coulomb term is turned on
   Number of auxiliary basis functions  .... 816
   RI-JK (J+K treated both via RI)      .... on


General Settings:
 Integral files         IntName         .... MOR06_cod
 Hartree-Fock type      HFTyp           .... RHF
 Total Charge           Charge          ....    0
 Multiplicity           Mult            ....    1
 Number of Electrons    NEL             ....   60
 Basis Dimension        Dim             ....  500
 Nuclear Repulsion      ENuc            ....    366.2552424093 Eh

Convergence Acceleration:
 DIIS                   CNVDIIS         .... on
   Start iteration      DIISMaxIt       ....    12
   Startup error        DIISStart       ....  0.200000
   # of expansion vecs  DIISMaxEq       ....     5
   Bias factor          DIISBfac        ....   1.050
   Max. coefficient     DIISMaxC        ....  10.000
 Newton-Raphson         CNVNR           .... off
 SOSCF                  CNVSOSCF        .... on
   Start iteration      SOSCFMaxIt      ....   150
   Startup grad/error   SOSCFStart      ....  0.003300
 Level Shifting         CNVShift        .... on
   Level shift para.    LevelShift      ....    0.2500
   Turn off err/grad.   ShiftErr        ....    0.0010
 Zerner damping         CNVZerner       .... off
 Static damping         CNVDamp         .... on
   Fraction old density DampFac         ....    0.7000
   Max. Damping (<1)    DampMax         ....    0.9800
   Min. Damping (>=0)   DampMin         ....    0.0000
   Turn off err/grad.   DampErr         ....    0.1000
 Fernandez-Rico         CNVRico         .... off

SCF Procedure:
 Maximum # iterations   MaxIter         ....   125
 SCF integral mode      SCFMode         .... Direct
   Integral package                     .... LIBINT
 Reset frequency        DirectResetFreq ....    20
 Integral Threshold     Thresh          ....  1.000e-10 Eh
 Primitive CutOff       TCut            ....  1.000e-11 Eh

Convergence Tolerance:
 Convergence Check Mode ConvCheckMode   .... Total+1el-Energy
 Convergence forced     ConvForced      .... 0
 Energy Change          TolE            ....  1.000e-06 Eh
 1-El. energy change                    ....  1.000e-03 Eh
 Orbital Gradient       TolG            ....  5.000e-05
 Orbital Rotation angle TolX            ....  5.000e-05
 DIIS Error             TolErr          ....  1.000e-06


Diagonalization of the overlap matrix:
Smallest eigenvalue                        ... 1.075e-06
Time for diagonalization                   ...    0.032 sec
Threshold for overlap eigenvalues          ... 1.000e-08
Number of eigenvalues below threshold      ... 0
Time for construction of square roots      ...    0.040 sec
Total time needed                          ...    0.073 sec

-------------------
DFT GRID GENERATION
-------------------

General Integration Accuracy     IntAcc      ...  4.670
Radial Grid Type                 RadialGrid  ... Gauss-Chebyshev
Angular Grid (max. acc.)         AngularGrid ... Lebedev-302
Angular grid pruning method      GridPruning ... 3 (G Style)
Weight generation scheme         WeightScheme... Becke
Basis function cutoff            BFCut       ...    1.0000e-10
Integration weight cutoff        WCut        ...    1.0000e-14
Grids for H and He will be reduced by one unit

# of grid points (after initial pruning)     ...  90424 (   0.0 sec)
# of grid points (after weights+screening)   ...  81051 (   0.0 sec)
nearest neighbour list constructed           ...    0.0 sec
Grid point re-assignment to atoms done       ...    0.0 sec
Grid point division into batches done        ...    0.2 sec
Reduced shell lists constructed in    0.4 sec

Total number of grid points                  ...    81051
Total number of batches                      ...     1278
Average number of points per batch           ...       63
Average number of grid points per atom       ...     4053
Average number of shells per batch           ...   144.76 (77.00%)
Average number of basis functions per batch  ...   392.98 (78.60%)
Average number of large shells per batch     ...   118.36 (81.76%)
Average number of large basis fcns per batch ...   315.93 (80.39%)
Average number of aux-shells per batch       ...   144.76 (53.22%)
Average number of aux functions per batch    ...   392.98 (48.16%)
Maximum spatial batch extension              ...   2.07,  3.39,  3.06 au
Average spatial batch extension              ...   0.05,  0.05,  0.05 au

Time for grid setup =    0.451 sec

------------------------------
INITIAL GUESS: MODEL POTENTIAL
------------------------------
Loading Hartree-Fock densities                     ... done
Calculating cut-offs                               ... done
Setting up the integral package                    ... done
Initializing the effective Hamiltonian             ... done
Starting the Coulomb interaction                   ... done (   0.0 sec)
Reading the grid                                   ... done
Mapping shells                                     ... done
Starting the XC term evaluation                    ... done (   0.2 sec)
  promolecular density results
     # of electrons  =     59.993682736
     EX              =    -44.673133411
     EC              =     -0.631991352
     EX+EC           =    -45.305124763
Transforming the Hamiltonian                       ... done (   0.0 sec)
Diagonalizing the Hamiltonian                      ... done (   0.0 sec)
Back transforming the eigenvectors                 ... done (   0.0 sec)
Now organizing SCF variables                       ... done
                      ------------------
                      INITIAL GUESS DONE (   0.8 sec)
                      ------------------
--------------
SCF ITERATIONS
--------------
ITER       Energy         Delta-E        Max-DP      RMS-DP      [F,P]     Damp
  0   -311.1292898845   0.000000000000 0.08075401  0.00114809  0.1428547 0.7000
  1   -311.0536924418   0.075597442660 0.07634084  0.00116200  0.1150781 0.7000
                               ***Turning on DIIS***
  2   -311.1239857465  -0.070293304641 0.23131950  0.00286356  0.0603303 0.0000
  3   -311.3400555770  -0.216069830554 0.07397690  0.00099642  0.0720040 0.0000
  4   -311.4041119859  -0.064056408838 0.02329204  0.00039837  0.0247938 0.0000
  5   -311.4112593387  -0.007147352833 0.01305555  0.00020449  0.0105008 0.0000
  6   -311.4126644387  -0.001405099940 0.00868996  0.00012040  0.0034040 0.0000
                      *** Initiating the SOSCF procedure ***
                           *** Shutting down DIIS ***
                      *** Re-Reading the Fockian *** 
                      *** Removing any level shift *** 
ITER      Energy       Delta-E        Grad      Rot      Max-DP    RMS-DP
  7   -311.41283684  -0.0001723987  0.000287  0.000287  0.012491  0.000085
  8   -311.41285528  -0.0000184426  0.000131  0.000288  0.009043  0.000088
  9   -311.41285661  -0.0000013281  0.000085  0.000161  0.004956  0.000047
 10   -311.41285735  -0.0000007398  0.000014  0.000023  0.004717  0.000040
 11   -311.41285737  -0.0000000210  0.000013  0.000023  0.003647  0.000031
                 **** Energy Check signals convergence ****
              ***Rediagonalizing the Fockian in SOSCF/NRSCF***

               *****************************************************
               *                     SUCCESS                       *
               *           SCF CONVERGED AFTER  12 CYCLES          *
               *****************************************************


----------------
TOTAL SCF ENERGY
----------------

Total Energy       :         -311.41285738 Eh           -8473.97466 eV

Components:
Nuclear Repulsion  :          366.25524241 Eh            9966.31182 eV
Electronic Energy  :         -677.66809979 Eh          -18440.28648 eV
One Electron Energy:        -1144.61697557 Eh          -31146.61137 eV
Two Electron Energy:          466.94887578 Eh           12706.32489 eV

Virial components:
Potential Energy   :         -621.53875613 Eh          -16912.92939 eV
Kinetic Energy     :          310.12589875 Eh            8438.95473 eV
Virial Ratio       :            2.00414979


DFT components:
N(Alpha)           :       29.999851001291 electrons
N(Beta)            :       29.999851001291 electrons
N(Total)           :       59.999702002582 electrons
E(X)               :      -21.526079274431 Eh       
E(C)               :       -1.429724236060 Eh       
E(XC)              :      -22.955803510491 Eh       
DFET-embed. en.    :        0.000000000000 Eh       

---------------
SCF CONVERGENCE
---------------

  Last Energy change         ...   -1.1019e-08  Tolerance :   1.0000e-06
  Last MAX-Density change    ...    7.9060e-03  Tolerance :   1.0000e-05
  Last RMS-Density change    ...    5.1077e-05  Tolerance :   1.0000e-06
  Last Orbital Gradient      ...    3.8916e-06  Tolerance :   5.0000e-05
  Last Orbital Rotation      ...    3.6594e-06  Tolerance :   5.0000e-05

             **** THE GBW FILE WAS UPDATED (MOR06_cod.gbw) ****
             **** DENSITY FILE WAS UPDATED (MOR06_cod.scfp) ****
             **** ENERGY FILE WAS UPDATED (MOR06_cod.en.tmp) ****
             **** THE GBW FILE WAS UPDATED (MOR06_cod.gbw) ****
             **** DENSITY FILE WAS UPDATED (MOR06_cod.scfp) ****
----------------
ORBITAL ENERGIES
----------------

  NO   OCC          E(Eh)            E(eV) 
   0   2.0000     -10.615095      -288.8514 
   1   2.0000     -10.615095      -288.8514 
   2   2.0000     -10.611389      -288.7506 
   3   2.0000     -10.611383      -288.7504 
   4   2.0000     -10.608749      -288.6787 
   5   2.0000     -10.608743      -288.6786 
   6   2.0000     -10.606136      -288.6076 
   7   2.0000     -10.606132      -288.6075 
   8   2.0000      -0.945084       -25.7170 
   9   2.0000      -0.888053       -24.1651 
  10   2.0000      -0.883689       -24.0464 
  11   2.0000      -0.791475       -21.5371 
  12   2.0000      -0.771094       -20.9825 
  13   2.0000      -0.687618       -18.7110 
  14   2.0000      -0.620615       -16.8878 
  15   2.0000      -0.597083       -16.2475 
  16   2.0000      -0.552747       -15.0410 
  17   2.0000      -0.523653       -14.2493 
  18   2.0000      -0.509691       -13.8694 
  19   2.0000      -0.502582       -13.6759 
  20   2.0000      -0.481877       -13.1125 
  21   2.0000      -0.468432       -12.7467 
  22   2.0000      -0.433268       -11.7898 
  23   2.0000      -0.433090       -11.7850 
  24   2.0000      -0.421208       -11.4617 
  25   2.0000      -0.393094       -10.6966 
  26   2.0000      -0.377629       -10.2758 
  27   2.0000      -0.367572       -10.0021 
  28   2.0000      -0.287345        -7.8190 
  29   2.0000      -0.282741        -7.6938 
  30   0.0000       0.033475         0.9109 
  31   0.0000       0.044579         1.2131 
  32   0.0000       0.053708         1.4615 
  33   0.0000       0.053872         1.4659 
  34   0.0000       0.061763         1.6806 
  35   0.0000       0.071599         1.9483 
  36   0.0000       0.076451         2.0803 
  37   0.0000       0.081163         2.2086 
  38   0.0000       0.082004         2.2314 
  39   0.0000       0.096626         2.6293 
  40   0.0000       0.112144         3.0516 
  41   0.0000       0.123237         3.3534 
  42   0.0000       0.124108         3.3772 
  43   0.0000       0.133452         3.6314 
  44   0.0000       0.148942         4.0529 
  45   0.0000       0.151435         4.1207 
  46   0.0000       0.155406         4.2288 
  47   0.0000       0.171719         4.6727 
  48   0.0000       0.183886         5.0038 
  49   0.0000       0.190464         5.1828 
  50   0.0000       0.198103         5.3907 
  51   0.0000       0.199446         5.4272 
  52   0.0000       0.206659         5.6235 
  53   0.0000       0.219553         5.9743 
  54   0.0000       0.225535         6.1371 
  55   0.0000       0.227434         6.1888 
  56   0.0000       0.235456         6.4071 
  57   0.0000       0.239023         6.5041 
  58   0.0000       0.244197         6.6449 
  59   0.0000       0.248201         6.7539 
  60   0.0000       0.250175         6.8076 
  61   0.0000       0.251792         6.8516 
  62   0.0000       0.252718         6.8768 
  63   0.0000       0.269182         7.3248 
  64   0.0000       0.270863         7.3706 
  65   0.0000       0.271059         7.3759 
  66   0.0000       0.272700         7.4206 
  67   0.0000       0.281964         7.6726 
  68   0.0000       0.295069         8.0292 
  69   0.0000       0.305530         8.3139 
  70   0.0000       0.306861         8.3501 
  71   0.0000       0.309139         8.4121 
  72   0.0000       0.312311         8.4984 
  73   0.0000       0.316159         8.6031 
  74   0.0000       0.322930         8.7874 
  75   0.0000       0.330297         8.9878 
  76   0.0000       0.331231         9.0133 
  77   0.0000       0.339918         9.2496 
  78   0.0000       0.346104         9.4180 
  79   0.0000       0.351179         9.5561 
  80   0.0000       0.355127         9.6635 
  81   0.0000       0.361797         9.8450 
  82   0.0000       0.362358         9.8603 
  83   0.0000       0.369282        10.0487 
  84   0.0000       0.371253        10.1023 
  85   0.0000       0.378266        10.2931 
  86   0.0000       0.381326        10.3764 
  87   0.0000       0.388268        10.5653 
  88   0.0000       0.396634        10.7930 
  89   0.0000       0.396991        10.8027 
  90   0.0000       0.402485        10.9522 
  91   0.0000       0.403709        10.9855 
  92   0.0000       0.410495        11.1701 
  93   0.0000       0.419015        11.4020 
  94   0.0000       0.421395        11.4667 
  95   0.0000       0.426795        11.6137 
  96   0.0000       0.430020        11.7014 
  97   0.0000       0.441485        12.0134 
  98   0.0000       0.442489        12.0407 
  99   0.0000       0.447604        12.1799 
 100   0.0000       0.452683        12.3181 
 101   0.0000       0.457748        12.4560 
 102   0.0000       0.466218        12.6864 
 103   0.0000       0.467988        12.7346 
 104   0.0000       0.472200        12.8492 
 105   0.0000       0.479386        13.0448 
 106   0.0000       0.481326        13.0975 
 107   0.0000       0.491740        13.3809 
 108   0.0000       0.493472        13.4280 
 109   0.0000       0.500904        13.6303 
 110   0.0000       0.506982        13.7957 
 111   0.0000       0.510380        13.8881 
 112   0.0000       0.511498        13.9186 
 113   0.0000       0.529903        14.4194 
 114   0.0000       0.534603        14.5473 
 115   0.0000       0.539955        14.6929 
 116   0.0000       0.548863        14.9353 
 117   0.0000       0.553525        15.0622 
 118   0.0000       0.564435        15.3590 
 119   0.0000       0.566635        15.4189 
 120   0.0000       0.574932        15.6447 
 121   0.0000       0.581140        15.8136 
 122   0.0000       0.583199        15.8697 
 123   0.0000       0.598655        16.2902 
 124   0.0000       0.599670        16.3179 
 125   0.0000       0.614560        16.7230 
 126   0.0000       0.621200        16.9037 
 127   0.0000       0.629354        17.1256 
 128   0.0000       0.632219        17.2036 
 129   0.0000       0.634045        17.2532 
 130   0.0000       0.638354        17.3705 
 131   0.0000       0.645855        17.5746 
 132   0.0000       0.651686        17.7333 
 133   0.0000       0.664511        18.0823 
 134   0.0000       0.665792        18.1171 
 135   0.0000       0.677299        18.4302 
 136   0.0000       0.682020        18.5587 
 137   0.0000       0.690229        18.7821 
 138   0.0000       0.701063        19.0769 
 139   0.0000       0.708787        19.2871 
 140   0.0000       0.712630        19.3916 
 141   0.0000       0.716811        19.5054 
 142   0.0000       0.720500        19.6058 
 143   0.0000       0.728708        19.8292 
 144   0.0000       0.731025        19.8922 
 145   0.0000       0.738855        20.1053 
 146   0.0000       0.745415        20.2838 
 147   0.0000       0.748479        20.3671 
 148   0.0000       0.750857        20.4319 
 149   0.0000       0.768860        20.9217 
 150   0.0000       0.774656        21.0795 
 151   0.0000       0.777687        21.1619 
 152   0.0000       0.785246        21.3676 
 153   0.0000       0.785934        21.3864 
 154   0.0000       0.791152        21.5283 
 155   0.0000       0.796365        21.6702 
 156   0.0000       0.798781        21.7359 
 157   0.0000       0.803025        21.8514 
 158   0.0000       0.811378        22.0787 
 159   0.0000       0.817180        22.2366 
 160   0.0000       0.828432        22.5428 
 161   0.0000       0.841282        22.8924 
 162   0.0000       0.842434        22.9238 
 163   0.0000       0.847675        23.0664 
 164   0.0000       0.854844        23.2615 
 165   0.0000       0.860068        23.4036 
 166   0.0000       0.878364        23.9015 
 167   0.0000       0.879156        23.9230 
 168   0.0000       0.896299        24.3895 
 169   0.0000       0.899321        24.4718 
 170   0.0000       0.900909        24.5150 
 171   0.0000       0.915763        24.9192 
 172   0.0000       0.917209        24.9585 
 173   0.0000       0.937045        25.4983 
 174   0.0000       0.951657        25.8959 
 175   0.0000       0.956980        26.0407 
 176   0.0000       0.965702        26.2781 
 177   0.0000       0.975162        26.5355 
 178   0.0000       1.011548        27.5256 
 179   0.0000       1.015268        27.6268 
 180   0.0000       1.028549        27.9882 
 181   0.0000       1.046651        28.4808 
 182   0.0000       1.049264        28.5519 
 183   0.0000       1.078312        29.3424 
 184   0.0000       1.086542        29.5663 
 185   0.0000       1.095897        29.8209 
 186   0.0000       1.130440        30.7608 
 187   0.0000       1.141234        31.0546 
 188   0.0000       1.155673        31.4475 
 189   0.0000       1.156649        31.4740 
 190   0.0000       1.172892        31.9160 
 191   0.0000       1.196859        32.5682 
 192   0.0000       1.202801        32.7299 
 193   0.0000       1.232037        33.5254 
 194   0.0000       1.243386        33.8342 
 195   0.0000       1.247146        33.9366 
 196   0.0000       1.266202        34.4551 
 197   0.0000       1.278307        34.7845 
 198   0.0000       1.288053        35.0497 
 199   0.0000       1.299789        35.3691 
 200   0.0000       1.312251        35.7082 
 201   0.0000       1.314971        35.7822 
 202   0.0000       1.332544        36.2604 
 203   0.0000       1.359585        36.9962 
 204   0.0000       1.368851        37.2483 
 205   0.0000       1.373257        37.3682 
 206   0.0000       1.388666        37.7875 
 207   0.0000       1.402346        38.1598 
 208   0.0000       1.419551        38.6280 
 209   0.0000       1.422663        38.7126 
 210   0.0000       1.426836        38.8262 
 211   0.0000       1.440716        39.2039 
 212   0.0000       1.442465        39.2515 
 213   0.0000       1.468974        39.9728 
 214   0.0000       1.471738        40.0480 
 215   0.0000       1.476078        40.1661 
 216   0.0000       1.502947        40.8973 
 217   0.0000       1.529901        41.6307 
 218   0.0000       1.540584        41.9214 
 219   0.0000       1.544183        42.0194 
 220   0.0000       1.550243        42.1843 
 221   0.0000       1.554204        42.2920 
 222   0.0000       1.566094        42.6156 
 223   0.0000       1.575115        42.8611 
 224   0.0000       1.586374        43.1674 
 225   0.0000       1.591316        43.3019 
 226   0.0000       1.601829        43.5880 
 227   0.0000       1.608466        43.7686 
 228   0.0000       1.613020        43.8925 
 229   0.0000       1.641263        44.6610 
 230   0.0000       1.651308        44.9344 
 231   0.0000       1.651620        44.9429 
 232   0.0000       1.659067        45.1455 
 233   0.0000       1.691511        46.0283 
 234   0.0000       1.696035        46.1515 
 235   0.0000       1.709711        46.5236 
 236   0.0000       1.717636        46.7393 
 237   0.0000       1.730148        47.0797 
 238   0.0000       1.748900        47.5900 
 239   0.0000       1.780376        48.4465 
 240   0.0000       1.782195        48.4960 
 241   0.0000       1.793359        48.7998 
 242   0.0000       1.800916        49.0054 
 243   0.0000       1.825984        49.6875 
 244   0.0000       1.839790        50.0632 
 245   0.0000       1.851786        50.3897 
 246   0.0000       1.858142        50.5626 
 247   0.0000       1.866313        50.7850 
 248   0.0000       1.866473        50.7893 
 249   0.0000       1.916442        52.1490 
 250   0.0000       1.921648        52.2907 
 251   0.0000       1.938376        52.7459 
 252   0.0000       1.955209        53.2039 
 253   0.0000       1.992398        54.2159 
 254   0.0000       1.994895        54.2839 
 255   0.0000       2.014983        54.8305 
 256   0.0000       2.022298        55.0295 
 257   0.0000       2.026982        55.1570 
 258   0.0000       2.049344        55.7655 
 259   0.0000       2.102336        57.2075 
 260   0.0000       2.120601        57.7045 
 261   0.0000       2.123531        57.7842 
 262   0.0000       2.157391        58.7056 
 263   0.0000       2.173353        59.1399 
 264   0.0000       2.176866        59.2355 
 265   0.0000       2.229271        60.6615 
 266   0.0000       2.248831        61.1938 
 267   0.0000       2.276358        61.9428 
 268   0.0000       2.292175        62.3733 
 269   0.0000       2.311372        62.8956 
 270   0.0000       2.351494        63.9874 
 271   0.0000       2.369434        64.4756 
 272   0.0000       2.396944        65.2242 
 273   0.0000       2.405690        65.4622 
 274   0.0000       2.414547        65.7032 
 275   0.0000       2.446555        66.5742 
 276   0.0000       2.490160        67.7607 
 277   0.0000       2.503720        68.1297 
 278   0.0000       2.527593        68.7793 
 279   0.0000       2.567344        69.8610 
 280   0.0000       2.592583        70.5478 
 281   0.0000       2.602380        70.8144 
 282   0.0000       2.634400        71.6857 
 283   0.0000       2.671779        72.7028 
 284   0.0000       2.692811        73.2751 
 285   0.0000       2.719260        73.9948 
 286   0.0000       2.739909        74.5567 
 287   0.0000       2.790368        75.9298 
 288   0.0000       2.803167        76.2780 
 289   0.0000       2.814459        76.5853 
 290   0.0000       2.859392        77.8080 
 291   0.0000       2.871637        78.1412 
 292   0.0000       2.877064        78.2889 
 293   0.0000       2.926995        79.6476 
 294   0.0000       2.934462        79.8508 
 295   0.0000       2.943407        80.0942 
 296   0.0000       2.960500        80.5593 
 297   0.0000       2.971224        80.8511 
 298   0.0000       2.979069        81.0646 
 299   0.0000       3.023247        82.2667 
 300   0.0000       3.035425        82.5981 
 301   0.0000       3.047051        82.9145 
 302   0.0000       3.061061        83.2957 
 303   0.0000       3.077049        83.7308 
 304   0.0000       3.087914        84.0264 
 305   0.0000       3.092527        84.1519 
 306   0.0000       3.111170        84.6593 
 307   0.0000       3.113126        84.7125 
 308   0.0000       3.124533        85.0229 
 309   0.0000       3.142179        85.5030 
 310   0.0000       3.152872        85.7940 
 311   0.0000       3.161694        86.0341 
 312   0.0000       3.180750        86.5526 
 313   0.0000       3.199574        87.0648 
 314   0.0000       3.220210        87.6264 
 315   0.0000       3.224110        87.7325 
 316   0.0000       3.232003        87.9473 
 317   0.0000       3.241766        88.2129 
 318   0.0000       3.255205        88.5786 
 319   0.0000       3.258701        88.6738 
 320   0.0000       3.291550        89.5676 
 321   0.0000       3.311786        90.1183 
 322   0.0000       3.315876        90.2296 
 323   0.0000       3.331303        90.6494 
 324   0.0000       3.333301        90.7037 
 325   0.0000       3.338274        90.8391 
 326   0.0000       3.339721        90.8784 
 327   0.0000       3.354422        91.2785 
 328   0.0000       3.371432        91.7413 
 329   0.0000       3.376303        91.8739 
 330   0.0000       3.382168        92.0335 
 331   0.0000       3.391364        92.2837 
 332   0.0000       3.420231        93.0692 
 333   0.0000       3.440820        93.6295 
 334   0.0000       3.445322        93.7520 
 335   0.0000       3.464102        94.2630 
 336   0.0000       3.467237        94.3483 
 337   0.0000       3.489965        94.9668 
 338   0.0000       3.498090        95.1879 
 339   0.0000       3.507426        95.4419 
 340   0.0000       3.521558        95.8265 
 341   0.0000       3.525294        95.9281 
 342   0.0000       3.557398        96.8017 
 343   0.0000       3.577216        97.3410 
 344   0.0000       3.589375        97.6719 
 345   0.0000       3.594708        97.8170 
 346   0.0000       3.609533        98.2204 
 347   0.0000       3.614625        98.3589 
 348   0.0000       3.620884        98.5293 
 349   0.0000       3.647542        99.2547 
 350   0.0000       3.655656        99.4755 
 351   0.0000       3.668543        99.8261 
 352   0.0000       3.672741        99.9404 
 353   0.0000       3.702286       100.7443 
 354   0.0000       3.705083       100.8204 
 355   0.0000       3.710330       100.9632 
 356   0.0000       3.734346       101.6167 
 357   0.0000       3.748739       102.0084 
 358   0.0000       3.755062       102.1804 
 359   0.0000       3.772458       102.6538 
 360   0.0000       3.781992       102.9132 
 361   0.0000       3.795022       103.2678 
 362   0.0000       3.803642       103.5024 
 363   0.0000       3.817200       103.8713 
 364   0.0000       3.825957       104.1096 
 365   0.0000       3.831637       104.2642 
 366   0.0000       3.862525       105.1046 
 367   0.0000       3.875155       105.4483 
 368   0.0000       3.891182       105.8844 
 369   0.0000       3.910986       106.4233 
 370   0.0000       3.911678       106.4422 
 371   0.0000       3.937621       107.1481 
 372   0.0000       3.938199       107.1638 
 373   0.0000       3.965317       107.9018 
 374   0.0000       3.971019       108.0569 
 375   0.0000       3.997210       108.7696 
 376   0.0000       4.000657       108.8634 
 377   0.0000       4.012771       109.1931 
 378   0.0000       4.039884       109.9308 
 379   0.0000       4.041232       109.9675 
 380   0.0000       4.061548       110.5203 
 381   0.0000       4.079399       111.0061 
 382   0.0000       4.099946       111.5652 
 383   0.0000       4.103161       111.6527 
 384   0.0000       4.118085       112.0588 
 385   0.0000       4.134403       112.5028 
 386   0.0000       4.143397       112.7476 
 387   0.0000       4.161307       113.2349 
 388   0.0000       4.183676       113.8436 
 389   0.0000       4.191595       114.0591 
 390   0.0000       4.195751       114.1722 
 391   0.0000       4.204630       114.4138 
 392   0.0000       4.230270       115.1115 
 393   0.0000       4.246067       115.5414 
 394   0.0000       4.248880       115.6179 
 395   0.0000       4.262220       115.9809 
 396   0.0000       4.276242       116.3625 
 397   0.0000       4.312007       117.3357 
 398   0.0000       4.319362       117.5358 
 399   0.0000       4.332392       117.8904 
 400   0.0000       4.335338       117.9705 
 401   0.0000       4.343979       118.2057 
 402   0.0000       4.360485       118.6548 
 403   0.0000       4.372243       118.9748 
 404   0.0000       4.390889       119.4822 
 405   0.0000       4.404627       119.8560 
 406   0.0000       4.405564       119.8815 
 407   0.0000       4.422152       120.3329 
 408   0.0000       4.443453       120.9125 
 409   0.0000       4.458422       121.3198 
 410   0.0000       4.473061       121.7182 
 411   0.0000       4.475679       121.7894 
 412   0.0000       4.496095       122.3450 
 413   0.0000       4.501437       122.4903 
 414   0.0000       4.515033       122.8603 
 415   0.0000       4.547125       123.7336 
 416   0.0000       4.573608       124.4542 
 417   0.0000       4.582829       124.7051 
 418   0.0000       4.599281       125.1528 
 419   0.0000       4.601844       125.2225 
 420   0.0000       4.612819       125.5212 
 421   0.0000       4.631362       126.0258 
 422   0.0000       4.641868       126.3116 
 423   0.0000       4.672239       127.1381 
 424   0.0000       4.677519       127.2818 
 425   0.0000       4.692389       127.6864 
 426   0.0000       4.742518       129.0505 
 427   0.0000       4.748165       129.2041 
 428   0.0000       4.766333       129.6985 
 429   0.0000       4.771958       129.8516 
 430   0.0000       4.788673       130.3064 
 431   0.0000       4.818456       131.1168 
 432   0.0000       4.820712       131.1782 
 433   0.0000       4.856292       132.1464 
 434   0.0000       4.886561       132.9701 
 435   0.0000       4.889873       133.0602 
 436   0.0000       4.896611       133.2436 
 437   0.0000       4.913374       133.6997 
 438   0.0000       4.919113       133.8559 
 439   0.0000       4.927204       134.0760 
 440   0.0000       4.955192       134.8376 
 441   0.0000       4.955791       134.8539 
 442   0.0000       4.993547       135.8813 
 443   0.0000       4.998089       136.0049 
 444   0.0000       5.015816       136.4873 
 445   0.0000       5.039323       137.1269 
 446   0.0000       5.050364       137.4274 
 447   0.0000       5.094589       138.6308 
 448   0.0000       5.128106       139.5429 
 449   0.0000       5.149382       140.1218 
 450   0.0000       5.155648       140.2923 
 451   0.0000       5.187218       141.1514 
 452   0.0000       5.188641       141.1901 
 453   0.0000       5.196642       141.4078 
 454   0.0000       5.198943       141.4704 
 455   0.0000       5.265076       143.2700 
 456   0.0000       5.275864       143.5636 
 457   0.0000       5.305981       144.3831 
 458   0.0000       5.314415       144.6126 
 459   0.0000       5.345319       145.4535 
 460   0.0000       5.381013       146.4248 
 461   0.0000       5.417067       147.4059 
 462   0.0000       5.420259       147.4928 
 463   0.0000       5.435679       147.9123 
 464   0.0000       5.454570       148.4264 
 465   0.0000       5.508388       149.8908 
 466   0.0000       5.543991       150.8597 
 467   0.0000       5.566848       151.4816 
 468   0.0000       5.601931       152.4363 
 469   0.0000       5.612876       152.7341 
 470   0.0000       5.629582       153.1887 
 471   0.0000       5.634301       153.3171 
 472   0.0000       5.646273       153.6429 
 473   0.0000       5.678327       154.5151 
 474   0.0000       5.689924       154.8307 
 475   0.0000       5.702119       155.1626 
 476   0.0000       5.740986       156.2202 
 477   0.0000       5.746058       156.3582 
 478   0.0000       5.771712       157.0563 
 479   0.0000       5.784203       157.3962 
 480   0.0000       5.798009       157.7719 
 481   0.0000       5.837728       158.8527 
 482   0.0000       5.854263       159.3026 
 483   0.0000       5.885757       160.1596 
 484   0.0000       5.924508       161.2141 
 485   0.0000       5.968066       162.3993 
 486   0.0000       5.999015       163.2415 
 487   0.0000       6.001058       163.2971 
 488   0.0000       6.052372       164.6934 
 489   0.0000       6.123114       166.6184 
 490   0.0000       6.343044       172.6030 
 491   0.0000       6.396611       174.0606 
 492   0.0000      23.489658       639.1861 
 493   0.0000      23.509284       639.7201 
 494   0.0000      23.929857       651.1645 
 495   0.0000      23.976926       652.4453 
 496   0.0000      23.978034       652.4755 
 497   0.0000      24.139020       656.8561 
 498   0.0000      24.184773       658.1011 
 499   0.0000      24.205745       658.6718 

                    ********************************
                    * MULLIKEN POPULATION ANALYSIS *
                    ********************************

-----------------------
MULLIKEN ATOMIC CHARGES
-----------------------
   0 C :   -0.250606
   1 C :   -0.136544
   2 C :   -0.137547
   3 H :   -0.024952
   4 C :   -0.251366
   5 H :   -0.021064
   6 H :   -0.021106
   7 H :   -0.024791
   8 C :    0.211187
   9 H :    0.049446
  10 H :    0.051813
  11 C :   -0.023645
  12 H :    0.074047
  13 H :    0.071467
  14 C :    0.211363
  15 H :    0.051624
  16 H :    0.049609
  17 C :   -0.024547
  18 H :    0.074038
  19 H :    0.071573
Sum of atomic charges:    0.0000000

--------------------------------
MULLIKEN REDUCED ORBITAL CHARGES
--------------------------------
  0 C s       :     3.566769  s :     3.566769
      pz      :     0.988861  p :     2.664995
      px      :     0.777306
      py      :     0.898828
      dz2     :    -0.006966  d :     0.011432
      dxz     :     0.026708
      dyz     :     0.014745
      dx2y2   :    -0.016133
      dxy     :    -0.006922
      f0      :     0.000735  f :     0.007410
      f+1     :     0.000893
      f-1     :     0.000615
      f+2     :     0.000900
      f-2     :     0.001344
      f+3     :     0.001652
      f-3     :     0.001271
  1 C s       :     3.389927  s :     3.389927
      pz      :     0.943453  p :     2.691753
      px      :     0.751544
      py      :     0.996756
      dz2     :     0.009664  d :     0.047435
      dxz     :     0.000642
      dyz     :    -0.005473
      dx2y2   :     0.005584
      dxy     :     0.037018
      f0      :     0.000839  f :     0.007429
      f+1     :     0.001103
      f-1     :     0.000426
      f+2     :     0.001290
      f-2     :     0.001293
      f+3     :     0.001565
      f-3     :     0.000912
  2 C s       :     3.390664  s :     3.390664
      pz      :     0.943104  p :     2.692055
      px      :     0.751938
      py      :     0.997013
      dz2     :     0.009732  d :     0.047399
      dxz     :     0.000637
      dyz     :    -0.005565
      dx2y2   :     0.005506
      dxy     :     0.037088
      f0      :     0.000840  f :     0.007429
      f+1     :     0.001103
      f-1     :     0.000425
      f+2     :     0.001290
      f-2     :     0.001293
      f+3     :     0.001565
      f-3     :     0.000913
  3 H s       :     0.985142  s :     0.985142
      pz      :     0.015004  p :     0.037791
      px      :     0.014282
      py      :     0.008505
      dz2     :     0.000484  d :     0.002019
      dxz     :     0.000360
      dyz     :     0.000363
      dx2y2   :     0.000507
      dxy     :     0.000306
  4 C s       :     3.567582  s :     3.567582
      pz      :     0.988810  p :     2.664956
      px      :     0.777510
      py      :     0.898636
      dz2     :    -0.006985  d :     0.011418
      dxz     :     0.026645
      dyz     :     0.014759
      dx2y2   :    -0.016117
      dxy     :    -0.006885
      f0      :     0.000734  f :     0.007410
      f+1     :     0.000894
      f-1     :     0.000615
      f+2     :     0.000900
      f-2     :     0.001344
      f+3     :     0.001652
      f-3     :     0.001271
  5 H s       :     0.983742  s :     0.983742
      pz      :     0.017928  p :     0.035320
      px      :     0.012468
      py      :     0.004924
      dz2     :     0.000349  d :     0.002002
      dxz     :     0.000262
      dyz     :     0.000420
      dx2y2   :     0.000455
      dxy     :     0.000516
  6 H s       :     0.983818  s :     0.983818
      pz      :     0.017949  p :     0.035286
      px      :     0.012439
      py      :     0.004899
      dz2     :     0.000350  d :     0.002002
      dxz     :     0.000262
      dyz     :     0.000420
      dx2y2   :     0.000455
      dxy     :     0.000516
  7 H s       :     0.985019  s :     0.985019
      pz      :     0.014977  p :     0.037752
      px      :     0.014310
      py      :     0.008465
      dz2     :     0.000484  d :     0.002019
      dxz     :     0.000360
      dyz     :     0.000363
      dx2y2   :     0.000506
      dxy     :     0.000305
  8 C s       :     2.772295  s :     2.772295
      pz      :     0.923744  p :     2.896111
      px      :     0.961954
      py      :     1.010413
      dz2     :     0.062927  d :     0.114523
      dxz     :     0.012349
      dyz     :     0.010504
      dx2y2   :     0.009120
      dxy     :     0.019623
      f0      :     0.000427  f :     0.005883
      f+1     :     0.000990
      f-1     :     0.000659
      f+2     :     0.000786
      f-2     :     0.001426
      f+3     :     0.000837
      f-3     :     0.000759
  9 H s       :     0.907080  s :     0.907080
      pz      :     0.002270  p :     0.041398
      px      :     0.015660
      py      :     0.023468
      dz2     :     0.000176  d :     0.002076
      dxz     :     0.000364
      dyz     :     0.000419
      dx2y2   :     0.000767
      dxy     :     0.000350
 10 H s       :     0.922807  s :     0.922807
      pz      :     0.015643  p :     0.023321
      px      :     0.005060
      py      :     0.002618
      dz2     :     0.000561  d :     0.002059
      dxz     :     0.000491
      dyz     :     0.000525
      dx2y2   :     0.000205
      dxy     :     0.000277
 11 C s       :     2.989085  s :     2.989085
      pz      :     1.005385  p :     2.962934
      px      :     1.059443
      py      :     0.898106
      dz2     :     0.004193  d :     0.065752
      dxz     :     0.023888
      dyz     :     0.007679
      dx2y2   :     0.009287
      dxy     :     0.020705
      f0      :     0.000408  f :     0.005874
      f+1     :     0.000678
      f-1     :     0.000716
      f+2     :     0.000682
      f-2     :     0.001476
      f+3     :     0.000915
      f-3     :     0.000999
 12 H s       :     0.875177  s :     0.875177
      pz      :     0.021279  p :     0.048723
      px      :     0.011528
      py      :     0.015915
      dz2     :     0.000572  d :     0.002053
      dxz     :     0.000334
      dyz     :     0.000355
      dx2y2   :     0.000333
      dxy     :     0.000460
 13 H s       :     0.889143  s :     0.889143
      pz      :     0.019944  p :     0.037324
      px      :     0.012002
      py      :     0.005378
      dz2     :     0.000620  d :     0.002066
      dxz     :     0.000404
      dyz     :     0.000437
      dx2y2   :     0.000286
      dxy     :     0.000320
 14 C s       :     2.771690  s :     2.771690
      pz      :     0.924012  p :     2.896508
      px      :     0.962002
      py      :     1.010494
      dz2     :     0.062892  d :     0.114556
      dxz     :     0.012410
      dyz     :     0.010512
      dx2y2   :     0.009121
      dxy     :     0.019621
      f0      :     0.000427  f :     0.005884
      f+1     :     0.000990
      f-1     :     0.000659
      f+2     :     0.000786
      f-2     :     0.001427
      f+3     :     0.000836
      f-3     :     0.000758
 15 H s       :     0.923012  s :     0.923012
      pz      :     0.015621  p :     0.023305
      px      :     0.005071
      py      :     0.002612
      dz2     :     0.000561  d :     0.002059
      dxz     :     0.000490
      dyz     :     0.000525
      dx2y2   :     0.000205
      dxy     :     0.000277
 16 H s       :     0.906892  s :     0.906892
      pz      :     0.002293  p :     0.041423
      px      :     0.015659
      py      :     0.023472
      dz2     :     0.000176  d :     0.002076
      dxz     :     0.000364
      dyz     :     0.000419
      dx2y2   :     0.000767
      dxy     :     0.000350
 17 C s       :     2.989775  s :     2.989775
      pz      :     1.005393  p :     2.963061
      px      :     1.059456
      py      :     0.898212
      dz2     :     0.004243  d :     0.065838
      dxz     :     0.023937
      dyz     :     0.007688
      dx2y2   :     0.009223
      dxy     :     0.020746
      f0      :     0.000407  f :     0.005874
      f+1     :     0.000678
      f-1     :     0.000715
      f+2     :     0.000682
      f-2     :     0.001476
      f+3     :     0.000915
      f-3     :     0.001000
 18 H s       :     0.875244  s :     0.875244
      pz      :     0.021274  p :     0.048665
      px      :     0.011490
      py      :     0.015901
      dz2     :     0.000572  d :     0.002053
      dxz     :     0.000334
      dyz     :     0.000355
      dx2y2   :     0.000333
      dxy     :     0.000459
 19 H s       :     0.889072  s :     0.889072
      pz      :     0.019934  p :     0.037288
      px      :     0.011990
      py      :     0.005363
      dz2     :     0.000620  d :     0.002066
      dxz     :     0.000404
      dyz     :     0.000437
      dx2y2   :     0.000286
      dxy     :     0.000320


                     *******************************
                     * LOEWDIN POPULATION ANALYSIS *
                     *******************************

----------------------
LOEWDIN ATOMIC CHARGES
----------------------
   0 C :    0.009048
   1 C :    0.013850
   2 C :    0.013875
   3 H :   -0.006115
   4 C :    0.009051
   5 H :   -0.005081
   6 H :   -0.005095
   7 H :   -0.006117
   8 C :   -0.026062
   9 H :    0.010229
  10 H :   -0.005791
  11 C :   -0.020946
  12 H :    0.016115
  13 H :    0.014734
  14 C :   -0.026045
  15 H :   -0.005785
  16 H :    0.010232
  17 C :   -0.020942
  18 H :    0.016123
  19 H :    0.014722

-------------------------------
LOEWDIN REDUCED ORBITAL CHARGES
-------------------------------
  0 C s       :     2.656150  s :     2.656150
      pz      :     0.802886  p :     2.582523
      px      :     0.936523
      py      :     0.843114
      dz2     :     0.071370  d :     0.711954
      dxz     :     0.160413
      dyz     :     0.103742
      dx2y2   :     0.159681
      dxy     :     0.216748
      f0      :     0.003746  f :     0.040325
      f+1     :     0.004699
      f-1     :     0.003914
      f+2     :     0.005212
      f-2     :     0.005369
      f+3     :     0.008408
      f-3     :     0.008975
  1 C s       :     2.653715  s :     2.653715
      pz      :     0.803499  p :     2.585114
      px      :     0.932437
      py      :     0.849178
      dz2     :     0.099259  d :     0.706873
      dxz     :     0.180432
      dyz     :     0.086518
      dx2y2   :     0.171895
      dxy     :     0.168769
      f0      :     0.004952  f :     0.040448
      f+1     :     0.005424
      f-1     :     0.002570
      f+2     :     0.007328
      f-2     :     0.004811
      f+3     :     0.008594
      f-3     :     0.006769
  2 C s       :     2.653716  s :     2.653716
      pz      :     0.803482  p :     2.585119
      px      :     0.932447
      py      :     0.849190
      dz2     :     0.099234  d :     0.706844
      dxz     :     0.180411
      dyz     :     0.086498
      dx2y2   :     0.171940
      dxy     :     0.168760
      f0      :     0.004952  f :     0.040447
      f+1     :     0.005423
      f-1     :     0.002569
      f+2     :     0.007327
      f-2     :     0.004810
      f+3     :     0.008595
      f-3     :     0.006771
  3 H s       :     0.704750  s :     0.704750
      pz      :     0.098133  p :     0.272681
      px      :     0.086043
      py      :     0.088506
      dz2     :     0.006121  d :     0.028684
      dxz     :     0.006010
      dyz     :     0.006264
      dx2y2   :     0.005290
      dxy     :     0.004998
  4 C s       :     2.656149  s :     2.656149
      pz      :     0.802983  p :     2.582532
      px      :     0.936488
      py      :     0.843060
      dz2     :     0.071428  d :     0.711943
      dxz     :     0.160454
      dyz     :     0.103729
      dx2y2   :     0.159653
      dxy     :     0.216679
      f0      :     0.003745  f :     0.040326
      f+1     :     0.004704
      f-1     :     0.003917
      f+2     :     0.005213
      f-2     :     0.005368
      f+3     :     0.008406
      f-3     :     0.008973
  5 H s       :     0.704006  s :     0.704006
      pz      :     0.089137  p :     0.272278
      px      :     0.075197
      py      :     0.107945
      dz2     :     0.004573  d :     0.028797
      dxz     :     0.003004
      dyz     :     0.007903
      dx2y2   :     0.006733
      dxy     :     0.006583
  6 H s       :     0.704006  s :     0.704006
      pz      :     0.089149  p :     0.272292
      px      :     0.075190
      py      :     0.107952
      dz2     :     0.004575  d :     0.028797
      dxz     :     0.003005
      dyz     :     0.007904
      dx2y2   :     0.006732
      dxy     :     0.006583
  7 H s       :     0.704752  s :     0.704752
      pz      :     0.098158  p :     0.272682
      px      :     0.086033
      py      :     0.088491
      dz2     :     0.006127  d :     0.028684
      dxz     :     0.006013
      dyz     :     0.006267
      dx2y2   :     0.005285
      dxy     :     0.004992
  8 C s       :     2.607809  s :     2.607809
      pz      :     0.884010  p :     2.628045
      px      :     0.871285
      py      :     0.872750
      dz2     :     0.142132  d :     0.748951
      dxz     :     0.160771
      dyz     :     0.139133
      dx2y2   :     0.107144
      dxy     :     0.199770
      f0      :     0.004326  f :     0.041257
      f+1     :     0.006891
      f-1     :     0.005886
      f+2     :     0.005563
      f-2     :     0.006418
      f+3     :     0.006449
      f-3     :     0.005724
  9 H s       :     0.692584  s :     0.692584
      pz      :     0.075702  p :     0.267621
      px      :     0.092369
      py      :     0.099550
      dz2     :     0.003083  d :     0.029567
      dxz     :     0.004743
      dyz     :     0.005870
      dx2y2   :     0.008248
      dxy     :     0.007623
 10 H s       :     0.676559  s :     0.676559
      pz      :     0.106838  p :     0.299050
      px      :     0.095260
      py      :     0.096952
      dz2     :     0.009709  d :     0.030182
      dxz     :     0.007776
      dyz     :     0.007230
      dx2y2   :     0.002263
      dxy     :     0.003204
 11 C s       :     2.617329  s :     2.617329
      pz      :     0.891437  p :     2.628400
      px      :     0.871286
      py      :     0.865677
      dz2     :     0.083642  d :     0.734491
      dxz     :     0.166100
      dyz     :     0.167584
      dx2y2   :     0.153883
      dxy     :     0.163282
      f0      :     0.004226  f :     0.040727
      f+1     :     0.004935
      f-1     :     0.006092
      f+2     :     0.005479
      f-2     :     0.006552
      f+3     :     0.006052
      f-3     :     0.007390
 12 H s       :     0.689718  s :     0.689718
      pz      :     0.094257  p :     0.265137
      px      :     0.095223
      py      :     0.075657
      dz2     :     0.006757  d :     0.029030
      dxz     :     0.007367
      dyz     :     0.004596
      dx2y2   :     0.004809
      dxy     :     0.005501
 13 H s       :     0.687009  s :     0.687009
      pz      :     0.104348  p :     0.268788
      px      :     0.083309
      py      :     0.081131
      dz2     :     0.008022  d :     0.029468
      dxz     :     0.007544
      dyz     :     0.006446
      dx2y2   :     0.003338
      dxy     :     0.004119
 14 C s       :     2.607804  s :     2.607804
      pz      :     0.884001  p :     2.628039
      px      :     0.871282
      py      :     0.872757
      dz2     :     0.142063  d :     0.748943
      dxz     :     0.160823
      dyz     :     0.139222
      dx2y2   :     0.107127
      dxy     :     0.199708
      f0      :     0.004328  f :     0.041259
      f+1     :     0.006892
      f-1     :     0.005886
      f+2     :     0.005562
      f-2     :     0.006422
      f+3     :     0.006447
      f-3     :     0.005723
 15 H s       :     0.676540  s :     0.676540
      pz      :     0.106807  p :     0.299064
      px      :     0.095278
      py      :     0.096979
      dz2     :     0.009705  d :     0.030181
      dxz     :     0.007774
      dyz     :     0.007227
      dx2y2   :     0.002267
      dxy     :     0.003208
 16 H s       :     0.692592  s :     0.692592
      pz      :     0.075711  p :     0.267610
      px      :     0.092356
      py      :     0.099543
      dz2     :     0.003086  d :     0.029566
      dxz     :     0.004744
      dyz     :     0.005871
      dx2y2   :     0.008245
      dxy     :     0.007621
 17 C s       :     2.617326  s :     2.617326
      pz      :     0.891448  p :     2.628407
      px      :     0.871283
      py      :     0.865676
      dz2     :     0.083634  d :     0.734482
      dxz     :     0.166130
      dyz     :     0.167556
      dx2y2   :     0.153871
      dxy     :     0.163292
      f0      :     0.004225  f :     0.040727
      f+1     :     0.004937
      f-1     :     0.006092
      f+2     :     0.005478
      f-2     :     0.006553
      f+3     :     0.006051
      f-3     :     0.007391
 18 H s       :     0.689710  s :     0.689710
      pz      :     0.094279  p :     0.265138
      px      :     0.095197
      py      :     0.075662
      dz2     :     0.006759  d :     0.029030
      dxz     :     0.007367
      dyz     :     0.004600
      dx2y2   :     0.004806
      dxy     :     0.005498
 19 H s       :     0.687020  s :     0.687020
      pz      :     0.104338  p :     0.268789
      px      :     0.083330
      py      :     0.081121
      dz2     :     0.008021  d :     0.029469
      dxz     :     0.007544
      dyz     :     0.006443
      dx2y2   :     0.003340
      dxy     :     0.004121


                      *****************************
                      * MAYER POPULATION ANALYSIS *
                      *****************************

  NA   - Mulliken gross atomic population
  ZA   - Total nuclear charge
  QA   - Mulliken gross atomic charge
  VA   - Mayer's total valence
  BVA  - Mayer's bonded valence
  FA   - Mayer's free valence

  ATOM       NA         ZA         QA         VA         BVA        FA
  0 C      6.2506     6.0000    -0.2506     3.4106     3.4106     0.0000
  1 C      6.1365     6.0000    -0.1365     3.2795     3.2795    -0.0000
  2 C      6.1375     6.0000    -0.1375     3.2798     3.2798    -0.0000
  3 H      1.0250     1.0000    -0.0250     0.9887     0.9887     0.0000
  4 C      6.2514     6.0000    -0.2514     3.4089     3.4089     0.0000
  5 H      1.0211     1.0000    -0.0211     0.9831     0.9831     0.0000
  6 H      1.0211     1.0000    -0.0211     0.9829     0.9829    -0.0000
  7 H      1.0248     1.0000    -0.0248     0.9886     0.9886    -0.0000
  8 C      5.7888     6.0000     0.2112     3.6109     3.6109     0.0000
  9 H      0.9506     1.0000     0.0494     1.0602     1.0602     0.0000
 10 H      0.9482     1.0000     0.0518     0.9445     0.9445     0.0000
 11 C      6.0236     6.0000    -0.0236     3.7487     3.7487     0.0000
 12 H      0.9260     1.0000     0.0740     1.0280     1.0280    -0.0000
 13 H      0.9285     1.0000     0.0715     1.0297     1.0297     0.0000
 14 C      5.7886     6.0000     0.2114     3.6095     3.6095    -0.0000
 15 H      0.9484     1.0000     0.0516     0.9446     0.9446    -0.0000
 16 H      0.9504     1.0000     0.0496     1.0601     1.0601    -0.0000
 17 C      6.0245     6.0000    -0.0245     3.7485     3.7485     0.0000
 18 H      0.9260     1.0000     0.0740     1.0278     1.0278     0.0000
 19 H      0.9284     1.0000     0.0716     1.0297     1.0297    -0.0000

  Mayer bond orders larger than 0.100000
B(  0-C ,  2-C ) :   1.3456 B(  0-C ,  3-H ) :   1.1312 B(  0-C ,  8-C ) :  -0.1013 
B(  0-C , 11-C ) :   1.0428 B(  1-C ,  4-C ) :   1.3441 B(  1-C ,  5-H ) :   1.0880 
B(  1-C , 11-C ) :   0.2121 B(  1-C , 14-C ) :   0.8691 B(  1-C , 17-C ) :  -0.2088 
B(  2-C ,  6-H ) :   1.0882 B(  2-C ,  8-C ) :   0.8675 B(  2-C , 11-C ) :  -0.2079 
B(  2-C , 17-C ) :   0.2127 B(  4-C ,  7-H ) :   1.1307 B(  4-C , 14-C ) :  -0.1025 
B(  4-C , 17-C ) :   1.0437 B(  8-C ,  9-H ) :   1.0424 B(  8-C , 10-H ) :   0.9796 
B(  8-C , 14-C ) :   0.1446 B(  8-C , 17-C ) :   0.7779 B( 11-C , 12-H ) :   0.9721 
B( 11-C , 13-H ) :   0.9673 B( 11-C , 14-C ) :   0.7772 B( 14-C , 15-H ) :   0.9792 
B( 14-C , 16-H ) :   1.0422 B( 17-C , 18-H ) :   0.9720 B( 17-C , 19-H ) :   0.9674 


-------
TIMINGS
-------

Total SCF time: 0 days 0 hours 0 min 14 sec 

Total time                  ....      14.129 sec
Sum of individual times     ....      13.679 sec  ( 96.8%)

Fock matrix formation       ....      11.945 sec  ( 84.5%)
  XC integration            ....       2.512 sec  ( 21.0% of F)
    Basis function eval.    ....       0.430 sec  ( 17.1% of XC)
    Density eval.           ....       0.650 sec  ( 25.9% of XC)
    XC-Functional eval.     ....       0.040 sec  (  1.6% of XC)
    XC-Potential eval.      ....       0.888 sec  ( 35.4% of XC)
Diagonalization             ....       0.400 sec  (  2.8%)
Density matrix formation    ....       0.033 sec  (  0.2%)
Population analysis         ....       0.044 sec  (  0.3%)
Initial guess               ....       0.356 sec  (  2.5%)
Orbital Transformation      ....       0.000 sec  (  0.0%)
Orbital Orthonormalization  ....       0.000 sec  (  0.0%)
DIIS solution               ....       0.222 sec  (  1.6%)
SOSCF solution              ....       0.228 sec  (  1.6%)
Grid generation             ....       0.451 sec  (  3.2%)


           ************************************************************
           *        Program running with 24 parallel MPI-processes    *
           *              working on a common directory               *
           ************************************************************

------------------------------------------------------------------------------
                                ORCA  MP2 
------------------------------------------------------------------------------

Freezing NCore=16 chemical core electrons

-------------
RI-MP2 ENERGY
-------------
Dimension of the basis                    ...  500
Memory devoted to MP2                     ... 5000 MB   
Data format for buffers                   ... DOUBLE
Compression type for matrix containers    ... UNCOMPRESSED
Overall scaling of the MP2 energy         ...   2.700e-01
Calculating two index integrals           ... done (    0.010 sec)
Cholesky decomposition of V**-1           ... done (    0.133 sec)

-----------------
RI-TRANSFORMATION (AUX index driven)
-----------------

Dimension of the orbital-basis         ... 500
Dimension of the aux-basis             ... 1204
Transformation of internal/external MOs...    8-  29 to   30- 499
Number Format for Storage              ... Double (8 Byte)
Integral mode                          ... Direct

First Phase: integral generation and transformation of MO indices
  Aux angular momentum 0               ... done (    0.040 sec)
  Aux angular momentum 1               ... done (    0.079 sec)
  Aux angular momentum 2               ... done (    0.119 sec)
  Aux angular momentum 3               ... done (    0.073 sec)
  Aux angular momentum 4               ... done (    0.044 sec)
Closing buffer VIA ( 0.09 GB; CompressionRatio= 1.00)
  Phase 1 completed in     0.442 sec
Second Phase: sorting and transformation of aux index

IA-Transformation
Memory available                       ... 4969 MB 
Max. # MO pairs treated in a batch     ... 1    
# of internal orbitals                 ... 22
# batches for internal orbitals        ... 1
Closing buffer IAV ( 0.00 GB; CompressionRatio= 1.00)
(ia|v) transformation done in     0.057 sec

  Phase 2 completed in     0.145 sec
RI-Integral transformation completed in     0.595 sec
Opening buffers                              ... done

Starting loop over batches of integrals:

Operator 0  - window                       ... (  8- 29)x( 30-499)
Operator 0  - Memory available             ...  5000 MB
Operator 0  - Memory needed per MO         ...   4.3 MB
Operator 0  - Number of orbitals per batch ... 1
Operator 0  - Number of batches            ... 1

OPERATOR  0   PASS   0:  MOs     8 ...    8 +    9 ...    9 +   10 ...   10 +   11 ...   11
                            +   12 ...   12 +   13 ...   13 +   14 ...   14 +   15 ...   15
                            +   16 ...   16 +   17 ...   17 +   18 ...   18 +   19 ...   19
                            +   20 ...   20 +   21 ...   21 +   22 ...   22 +   23 ...   23
                            +   24 ...   24 +   25 ...   25 +   26 ...   26 +   27 ...   27
                            +   28 ...   28 +   29 ...   29
  Reading integrals       ... ok
Time spent in pair loops =     0.031 sec
Deleting buffer (Ka|jb)[aa] ...done

-----------------------------------------------
 RI-MP2 CORRELATION ENERGY:     -0.437082913 Eh
-----------------------------------------------


-------
TIMINGS
-------

Total time                :    1.069 sec
Integral trafo            :    0.610 sec ( 57.1%)
I/O of integrals          :    0.005 sec (  0.5%)
K(i,j) Operators          :    0.010 sec (  1.0%)
T(i,j) pair energies      :    0.004 sec (  0.4%)
V-calculation             :    0.010 sec (  0.9%)
V**(-1/2)                 :    0.133 sec ( 12.4%)
Gamma(ia|P)               :    0.000 sec (  0.0%)
Gamma-Trafo               :    0.000 sec (  0.0%)
D(virtual)                :    0.000 sec (  0.0%)
D(internal)               :    0.000 sec (  0.0%)
W(virtual)                :    0.000 sec (  0.0%)
W(internal)               :    0.000 sec (  0.0%)
L(virtual)                :    0.000 sec (  0.0%)
L(internal)               :    0.000 sec (  0.0%)
G(D)                      :    0.000 sec (  0.0%)
G(Z)                      :    0.000 sec (  0.0%)
Z-Vector Solution         :    0.000 sec (  0.0%)
Z-Vector Solution         :    0.000 sec (  0.0%)
3-Index Derivative 
+ Separable RIJ part      :    0.000 sec (  0.0%)
2-Index Derivative 
+ Separable RIJ part      :    0.000 sec (  0.0%)
Separable Gradient (X)    :    0.000 sec (  0.0%)


---------------------------------------
MP2 TOTAL ENERGY:     -311.849940293 Eh
---------------------------------------


-------------------------------------------------------------------------------
                          DFT DISPERSION CORRECTION                            
                                                                               
                              DFTD3 V3.1  Rev 1                                
                          USING Becke-Johnson damping                          
-------------------------------------------------------------------------------
The B2PLYP functional is recognized
Active option DFTDOPT                   ...         4   

molecular C6(AA) [au] = 3401.101897 


            DFT-D V3
 parameters
 s6 scaling factor         :     0.6400 
 a1 scaling factor         :     0.3065 
 s8 scaling factor         :     0.9147 
 a2 scaling factor         :     5.0570 
 ad hoc parameters k1-k3   :    16.0000     1.3333    -4.0000 

 Edisp/kcal,au: -9.778408890704  -0.015582884804 
 E6   /kcal   :  -5.604601775 
 E8   /kcal   :  -4.173807116 
 % E8         :  42.683908625 

-------------------------   ----------------
Dispersion correction           -0.015582885
-------------------------   ----------------


-------------------------   --------------------
FINAL SINGLE POINT ENERGY      -311.865523178043
-------------------------   --------------------


                            ***************************************
                            *     ORCA property calculations      *
                            ***************************************


  WARNING: The energy has been calculated at the MP2 level but the densities
           used in the property calculations are still SCF densities
           MP2 response densities have not been calculated 
           use %mp2 Density relaxed end
           or  %mp2 Density unrelaxed end

                                    ---------------------
                                    Active property flags
                                    ---------------------
   (+) Dipole Moment


------------------------------------------------------------------------------
                       ORCA ELECTRIC PROPERTIES CALCULATION
------------------------------------------------------------------------------

Dipole Moment Calculation                       ... on
Quadrupole Moment Calculation                   ... off
Polarizability Calculation                      ... off
GBWName                                         ... MOR06_cod.gbw
Electron density file                           ... MOR06_cod.scfp
The origin for moment calculation is the CENTER OF MASS  = ( 0.000005, -0.000005 -0.015873)

-------------
DIPOLE MOMENT
-------------
                                X             Y             Z
Electronic contribution:      0.00031      -0.00032      -0.85717
Nuclear contribution   :     -0.00029       0.00032       0.95237
                        -----------------------------------------
Total Dipole Moment    :      0.00002      -0.00000       0.09520
                        -----------------------------------------
Magnitude (a.u.)       :      0.09520
Magnitude (Debye)      :      0.24197



--------------------
Rotational spectrum 
--------------------
 
Rotational constants in cm-1:     0.087291     0.074989     0.047810 
Rotational constants in MHz :  2616.931187  2248.128417  1433.302108 

 Dipole components along the rotational axes: 
x,y,z [a.u.] :    -0.000022    -0.000004     0.095197 
x,y,z [Debye]:    -0.000056    -0.000010     0.241972 

 

Timings for individual modules:

Sum of individual times         ...       16.791 sec (=   0.280 min)
GTO integral calculation        ...        0.771 sec (=   0.013 min)   4.6 %
SCF iterations                  ...       14.472 sec (=   0.241 min)  86.2 %
MP2 module                      ...        1.548 sec (=   0.026 min)   9.2 %
                             ****ORCA TERMINATED NORMALLY****
TOTAL RUN TIME: 0 days 0 hours 0 minutes 17 seconds 323 msec
