
                                 *****************
                                 * O   R   C   A *
                                 *****************

           --- An Ab Initio, DFT and Semiempirical electronic structure package ---

                  #######################################################
                  #                        -***-                        #
                  #          Department of theory and spectroscopy      #
                  #               Directorship: Frank Neese             #
                  #        Max Planck Institute fuer Kohlenforschung    #
                  #                Kaiser Wilhelm Platz 1               #
                  #                 D-45470 Muelheim/Ruhr               #
                  #                      Germany                        #
                  #                                                     #
                  #                  All rights reserved                #
                  #                        -***-                        #
                  #######################################################


                         Program Version 4.2.0 -  RELEASE  -


 With contributions from (in alphabetic order):
   Daniel Aravena         : Magnetic Suceptibility
   Michael Atanasov       : Ab Initio Ligand Field Theory (pilot matlab implementation)
   Alexander A. Auer      : GIAO ZORA, VPT2
   Ute Becker             : Parallelization
   Giovanni Bistoni       : ED, misc. LED, open-shell LED, HFLED
   Martin Brehm           : Molecular dynamics
   Dmytro Bykov           : SCF Hessian
   Vijay G. Chilkuri      : MRCI spin determinant printing, contributions to CSF-ICE
   Dipayan Datta          : RHF DLPNO-CCSD density
   Achintya Kumar Dutta   : EOM-CC, STEOM-CC
   Dmitry Ganyushin       : Spin-Orbit,Spin-Spin,Magnetic field MRCI
   Miquel Garcia          : C-PCM Hessian, Gaussian charge scheme
   Yang Guo               : DLPNO-NEVPT2, CIM, IAO-localization
   Andreas Hansen         : Spin unrestricted coupled pair/coupled cluster methods
   Benjamin Helmich-Paris : CASSCF linear response (MC-RPA)
   Lee Huntington         : MR-EOM, pCC
   Robert Izsak           : Overlap fitted RIJCOSX, COSX-SCS-MP3, EOM
   Christian Kollmar      : KDIIS, OOCD, Brueckner-CCSD(T), CCSD density
   Simone Kossmann        : Meta GGA functionals, TD-DFT gradient, OOMP2, MP2 Hessian
   Martin Krupicka        : AUTO-CI
   Lucas Lang             : DCDCAS
   Dagmar Lenk            : GEPOL surface, SMD
   Dimitrios Liakos       : Extrapolation schemes; Compound Job, initial MDCI parallelization
   Dimitrios Manganas     : Further ROCIS development; embedding schemes
   Dimitrios Pantazis     : SARC Basis sets
   Taras Petrenko         : DFT Hessian,TD-DFT gradient, ASA, ECA, R-Raman, ABS, FL, XAS/XES, NRVS
   Peter Pinski           : DLPNO-MP2, DLPNO-MP2 Gradient
   Christoph Reimann      : Effective Core Potentials
   Marius Retegan         : Local ZFS, SOC
   Christoph Riplinger    : Optimizer, TS searches, QM/MM, DLPNO-CCSD(T), (RO)-DLPNO pert. Triples
   Tobias Risthaus        : Range-separated hybrids, TD-DFT gradient, RPA, STAB
   Michael Roemelt        : Original ROCIS implementation
   Masaaki Saitow         : Open-shell DLPNO-CCSD energy and density
   Barbara Sandhoefer     : DKH picture change effects
   Avijit Sen             : IP-ROCIS
   Kantharuban Sivalingam : CASSCF convergence, NEVPT2, FIC-MRCI
   Bernardo de Souza      : ESD, SOC TD-DFT
   Georgi Stoychev        : AutoAux, RI-MP2 NMR
   Willem Van den Heuvel  : Paramagnetic NMR
   Boris Wezisla          : Elementary symmetry handling
   Frank Wennmohs         : Technical directorship


 We gratefully acknowledge several colleagues who have allowed us to
 interface, adapt or use parts of their codes:
   Stefan Grimme, W. Hujo, H. Kruse,             : VdW corrections, initial TS optimization,
                  C. Bannwarth                     DFT functionals, gCP, sTDA/sTD-DF
   Ed Valeev, F. Pavosevic, A. Kumar             : LibInt (2-el integral package), F12 methods
   Garnet Chan, S. Sharma, J. Yang, R. Olivares  : DMRG
   Ulf Ekstrom                                   : XCFun DFT Library
   Mihaly Kallay                                 : mrcc  (arbitrary order and MRCC methods)
   Andreas Klamt, Michael Diedenhofen            : otool_cosmo (COSMO solvation model)
   Jiri Pittner, Ondrej Demel                    : Mk-CCSD
   Frank Weinhold                                : gennbo (NPA and NBO analysis)
   Christopher J. Cramer and Donald G. Truhlar   : smd solvation model
   Lars Goerigk                                  : TD-DFT with DH, B97 family of functionals
   V. Asgeirsson, H. Jonsson                     : NEB implementation
   FAccTs GmbH                                   : IRC, NEB, NEB-TS, Multilevel, MM, QM/MM, CI optimization
   S Lehtola, MJT Oliveira, MAL Marques          : LibXC Library


 Your calculation uses the libint2 library for the computation of 2-el integrals
 For citations please refer to: http://libint.valeyev.net

 Your ORCA version has been built with support for libXC version: 4.2.3
 For citations please refer to: https://tddft.org/programs/libxc/

 This ORCA versions uses:
   CBLAS   interface :  Fast vector & matrix operations
   LAPACKE interface :  Fast linear algebra routines
   SCALAPACK package :  Parallel linear algebra routines


Your calculation utilizes the atom-pairwise dispersion correction
with the Becke-Johnson damping scheme (D3BJ)
Cite in your paper:
S.Grimme, S.Ehrlich, L.Goerigk, J Comput Chem, (2011), 32, 1456–1465 
S.Grimme, J.Antony, S.Ehrlich and H.Krieg, J.Chem.Phys., 132, (2010), 154104 
   

----- Orbital basis set information -----
Your calculation utilizes the basis: def2-TZVPPD
   F. Weigend and R. Ahlrichs, Phys. Chem. Chem. Phys. 7, 3297 (2005).
   D. Rappoport and F. Furche, J. Chem. Phys. 133 134105 (2010).

----- AuxC basis set information -----
Your calculation utilizes the auxiliary basis: def2-TZVPPD/C
   A. Hellweg, C. Hattig, S. Hofener and W. Klopper, Theor. Chem. Acc. 117, 587 (2007).

----- AuxJK basis set information -----
Your calculation utilizes the auxiliary basis: def2/JK
   H-Ba, Hf-Rn: F. Weigend, J. Comput. Chem. 29, 167 (2008).

================================================================================
                                        WARNINGS
                       Please study these warnings very carefully!
================================================================================


WARNING: No MP2 level density has been requested!
         To caclulate MP2 level properties use
         %mp2 Density relaxed end
         or
         %mp2 Density unrelaxed end
         Otherwise for double-hybrid DFT only the energy is correct!

WARNING: The frozen-core approximation is turned on by default for 
         the MP2 part of double-hybrid DFT.

INFO   : the flag for use of LIBINT has been found!

================================================================================
                                       INPUT FILE
================================================================================
NAME = MOR02_bz.in
|  1> #
|  2> # MOR02_bz ri-B2PLYP-D3BJ/Def2-TZVPPD
|  3> #
|  4> ! rijk ri-b2plyp d3bj def2-tzvppd def2/jk def2-tzvppd/c grid4 nofinalgrid
|  5> 
|  6> *xyz 0 1
|  7> C        1.391947    0.103893   -0.000005 
|  8> C        0.785946   -1.153510   -0.000002 
|  9> C       -0.605997   -1.257403   -0.000005 
| 10> C       -1.391947   -0.103892   -0.000002 
| 11> C       -0.785947    1.153509   -0.000006 
| 12> C        0.605998    1.257403   -0.000002 
| 13> H        2.475503    0.184769    0.000018 
| 14> H        1.397775   -2.051448    0.000027 
| 15> H       -1.077745   -2.236217    0.000018 
| 16> H       -2.475502   -0.184774    0.000031 
| 17> H       -1.397773    2.051449    0.000014 
| 18> H        1.077742    2.236219    0.000031 
| 19> *
| 20> 
| 21> %maxcore 5000
| 22> 
| 23> %pal
| 24> nprocs = 24
| 25> end
| 26> 
| 27> 
| 28>                          ****END OF INPUT****
================================================================================

                       ****************************
                       * Single Point Calculation *
                       ****************************

---------------------------------
CARTESIAN COORDINATES (ANGSTROEM)
---------------------------------
  C      1.391947    0.103893   -0.000005
  C      0.785946   -1.153510   -0.000002
  C     -0.605997   -1.257403   -0.000005
  C     -1.391947   -0.103892   -0.000002
  C     -0.785947    1.153509   -0.000006
  C      0.605998    1.257403   -0.000002
  H      2.475503    0.184769    0.000018
  H      1.397775   -2.051448    0.000027
  H     -1.077745   -2.236217    0.000018
  H     -2.475502   -0.184774    0.000031
  H     -1.397773    2.051449    0.000014
  H      1.077742    2.236219    0.000031

----------------------------
CARTESIAN COORDINATES (A.U.)
----------------------------
  NO LB      ZA    FRAG     MASS         X           Y           Z
   0 C     6.0000    0    12.011    2.630399    0.196329   -0.000009
   1 C     6.0000    0    12.011    1.485223   -2.179818   -0.000004
   2 C     6.0000    0    12.011   -1.145168   -2.376147   -0.000009
   3 C     6.0000    0    12.011   -2.630399   -0.196327   -0.000004
   4 C     6.0000    0    12.011   -1.485225    2.179816   -0.000011
   5 C     6.0000    0    12.011    1.145170    2.376147   -0.000004
   6 H     1.0000    0     1.008    4.678023    0.349163    0.000034
   7 H     1.0000    0     1.008    2.641412   -3.876675    0.000051
   8 H     1.0000    0     1.008   -2.036643   -4.225838    0.000034
   9 H     1.0000    0     1.008   -4.678021   -0.349172    0.000059
  10 H     1.0000    0     1.008   -2.641408    3.876677    0.000026
  11 H     1.0000    0     1.008    2.036637    4.225841    0.000059

--------------------------------
INTERNAL COORDINATES (ANGSTROEM)
--------------------------------
 C      0   0   0     0.000000000000     0.00000000     0.00000000
 C      1   0   0     1.395815000786     0.00000000     0.00000000
 C      2   1   0     1.395814841126   120.00015529     0.00000000
 C      3   2   1     1.395816975692   120.00016495     0.00000000
 C      4   3   2     1.395812764957   119.99968110     0.00000000
 C      1   2   3     1.395815586211   119.99969057     0.00000000
 H      1   2   3     1.086570077372   120.00018922   179.99874176
 H      2   1   3     1.086566784844   119.99903336   180.00148136
 H      3   2   1     1.086564780687   120.00072526   180.00125825
 H      4   3   2     1.086569527015   119.99981156   180.00215151
 H      5   4   3     1.086566748192   119.99922480   180.00107556
 H      6   1   2     1.086564845962   119.99935638   179.99784849

---------------------------
INTERNAL COORDINATES (A.U.)
---------------------------
 C      0   0   0     0.000000000000     0.00000000     0.00000000
 C      1   0   0     2.637708085104     0.00000000     0.00000000
 C      2   1   0     2.637707783391   120.00015529     0.00000000
 C      3   2   1     2.637711817136   120.00016495     0.00000000
 C      4   3   2     2.637703860000   119.99968110     0.00000000
 C      1   2   3     2.637709191398   119.99969057     0.00000000
 H      1   2   3     2.053319871547   120.00018922   179.99874176
 H      2   1   3     2.053313649570   119.99903336   180.00148136
 H      3   2   1     2.053309862262   120.00072526   180.00125825
 H      4   3   2     2.053318831523   119.99981156   180.00215151
 H      5   4   3     2.053313580308   119.99922480   180.00107556
 H      6   1   2     2.053309985615   119.99935638   179.99784849

---------------------
BASIS SET INFORMATION
---------------------
There are 2 groups of distinct atoms

 Group   1 Type C   : 12s6p3d1f contracted to 6s3p3d1f pattern {621111/411/111/1}
 Group   2 Type H   : 5s3p1d contracted to 3s3p1d pattern {311/111/1}

Atom   0C    basis set group =>   1
Atom   1C    basis set group =>   1
Atom   2C    basis set group =>   1
Atom   3C    basis set group =>   1
Atom   4C    basis set group =>   1
Atom   5C    basis set group =>   1
Atom   6H    basis set group =>   2
Atom   7H    basis set group =>   2
Atom   8H    basis set group =>   2
Atom   9H    basis set group =>   2
Atom  10H    basis set group =>   2
Atom  11H    basis set group =>   2
---------------------------------
AUXILIARY/C BASIS SET INFORMATION
---------------------------------
There are 2 groups of distinct atoms

 Group   1 Type C   : 9s7p6d4f1g contracted to 9s7p5d4f1g pattern {111111111/1111111/21111/1111/1}
 Group   2 Type H   : 5s4p3d1f contracted to 5s4p3d1f pattern {11111/1111/111/1}

Atom   0C    basis set group =>   1
Atom   1C    basis set group =>   1
Atom   2C    basis set group =>   1
Atom   3C    basis set group =>   1
Atom   4C    basis set group =>   1
Atom   5C    basis set group =>   1
Atom   6H    basis set group =>   2
Atom   7H    basis set group =>   2
Atom   8H    basis set group =>   2
Atom   9H    basis set group =>   2
Atom  10H    basis set group =>   2
Atom  11H    basis set group =>   2
----------------------------------
AUXILIARY/JK BASIS SET INFORMATION
----------------------------------
There are 2 groups of distinct atoms

 Group   1 Type C   : 14s10p6d2f1g contracted to 10s8p5d1f1g pattern {5111111111/31111111/21111/2/1}
 Group   2 Type H   : 4s2p2d contracted to 2s2p2d pattern {31/11/11}

Atom   0C    basis set group =>   1
Atom   1C    basis set group =>   1
Atom   2C    basis set group =>   1
Atom   3C    basis set group =>   1
Atom   4C    basis set group =>   1
Atom   5C    basis set group =>   1
Atom   6H    basis set group =>   2
Atom   7H    basis set group =>   2
Atom   8H    basis set group =>   2
Atom   9H    basis set group =>   2
Atom  10H    basis set group =>   2
Atom  11H    basis set group =>   2


           ************************************************************
           *        Program running with 24 parallel MPI-processes    *
           *              working on a common directory               *
           ************************************************************
------------------------------------------------------------------------------
                           ORCA GTO INTEGRAL CALCULATION
                           -- RI-GTO INTEGRALS CHOSEN --
------------------------------------------------------------------------------

                         BASIS SET STATISTICS AND STARTUP INFO

Gaussian basis set:
 # of primitive gaussian shells          ...  186
 # of primitive gaussian functions       ...  426
 # of contracted shells                  ...  120
 # of contracted basis functions         ...  324
 Highest angular momentum                ...    3
 Maximum contraction depth               ...    6
Auxiliary gaussian basis set:
 # of primitive gaussian shells          ...  246
 # of primitive gaussian functions       ...  702
 # of contracted shells                  ...  186
 # of contracted aux-basis functions     ...  558
 Highest angular momentum                ...    4
 Maximum contraction depth               ...    5
Ratio of auxiliary to basis functions    ...  1.72
Integral package used                  ... LIBINT
 One Electron integrals                  ... done
 Ordering auxiliary basis shells         ... done
 Integral threshhold             Thresh  ...  1.000e-10
 Primitive cut-off               TCut    ...  1.000e-11
 Pre-screening matrix                    ... done
 Shell pair data                         ... 
 Ordering of the shell pairs             ... done (   0.001 sec) 7025 of 7260 pairs
 Determination of significant pairs      ... done (   0.000 sec)
 Creation of shell pair data             ... done (   0.001 sec)
 Storage of shell pair data              ... done (   0.001 sec)
 Shell pair data done in (   0.003 sec)
 Computing two index integrals           ... done
 Cholesky decomposition of the V-matrix  ... done


Timings:
 Total evaluation time                   ...   0.281 sec (  0.005 min)
 One electron matrix time                ...   0.075 sec (  0.001 min) = 26.6%
 Schwartz matrix evaluation time         ...   0.174 sec (  0.003 min) = 62.1%
 Two index repulsion integral time       ...   0.006 sec (  0.000 min) =  2.0%
 Cholesky decomposition of V             ...   0.005 sec (  0.000 min) =  1.7%
 Three index repulsion integral time     ...   0.000 sec (  0.000 min) =  0.0%



           ************************************************************
           *        Program running with 24 parallel MPI-processes    *
           *              working on a common directory               *
           ************************************************************
-------------------------------------------------------------------------------
                                 ORCA SCF
-------------------------------------------------------------------------------

------------
SCF SETTINGS
------------
Hamiltonian:
 Density Functional     Method          .... DFT(GTOs)
 Exchange Functional    Exchange        .... B88
   X-Alpha parameter    XAlpha          ....  0.666667
   Becke's b parameter  XBeta           ....  0.004200
 Correlation Functional Correlation     .... LYP
 LDA part of GGA corr.  LDAOpt          .... VWN-3
 Gradients option       PostSCFGGA      .... off
 Hybrid DFT is turned on
   Fraction HF Exchange ScalHFX         ....  0.530000
   Scaling of DF-GGA-X  ScalDFX         ....  0.470000
   Scaling of DF-GGA-C  ScalDFC         ....  0.730000
   Scaling of DF-LDA-C  ScalLDAC        ....  0.730000
   Perturbative correction              ....  0.270000
   Density functional embedding theory  .... OFF
 RI-approximation to the Coulomb term is turned on
   Number of auxiliary basis functions  .... 558
   RI-JK (J+K treated both via RI)      .... on


General Settings:
 Integral files         IntName         .... MOR02_bz
 Hartree-Fock type      HFTyp           .... RHF
 Total Charge           Charge          ....    0
 Multiplicity           Mult            ....    1
 Number of Electrons    NEL             ....   42
 Basis Dimension        Dim             ....  324
 Nuclear Repulsion      ENuc            ....    203.2982348504 Eh

Convergence Acceleration:
 DIIS                   CNVDIIS         .... on
   Start iteration      DIISMaxIt       ....    12
   Startup error        DIISStart       ....  0.200000
   # of expansion vecs  DIISMaxEq       ....     5
   Bias factor          DIISBfac        ....   1.050
   Max. coefficient     DIISMaxC        ....  10.000
 Newton-Raphson         CNVNR           .... off
 SOSCF                  CNVSOSCF        .... on
   Start iteration      SOSCFMaxIt      ....   150
   Startup grad/error   SOSCFStart      ....  0.003300
 Level Shifting         CNVShift        .... on
   Level shift para.    LevelShift      ....    0.2500
   Turn off err/grad.   ShiftErr        ....    0.0010
 Zerner damping         CNVZerner       .... off
 Static damping         CNVDamp         .... on
   Fraction old density DampFac         ....    0.7000
   Max. Damping (<1)    DampMax         ....    0.9800
   Min. Damping (>=0)   DampMin         ....    0.0000
   Turn off err/grad.   DampErr         ....    0.1000
 Fernandez-Rico         CNVRico         .... off

SCF Procedure:
 Maximum # iterations   MaxIter         ....   125
 SCF integral mode      SCFMode         .... Direct
   Integral package                     .... LIBINT
 Reset frequency        DirectResetFreq ....    20
 Integral Threshold     Thresh          ....  1.000e-10 Eh
 Primitive CutOff       TCut            ....  1.000e-11 Eh

Convergence Tolerance:
 Convergence Check Mode ConvCheckMode   .... Total+1el-Energy
 Convergence forced     ConvForced      .... 0
 Energy Change          TolE            ....  1.000e-06 Eh
 1-El. energy change                    ....  1.000e-03 Eh
 Orbital Gradient       TolG            ....  5.000e-05
 Orbital Rotation angle TolX            ....  5.000e-05
 DIIS Error             TolErr          ....  1.000e-06


Diagonalization of the overlap matrix:
Smallest eigenvalue                        ... 6.317e-07
Time for diagonalization                   ...    0.015 sec
Threshold for overlap eigenvalues          ... 1.000e-08
Number of eigenvalues below threshold      ... 0
Time for construction of square roots      ...    0.013 sec
Total time needed                          ...    0.029 sec

-------------------
DFT GRID GENERATION
-------------------

General Integration Accuracy     IntAcc      ...  4.670
Radial Grid Type                 RadialGrid  ... Gauss-Chebyshev
Angular Grid (max. acc.)         AngularGrid ... Lebedev-302
Angular grid pruning method      GridPruning ... 3 (G Style)
Weight generation scheme         WeightScheme... Becke
Basis function cutoff            BFCut       ...    1.0000e-10
Integration weight cutoff        WCut        ...    1.0000e-14
Grids for H and He will be reduced by one unit

# of grid points (after initial pruning)     ...  57636 (   0.0 sec)
# of grid points (after weights+screening)   ...  53399 (   0.0 sec)
nearest neighbour list constructed           ...    0.0 sec
Grid point re-assignment to atoms done       ...    0.0 sec
Grid point division into batches done        ...    0.2 sec
Reduced shell lists constructed in    0.3 sec

Total number of grid points                  ...    53399
Total number of batches                      ...      838
Average number of points per batch           ...       63
Average number of grid points per atom       ...     4450
Average number of shells per batch           ...    95.08 (79.24%)
Average number of basis functions per batch  ...   266.97 (82.40%)
Average number of large shells per batch     ...    82.03 (86.27%)
Average number of large basis fcns per batch ...   228.47 (85.58%)
Average number of aux-shells per batch       ...    95.08 (51.12%)
Average number of aux functions per batch    ...   266.97 (47.84%)
Maximum spatial batch extension              ...   3.14,  3.03, 16.53 au
Average spatial batch extension              ...   0.06,  0.07,  0.10 au

Time for grid setup =    0.330 sec

------------------------------
INITIAL GUESS: MODEL POTENTIAL
------------------------------
Loading Hartree-Fock densities                     ... done
Calculating cut-offs                               ... done
Setting up the integral package                    ... done
Initializing the effective Hamiltonian             ... done
Starting the Coulomb interaction                   ... done (   0.0 sec)
Reading the grid                                   ... done
Mapping shells                                     ... done
Starting the XC term evaluation                    ... done (   0.1 sec)
  promolecular density results
     # of electrons  =     41.996931039
     EX              =    -32.604339392
     EC              =     -0.445637255
     EX+EC           =    -33.049976648
Transforming the Hamiltonian                       ... done (   0.0 sec)
Diagonalizing the Hamiltonian                      ... done (   0.0 sec)
Back transforming the eigenvectors                 ... done (   0.0 sec)
Now organizing SCF variables                       ... done
                      ------------------
                      INITIAL GUESS DONE (   0.5 sec)
                      ------------------
--------------
SCF ITERATIONS
--------------
ITER       Energy         Delta-E        Max-DP      RMS-DP      [F,P]     Damp
  0   -231.6291001622   0.000000000000 0.13428021  0.00213807  0.1548707 0.7000
  1   -231.5769955755   0.052104586694 0.10866778  0.00184279  0.1267130 0.7000
                               ***Turning on DIIS***
  2   -231.6224857594  -0.045490183953 0.23311644  0.00405248  0.0659846 0.0000
  3   -231.7683529432  -0.145867183781 0.04611796  0.00109464  0.0809620 0.0000
  4   -231.8056868795  -0.037333936335 0.01591450  0.00045258  0.0285993 0.0000
  5   -231.8100159243  -0.004329044719 0.00661750  0.00017552  0.0114661 0.0000
  6   -231.8107605389  -0.000744614596 0.00147800  0.00006072  0.0036444 0.0000
                      *** Initiating the SOSCF procedure ***
                           *** Shutting down DIIS ***
                      *** Re-Reading the Fockian *** 
                      *** Removing any level shift *** 
ITER      Energy       Delta-E        Grad      Rot      Max-DP    RMS-DP
  7   -231.81084335  -0.0000828120  0.000315  0.000315  0.003300  0.000060
  8   -231.81085135  -0.0000080015  0.000029  0.000041  0.003597  0.000054
  9   -231.81085138  -0.0000000272  0.000016  0.000019  0.005615  0.000096
                 **** Energy Check signals convergence ****
              ***Rediagonalizing the Fockian in SOSCF/NRSCF***

               *****************************************************
               *                     SUCCESS                       *
               *           SCF CONVERGED AFTER  10 CYCLES          *
               *****************************************************


----------------
TOTAL SCF ENERGY
----------------

Total Energy       :         -231.81085139 Eh           -6307.89395 eV

Components:
Nuclear Repulsion  :          203.29823485 Eh            5532.02621 eV
Electronic Energy  :         -435.10908624 Eh          -11839.92017 eV
One Electron Energy:         -713.64376910 Eh          -19419.23421 eV
Two Electron Energy:          278.53468286 Eh            7579.31405 eV

Virial components:
Potential Energy   :         -462.66698055 Eh          -12589.80859 eV
Kinetic Energy     :          230.85612916 Eh            6281.91464 eV
Virial Ratio       :            2.00413557


DFT components:
N(Alpha)           :       20.999991881780 electrons
N(Beta)            :       20.999991881780 electrons
N(Total)           :       41.999983763560 electrons
E(X)               :      -15.649608115917 Eh       
E(C)               :       -1.013187187513 Eh       
E(XC)              :      -16.662795303430 Eh       
DFET-embed. en.    :        0.000000000000 Eh       

---------------
SCF CONVERGENCE
---------------

  Last Energy change         ...   -8.3830e-09  Tolerance :   1.0000e-06
  Last MAX-Density change    ...    1.8845e-02  Tolerance :   1.0000e-05
  Last RMS-Density change    ...    3.4857e-04  Tolerance :   1.0000e-06
  Last Orbital Gradient      ...    3.0087e-05  Tolerance :   5.0000e-05
  Last Orbital Rotation      ...    1.9834e-05  Tolerance :   5.0000e-05

             **** THE GBW FILE WAS UPDATED (MOR02_bz.gbw) ****
             **** DENSITY FILE WAS UPDATED (MOR02_bz.scfp) ****
             **** ENERGY FILE WAS UPDATED (MOR02_bz.en.tmp) ****
             **** THE GBW FILE WAS UPDATED (MOR02_bz.gbw) ****
             **** DENSITY FILE WAS UPDATED (MOR02_bz.scfp) ****
----------------
ORBITAL ENERGIES
----------------

  NO   OCC          E(Eh)            E(eV) 
   0   2.0000     -10.621815      -289.0343 
   1   2.0000     -10.621422      -289.0236 
   2   2.0000     -10.621422      -289.0236 
   3   2.0000     -10.620569      -289.0004 
   4   2.0000     -10.620569      -289.0004 
   5   2.0000     -10.620156      -288.9891 
   6   2.0000      -0.978120       -26.6160 
   7   2.0000      -0.858781       -23.3686 
   8   2.0000      -0.858779       -23.3686 
   9   2.0000      -0.696147       -18.9431 
  10   2.0000      -0.696145       -18.9431 
  11   2.0000      -0.602635       -16.3985 
  12   2.0000      -0.538436       -14.6516 
  13   2.0000      -0.520789       -14.1714 
  14   2.0000      -0.492593       -13.4041 
  15   2.0000      -0.492590       -13.4041 
  16   2.0000      -0.426890       -11.6163 
  17   2.0000      -0.408999       -11.1294 
  18   2.0000      -0.408995       -11.1293 
  19   2.0000      -0.292357        -7.9554 
  20   2.0000      -0.292356        -7.9554 
  21   0.0000       0.036079         0.9817 
  22   0.0000       0.038961         1.0602 
  23   0.0000       0.038967         1.0603 
  24   0.0000       0.054222         1.4755 
  25   0.0000       0.054246         1.4761 
  26   0.0000       0.076265         2.0753 
  27   0.0000       0.076286         2.0758 
  28   0.0000       0.104431         2.8417 
  29   0.0000       0.109494         2.9795 
  30   0.0000       0.150092         4.0842 
  31   0.0000       0.165094         4.4924 
  32   0.0000       0.166767         4.5380 
  33   0.0000       0.166840         4.5399 
  34   0.0000       0.167086         4.5466 
  35   0.0000       0.167125         4.5477 
  36   0.0000       0.200382         5.4527 
  37   0.0000       0.204151         5.5552 
  38   0.0000       0.204172         5.5558 
  39   0.0000       0.234603         6.3839 
  40   0.0000       0.234664         6.3855 
  41   0.0000       0.237798         6.4708 
  42   0.0000       0.249088         6.7780 
  43   0.0000       0.249108         6.7786 
  44   0.0000       0.257639         7.0107 
  45   0.0000       0.264275         7.1913 
  46   0.0000       0.264339         7.1930 
  47   0.0000       0.287723         7.8293 
  48   0.0000       0.287724         7.8294 
  49   0.0000       0.294448         8.0123 
  50   0.0000       0.294487         8.0134 
  51   0.0000       0.308669         8.3993 
  52   0.0000       0.310425         8.4471 
  53   0.0000       0.328150         8.9294 
  54   0.0000       0.339827         9.2472 
  55   0.0000       0.346695         9.4341 
  56   0.0000       0.356936         9.7127 
  57   0.0000       0.356972         9.7137 
  58   0.0000       0.381643        10.3850 
  59   0.0000       0.381746        10.3878 
  60   0.0000       0.383315        10.4305 
  61   0.0000       0.383351        10.4315 
  62   0.0000       0.386689        10.5224 
  63   0.0000       0.397148        10.8069 
  64   0.0000       0.407286        11.0828 
  65   0.0000       0.407318        11.0837 
  66   0.0000       0.415231        11.2990 
  67   0.0000       0.415247        11.2994 
  68   0.0000       0.423760        11.5311 
  69   0.0000       0.430919        11.7259 
  70   0.0000       0.430988        11.7278 
  71   0.0000       0.443142        12.0585 
  72   0.0000       0.471026        12.8173 
  73   0.0000       0.481461        13.1012 
  74   0.0000       0.482836        13.1386 
  75   0.0000       0.483130        13.1466 
  76   0.0000       0.516958        14.0671 
  77   0.0000       0.517374        14.0785 
  78   0.0000       0.522792        14.2259 
  79   0.0000       0.522820        14.2267 
  80   0.0000       0.522917        14.2293 
  81   0.0000       0.522976        14.2309 
  82   0.0000       0.558116        15.1871 
  83   0.0000       0.558331        15.1930 
  84   0.0000       0.581213        15.8156 
  85   0.0000       0.591110        16.0849 
  86   0.0000       0.591213        16.0877 
  87   0.0000       0.592369        16.1192 
  88   0.0000       0.612594        16.6695 
  89   0.0000       0.612750        16.6738 
  90   0.0000       0.616939        16.7878 
  91   0.0000       0.624829        17.0025 
  92   0.0000       0.650245        17.6941 
  93   0.0000       0.693251        18.8643 
  94   0.0000       0.693373        18.8676 
  95   0.0000       0.712389        19.3851 
  96   0.0000       0.719523        19.5792 
  97   0.0000       0.724945        19.7268 
  98   0.0000       0.731520        19.9057 
  99   0.0000       0.731622        19.9084 
 100   0.0000       0.732087        19.9211 
 101   0.0000       0.732167        19.9233 
 102   0.0000       0.758677        20.6446 
 103   0.0000       0.758725        20.6460 
 104   0.0000       0.768521        20.9125 
 105   0.0000       0.785685        21.3796 
 106   0.0000       0.787955        21.4413 
 107   0.0000       0.788199        21.4480 
 108   0.0000       0.810525        22.0555 
 109   0.0000       0.810706        22.0604 
 110   0.0000       0.815773        22.1983 
 111   0.0000       0.820520        22.3275 
 112   0.0000       0.826094        22.4792 
 113   0.0000       0.826248        22.4833 
 114   0.0000       0.856864        23.3164 
 115   0.0000       0.876929        23.8624 
 116   0.0000       0.877154        23.8686 
 117   0.0000       0.942441        25.6451 
 118   0.0000       0.962151        26.1815 
 119   0.0000       0.967917        26.3384 
 120   0.0000       0.967940        26.3390 
 121   0.0000       0.985387        26.8137 
 122   0.0000       0.985443        26.8153 
 123   0.0000       1.009374        27.4665 
 124   0.0000       1.016305        27.6551 
 125   0.0000       1.038097        28.2480 
 126   0.0000       1.038465        28.2581 
 127   0.0000       1.053520        28.6677 
 128   0.0000       1.069322        29.0977 
 129   0.0000       1.129515        30.7357 
 130   0.0000       1.129553        30.7367 
 131   0.0000       1.173607        31.9355 
 132   0.0000       1.211519        32.9671 
 133   0.0000       1.259427        34.2707 
 134   0.0000       1.259434        34.2709 
 135   0.0000       1.279497        34.8169 
 136   0.0000       1.279541        34.8181 
 137   0.0000       1.313105        35.7314 
 138   0.0000       1.313301        35.7367 
 139   0.0000       1.326930        36.1076 
 140   0.0000       1.327085        36.1118 
 141   0.0000       1.383863        37.6568 
 142   0.0000       1.383875        37.6572 
 143   0.0000       1.397694        38.0332 
 144   0.0000       1.443172        39.2707 
 145   0.0000       1.492457        40.6118 
 146   0.0000       1.492538        40.6140 
 147   0.0000       1.524583        41.4860 
 148   0.0000       1.524897        41.4946 
 149   0.0000       1.538347        41.8605 
 150   0.0000       1.538363        41.8610 
 151   0.0000       1.585081        43.1322 
 152   0.0000       1.604106        43.6500 
 153   0.0000       1.604165        43.6516 
 154   0.0000       1.618470        44.0408 
 155   0.0000       1.665855        45.3302 
 156   0.0000       1.665949        45.3328 
 157   0.0000       1.701618        46.3034 
 158   0.0000       1.747898        47.5627 
 159   0.0000       1.750586        47.6359 
 160   0.0000       1.816581        49.4317 
 161   0.0000       1.816698        49.4349 
 162   0.0000       1.833888        49.9026 
 163   0.0000       1.858718        50.5783 
 164   0.0000       1.858746        50.5790 
 165   0.0000       1.874958        51.0202 
 166   0.0000       1.875019        51.0219 
 167   0.0000       1.931085        52.5475 
 168   0.0000       1.931123        52.5485 
 169   0.0000       1.970522        53.6206 
 170   0.0000       1.988925        54.1214 
 171   0.0000       1.988940        54.1218 
 172   0.0000       2.021078        54.9963 
 173   0.0000       2.021132        54.9978 
 174   0.0000       2.053834        55.8877 
 175   0.0000       2.084795        56.7302 
 176   0.0000       2.196755        59.7767 
 177   0.0000       2.196761        59.7769 
 178   0.0000       2.232692        60.7546 
 179   0.0000       2.232749        60.7562 
 180   0.0000       2.234701        60.8093 
 181   0.0000       2.273189        61.8566 
 182   0.0000       2.341230        63.7081 
 183   0.0000       2.475593        67.3643 
 184   0.0000       2.502881        68.1068 
 185   0.0000       2.502914        68.1077 
 186   0.0000       2.503408        68.1212 
 187   0.0000       2.524869        68.7052 
 188   0.0000       2.524890        68.7058 
 189   0.0000       2.621904        71.3456 
 190   0.0000       2.621933        71.3464 
 191   0.0000       2.675484        72.8036 
 192   0.0000       2.765723        75.2591 
 193   0.0000       2.798379        76.1478 
 194   0.0000       2.826843        76.9223 
 195   0.0000       2.826857        76.9227 
 196   0.0000       2.859225        77.8035 
 197   0.0000       2.869123        78.0728 
 198   0.0000       2.869125        78.0729 
 199   0.0000       2.932690        79.8025 
 200   0.0000       2.932698        79.8028 
 201   0.0000       2.992007        81.4166 
 202   0.0000       2.992039        81.4175 
 203   0.0000       3.022869        82.2565 
 204   0.0000       3.060546        83.2817 
 205   0.0000       3.060564        83.2822 
 206   0.0000       3.161541        86.0299 
 207   0.0000       3.161561        86.0304 
 208   0.0000       3.165868        86.1476 
 209   0.0000       3.166204        86.1568 
 210   0.0000       3.192170        86.8634 
 211   0.0000       3.241652        88.2098 
 212   0.0000       3.241661        88.2101 
 213   0.0000       3.262265        88.7707 
 214   0.0000       3.262351        88.7731 
 215   0.0000       3.287243        89.4504 
 216   0.0000       3.293892        89.6314 
 217   0.0000       3.293929        89.6324 
 218   0.0000       3.304155        89.9106 
 219   0.0000       3.304168        89.9110 
 220   0.0000       3.313503        90.1650 
 221   0.0000       3.375168        91.8430 
 222   0.0000       3.375194        91.8437 
 223   0.0000       3.456502        94.0562 
 224   0.0000       3.456513        94.0565 
 225   0.0000       3.505809        95.3979 
 226   0.0000       3.510767        95.5328 
 227   0.0000       3.512890        95.5906 
 228   0.0000       3.512970        95.5928 
 229   0.0000       3.517420        95.7139 
 230   0.0000       3.538988        96.3007 
 231   0.0000       3.539032        96.3019 
 232   0.0000       3.563263        96.9613 
 233   0.0000       3.563271        96.9615 
 234   0.0000       3.586648        97.5976 
 235   0.0000       3.601364        97.9981 
 236   0.0000       3.636796        98.9622 
 237   0.0000       3.636867        98.9642 
 238   0.0000       3.664419        99.7139 
 239   0.0000       3.664441        99.7145 
 240   0.0000       3.749411       102.0266 
 241   0.0000       3.771775       102.6352 
 242   0.0000       3.773960       102.6947 
 243   0.0000       3.812748       103.7502 
 244   0.0000       3.812759       103.7504 
 245   0.0000       3.833407       104.3123 
 246   0.0000       3.893288       105.9418 
 247   0.0000       3.901975       106.1781 
 248   0.0000       3.901983       106.1784 
 249   0.0000       3.906633       106.3049 
 250   0.0000       3.910345       106.4059 
 251   0.0000       3.966553       107.9354 
 252   0.0000       3.982798       108.3775 
 253   0.0000       3.982811       108.3778 
 254   0.0000       3.998919       108.8161 
 255   0.0000       3.998962       108.8173 
 256   0.0000       4.019782       109.3838 
 257   0.0000       4.076194       110.9189 
 258   0.0000       4.076198       110.9190 
 259   0.0000       4.149320       112.9087 
 260   0.0000       4.149369       112.9101 
 261   0.0000       4.153503       113.0226 
 262   0.0000       4.153508       113.0227 
 263   0.0000       4.274564       116.3168 
 264   0.0000       4.274570       116.3170 
 265   0.0000       4.322168       117.6122 
 266   0.0000       4.347884       118.3119 
 267   0.0000       4.363843       118.7462 
 268   0.0000       4.380006       119.1860 
 269   0.0000       4.385130       119.3254 
 270   0.0000       4.385151       119.3260 
 271   0.0000       4.407725       119.9403 
 272   0.0000       4.407756       119.9411 
 273   0.0000       4.424285       120.3909 
 274   0.0000       4.424297       120.3912 
 275   0.0000       4.467433       121.5650 
 276   0.0000       4.467438       121.5652 
 277   0.0000       4.508508       122.6828 
 278   0.0000       4.508537       122.6835 
 279   0.0000       4.542646       123.6117 
 280   0.0000       4.644086       126.3720 
 281   0.0000       4.644100       126.3724 
 282   0.0000       4.741019       129.0097 
 283   0.0000       4.757104       129.4474 
 284   0.0000       4.844509       131.8258 
 285   0.0000       4.844531       131.8264 
 286   0.0000       4.886456       132.9672 
 287   0.0000       4.898918       133.3063 
 288   0.0000       4.898934       133.3068 
 289   0.0000       4.922446       133.9466 
 290   0.0000       4.922482       133.9476 
 291   0.0000       4.943527       134.5202 
 292   0.0000       4.943559       134.5211 
 293   0.0000       4.973751       135.3427 
 294   0.0000       5.022822       136.6779 
 295   0.0000       5.030625       136.8903 
 296   0.0000       5.147078       140.0591 
 297   0.0000       5.147098       140.0596 
 298   0.0000       5.186112       141.1213 
 299   0.0000       5.356047       145.7454 
 300   0.0000       5.356049       145.7455 
 301   0.0000       5.392480       146.7368 
 302   0.0000       5.392506       146.7375 
 303   0.0000       5.502557       149.7322 
 304   0.0000       5.522310       150.2697 
 305   0.0000       5.522313       150.2698 
 306   0.0000       5.586916       152.0277 
 307   0.0000       5.680598       154.5769 
 308   0.0000       5.773312       157.0998 
 309   0.0000       5.773350       157.1008 
 310   0.0000       5.856022       159.3505 
 311   0.0000       5.934173       161.4770 
 312   0.0000       5.934197       161.4777 
 313   0.0000       6.026039       163.9769 
 314   0.0000       6.320004       171.9761 
 315   0.0000       6.320022       171.9765 
 316   0.0000       6.449218       175.4921 
 317   0.0000       7.026411       191.1984 
 318   0.0000      23.423509       637.3861 
 319   0.0000      23.655983       643.7120 
 320   0.0000      23.655999       643.7125 
 321   0.0000      23.783225       647.1745 
 322   0.0000      23.783228       647.1745 
 323   0.0000      24.614998       669.8081 

                    ********************************
                    * MULLIKEN POPULATION ANALYSIS *
                    ********************************

-----------------------
MULLIKEN ATOMIC CHARGES
-----------------------
   0 C :   -0.001565
   1 C :    0.000132
   2 C :   -0.001336
   3 C :   -0.000183
   4 C :   -0.000604
   5 C :    0.000295
   6 H :    0.000407
   7 H :    0.000807
   8 H :    0.000476
   9 H :    0.000466
  10 H :    0.000471
  11 H :    0.000633
Sum of atomic charges:    0.0000000

--------------------------------
MULLIKEN REDUCED ORBITAL CHARGES
--------------------------------
  0 C s       :     3.318235  s :     3.318235
      pz      :     0.936622  p :     2.625969
      px      :     0.880002
      py      :     0.809345
      dz2     :    -0.000239  d :     0.049408
      dxz     :     0.005354
      dyz     :     0.035308
      dx2y2   :     0.007275
      dxy     :     0.001709
      f0      :     0.001417  f :     0.007953
      f+1     :     0.000735
      f-1     :     0.000621
      f+2     :     0.000332
      f-2     :     0.001097
      f+3     :     0.001458
      f-3     :     0.002294
  1 C s       :     3.317033  s :     3.317033
      pz      :     0.936330  p :     2.625393
      px      :     0.830876
      py      :     0.858187
      dz2     :    -0.000267  d :     0.049487
      dxz     :     0.025911
      dyz     :     0.014703
      dx2y2   :     0.002517
      dxy     :     0.006623
      f0      :     0.001417  f :     0.007954
      f+1     :     0.000657
      f-1     :     0.000700
      f+2     :     0.001007
      f-2     :     0.000421
      f+3     :     0.001458
      f-3     :     0.002294
  2 C s       :     3.318524  s :     3.318524
      pz      :     0.936198  p :     2.625478
      px      :     0.822212
      py      :     0.867068
      dz2     :    -0.000270  d :     0.049382
      dxz     :     0.029758
      dyz     :     0.010889
      dx2y2   :     0.003771
      dxy     :     0.005234
      f0      :     0.001417  f :     0.007952
      f+1     :     0.000642
      f-1     :     0.000714
      f+2     :     0.000804
      f-2     :     0.000625
      f+3     :     0.001458
      f-3     :     0.002293
  3 C s       :     3.317392  s :     3.317392
      pz      :     0.936622  p :     2.625474
      px      :     0.879471
      py      :     0.809382
      dz2     :    -0.000269  d :     0.049363
      dxz     :     0.005354
      dyz     :     0.035308
      dx2y2   :     0.007254
      dxy     :     0.001716
      f0      :     0.001417  f :     0.007953
      f+1     :     0.000735
      f-1     :     0.000621
      f+2     :     0.000332
      f-2     :     0.001097
      f+3     :     0.001458
      f-3     :     0.002294
  4 C s       :     3.318236  s :     3.318236
      pz      :     0.936330  p :     2.624989
      px      :     0.830689
      py      :     0.857970
      dz2     :    -0.000261  d :     0.049425
      dxz     :     0.025911
      dyz     :     0.014704
      dx2y2   :     0.002361
      dxy     :     0.006711
      f0      :     0.001417  f :     0.007954
      f+1     :     0.000657
      f-1     :     0.000700
      f+2     :     0.001007
      f-2     :     0.000421
      f+3     :     0.001458
      f-3     :     0.002294
  5 C s       :     3.317696  s :     3.317696
      pz      :     0.936198  p :     2.624856
      px      :     0.821722
      py      :     0.866936
      dz2     :    -0.000292  d :     0.049201
      dxz     :     0.029758
      dyz     :     0.010889
      dx2y2   :     0.003590
      dxy     :     0.005255
      f0      :     0.001417  f :     0.007952
      f+1     :     0.000642
      f-1     :     0.000714
      f+2     :     0.000804
      f-2     :     0.000625
      f+3     :     0.001458
      f-3     :     0.002293
  6 H s       :     0.976656  s :     0.976656
      pz      :     0.019567  p :     0.021067
      px      :    -0.004602
      py      :     0.006102
      dz2     :     0.000101  d :     0.001870
      dxz     :     0.000596
      dyz     :     0.000016
      dx2y2   :     0.000312
      dxy     :     0.000846
  7 H s       :     0.976401  s :     0.976401
      pz      :     0.019499  p :     0.020924
      px      :     0.002695
      py      :    -0.001271
      dz2     :     0.000100  d :     0.001869
      dxz     :     0.000198
      dyz     :     0.000413
      dx2y2   :     0.000783
      dxy     :     0.000374
  8 H s       :     0.976623  s :     0.976623
      pz      :     0.019492  p :     0.021031
      px      :     0.004118
      py      :    -0.002578
      dz2     :     0.000101  d :     0.001870
      dxz     :     0.000123
      dyz     :     0.000488
      dx2y2   :     0.000642
      dxy     :     0.000517
  9 H s       :     0.976626  s :     0.976626
      pz      :     0.019567  p :     0.021039
      px      :    -0.004640
      py      :     0.006112
      dz2     :     0.000101  d :     0.001870
      dxz     :     0.000596
      dyz     :     0.000016
      dx2y2   :     0.000312
      dxy     :     0.000846
 10 H s       :     0.976704  s :     0.976704
      pz      :     0.019499  p :     0.020957
      px      :     0.002715
      py      :    -0.001257
      dz2     :     0.000100  d :     0.001869
      dxz     :     0.000198
      dyz     :     0.000413
      dx2y2   :     0.000783
      dxy     :     0.000374
 11 H s       :     0.976524  s :     0.976524
      pz      :     0.019492  p :     0.020973
      px      :     0.004091
      py      :    -0.002609
      dz2     :     0.000101  d :     0.001870
      dxz     :     0.000123
      dyz     :     0.000488
      dx2y2   :     0.000642
      dxy     :     0.000516


                     *******************************
                     * LOEWDIN POPULATION ANALYSIS *
                     *******************************

----------------------
LOEWDIN ATOMIC CHARGES
----------------------
   0 C :    0.002958
   1 C :    0.002964
   2 C :    0.002967
   3 C :    0.002959
   4 C :    0.002963
   5 C :    0.002968
   6 H :   -0.002962
   7 H :   -0.002962
   8 H :   -0.002965
   9 H :   -0.002963
  10 H :   -0.002962
  11 H :   -0.002965

-------------------------------
LOEWDIN REDUCED ORBITAL CHARGES
-------------------------------
  0 C s       :     2.651327  s :     2.651327
      pz      :     0.724942  p :     2.603454
      px      :     0.921357
      py      :     0.957155
      dz2     :     0.060516  d :     0.699031
      dxz     :     0.036408
      dyz     :     0.141977
      dx2y2   :     0.280297
      dxy     :     0.179833
      f0      :     0.002463  f :     0.043230
      f+1     :     0.003323
      f-1     :     0.003896
      f+2     :     0.002120
      f-2     :     0.007055
      f+3     :     0.009522
      f-3     :     0.014851
  1 C s       :     2.651327  s :     2.651327
      pz      :     0.724932  p :     2.603450
      px      :     0.945880
      py      :     0.932638
      dz2     :     0.060515  d :     0.699031
      dxz     :     0.108726
      dyz     :     0.069663
      dx2y2   :     0.191585
      dxy     :     0.268542
      f0      :     0.002463  f :     0.043229
      f+1     :     0.003715
      f-1     :     0.003503
      f+2     :     0.006477
      f-2     :     0.002697
      f+3     :     0.009522
      f-3     :     0.014851
  2 C s       :     2.651327  s :     2.651327
      pz      :     0.724933  p :     2.603446
      px      :     0.950532
      py      :     0.927981
      dz2     :     0.060515  d :     0.699030
      dxz     :     0.122446
      dyz     :     0.055938
      dx2y2   :     0.218309
      dxy     :     0.241822
      f0      :     0.002463  f :     0.043230
      f+1     :     0.003790
      f-1     :     0.003429
      f+2     :     0.005165
      f-2     :     0.004010
      f+3     :     0.009523
      f-3     :     0.014851
  3 C s       :     2.651326  s :     2.651326
      pz      :     0.724942  p :     2.603454
      px      :     0.921357
      py      :     0.957155
      dz2     :     0.060516  d :     0.699031
      dxz     :     0.036408
      dyz     :     0.141977
      dx2y2   :     0.280296
      dxy     :     0.179833
      f0      :     0.002463  f :     0.043230
      f+1     :     0.003323
      f-1     :     0.003896
      f+2     :     0.002120
      f-2     :     0.007055
      f+3     :     0.009523
      f-3     :     0.014852
  4 C s       :     2.651327  s :     2.651327
      pz      :     0.724932  p :     2.603450
      px      :     0.945879
      py      :     0.932639
      dz2     :     0.060515  d :     0.699031
      dxz     :     0.108726
      dyz     :     0.069663
      dx2y2   :     0.191585
      dxy     :     0.268541
      f0      :     0.002463  f :     0.043229
      f+1     :     0.003715
      f-1     :     0.003503
      f+2     :     0.006477
      f-2     :     0.002697
      f+3     :     0.009522
      f-3     :     0.014851
  5 C s       :     2.651327  s :     2.651327
      pz      :     0.724933  p :     2.603445
      px      :     0.950530
      py      :     0.927982
      dz2     :     0.060515  d :     0.699030
      dxz     :     0.122446
      dyz     :     0.055938
      dx2y2   :     0.218309
      dxy     :     0.241821
      f0      :     0.002463  f :     0.043230
      f+1     :     0.003790
      f-1     :     0.003429
      f+2     :     0.005165
      f-2     :     0.004010
      f+3     :     0.009523
      f-3     :     0.014851
  6 H s       :     0.711101  s :     0.711101
      pz      :     0.077068  p :     0.263634
      px      :     0.122222
      py      :     0.064344
      dz2     :     0.002690  d :     0.028228
      dxz     :     0.007903
      dyz     :     0.000069
      dx2y2   :     0.008563
      dxy     :     0.009002
  7 H s       :     0.711098  s :     0.711098
      pz      :     0.077067  p :     0.263635
      px      :     0.082577
      py      :     0.103991
      dz2     :     0.002690  d :     0.028229
      dxz     :     0.002537
      dyz     :     0.005436
      dx2y2   :     0.008951
      dxy     :     0.008615
  8 H s       :     0.711100  s :     0.711100
      pz      :     0.077069  p :     0.263637
      px      :     0.075053
      py      :     0.111515
      dz2     :     0.002690  d :     0.028228
      dxz     :     0.001519
      dyz     :     0.006454
      dx2y2   :     0.008834
      dxy     :     0.008731
  9 H s       :     0.711101  s :     0.711101
      pz      :     0.077068  p :     0.263634
      px      :     0.122222
      py      :     0.064344
      dz2     :     0.002690  d :     0.028228
      dxz     :     0.007903
      dyz     :     0.000069
      dx2y2   :     0.008563
      dxy     :     0.009002
 10 H s       :     0.711099  s :     0.711099
      pz      :     0.077067  p :     0.263635
      px      :     0.082577
      py      :     0.103991
      dz2     :     0.002690  d :     0.028229
      dxz     :     0.002537
      dyz     :     0.005436
      dx2y2   :     0.008951
      dxy     :     0.008615
 11 H s       :     0.711100  s :     0.711100
      pz      :     0.077069  p :     0.263637
      px      :     0.075053
      py      :     0.111515
      dz2     :     0.002690  d :     0.028228
      dxz     :     0.001519
      dyz     :     0.006454
      dx2y2   :     0.008834
      dxy     :     0.008731


                      *****************************
                      * MAYER POPULATION ANALYSIS *
                      *****************************

  NA   - Mulliken gross atomic population
  ZA   - Total nuclear charge
  QA   - Mulliken gross atomic charge
  VA   - Mayer's total valence
  BVA  - Mayer's bonded valence
  FA   - Mayer's free valence

  ATOM       NA         ZA         QA         VA         BVA        FA
  0 C      6.0016     6.0000    -0.0016     3.3025     3.3025     0.0000
  1 C      5.9999     6.0000     0.0001     3.3002     3.3002     0.0000
  2 C      6.0013     6.0000    -0.0013     3.2995     3.2995    -0.0000
  3 C      6.0002     6.0000    -0.0002     3.3004     3.3004    -0.0000
  4 C      6.0006     6.0000    -0.0006     3.2999     3.2999     0.0000
  5 C      5.9997     6.0000     0.0003     3.2974     3.2974    -0.0000
  6 H      0.9996     1.0000     0.0004     0.9257     0.9257     0.0000
  7 H      0.9992     1.0000     0.0008     0.9254     0.9254     0.0000
  8 H      0.9995     1.0000     0.0005     0.9258     0.9258    -0.0000
  9 H      0.9995     1.0000     0.0005     0.9255     0.9255    -0.0000
 10 H      0.9995     1.0000     0.0005     0.9256     0.9256     0.0000
 11 H      0.9994     1.0000     0.0006     0.9255     0.9255    -0.0000

  Mayer bond orders larger than 0.100000
B(  0-C ,  1-C ) :   1.2276 B(  0-C ,  5-C ) :   1.2263 B(  0-C ,  6-H ) :   1.0885 
B(  1-C ,  2-C ) :   1.2259 B(  1-C ,  7-H ) :   1.0879 B(  2-C ,  3-C ) :   1.2257 
B(  2-C ,  8-H ) :   1.0885 B(  3-C ,  4-C ) :   1.2269 B(  3-C ,  9-H ) :   1.0886 
B(  4-C ,  5-C ) :   1.2248 B(  4-C , 10-H ) :   1.0886 B(  5-C , 11-H ) :   1.0883 


-------
TIMINGS
-------

Total SCF time: 0 days 0 hours 0 min 4 sec 

Total time                  ....       4.933 sec
Sum of individual times     ....       4.724 sec  ( 95.8%)

Fock matrix formation       ....       3.948 sec  ( 80.0%)
  XC integration            ....       0.859 sec  ( 21.8% of F)
    Basis function eval.    ....       0.155 sec  ( 18.0% of XC)
    Density eval.           ....       0.174 sec  ( 20.3% of XC)
    XC-Functional eval.     ....       0.020 sec  (  2.4% of XC)
    XC-Potential eval.      ....       0.332 sec  ( 38.7% of XC)
Diagonalization             ....       0.138 sec  (  2.8%)
Density matrix formation    ....       0.018 sec  (  0.4%)
Population analysis         ....       0.016 sec  (  0.3%)
Initial guess               ....       0.168 sec  (  3.4%)
Orbital Transformation      ....       0.000 sec  (  0.0%)
Orbital Orthonormalization  ....       0.000 sec  (  0.0%)
DIIS solution               ....       0.068 sec  (  1.4%)
SOSCF solution              ....       0.039 sec  (  0.8%)
Grid generation             ....       0.330 sec  (  6.7%)


           ************************************************************
           *        Program running with 24 parallel MPI-processes    *
           *              working on a common directory               *
           ************************************************************

------------------------------------------------------------------------------
                                ORCA  MP2 
------------------------------------------------------------------------------

Freezing NCore=12 chemical core electrons

-------------
RI-MP2 ENERGY
-------------
Dimension of the basis                    ...  324
Memory devoted to MP2                     ... 5000 MB   
Data format for buffers                   ... DOUBLE
Compression type for matrix containers    ... UNCOMPRESSED
Overall scaling of the MP2 energy         ...   2.700e-01
Calculating two index integrals           ... done (    0.006 sec)
Cholesky decomposition of V**-1           ... done (    0.035 sec)

-----------------
RI-TRANSFORMATION (AUX index driven)
-----------------

Dimension of the orbital-basis         ... 324
Dimension of the aux-basis             ... 786
Transformation of internal/external MOs...    6-  20 to   21- 323
Number Format for Storage              ... Double (8 Byte)
Integral mode                          ... Direct

First Phase: integral generation and transformation of MO indices
  Aux angular momentum 0               ... done (    0.010 sec)
  Aux angular momentum 1               ... done (    0.016 sec)
  Aux angular momentum 2               ... done (    0.021 sec)
  Aux angular momentum 3               ... done (    0.026 sec)
  Aux angular momentum 4               ... done (    0.015 sec)
Closing buffer VIA ( 0.03 GB; CompressionRatio= 1.00)
  Phase 1 completed in     0.166 sec
Second Phase: sorting and transformation of aux index

IA-Transformation
Memory available                       ... 4987 MB 
Max. # MO pairs treated in a batch     ... 1    
# of internal orbitals                 ... 15
# batches for internal orbitals        ... 1
Closing buffer IAV ( 0.00 GB; CompressionRatio= 1.00)
(ia|v) transformation done in     0.020 sec

  Phase 2 completed in     0.047 sec
RI-Integral transformation completed in     0.214 sec
Opening buffers                              ... done

Starting loop over batches of integrals:

Operator 0  - window                       ... (  6- 20)x( 21-323)
Operator 0  - Memory available             ...  5000 MB
Operator 0  - Memory needed per MO         ...   1.8 MB
Operator 0  - Number of orbitals per batch ... 1
Operator 0  - Number of batches            ... 1

OPERATOR  0   PASS   0:  MOs     6 ...    6 +    7 ...    7 +    8 ...    8 +    9 ...    9
                            +   10 ...   10 +   11 ...   11 +   12 ...   12 +   13 ...   13
                            +   14 ...   14 +   15 ...   15 +   16 ...   16 +   17 ...   17
                            +   18 ...   18 +   19 ...   19 +   20 ...   20
  Reading integrals       ... ok
Time spent in pair loops =     0.015 sec
Deleting buffer (Ka|jb)[aa] ...done

-----------------------------------------------
 RI-MP2 CORRELATION ENERGY:     -0.312771045 Eh
-----------------------------------------------


-------
TIMINGS
-------

Total time                :    0.338 sec
Integral trafo            :    0.220 sec ( 65.2%)
I/O of integrals          :    0.002 sec (  0.5%)
K(i,j) Operators          :    0.003 sec (  0.9%)
T(i,j) pair energies      :    0.001 sec (  0.2%)
V-calculation             :    0.006 sec (  1.6%)
V**(-1/2)                 :    0.035 sec ( 10.4%)
Gamma(ia|P)               :    0.000 sec (  0.0%)
Gamma-Trafo               :    0.000 sec (  0.0%)
D(virtual)                :    0.000 sec (  0.0%)
D(internal)               :    0.000 sec (  0.0%)
W(virtual)                :    0.000 sec (  0.0%)
W(internal)               :    0.000 sec (  0.0%)
L(virtual)                :    0.000 sec (  0.0%)
L(internal)               :    0.000 sec (  0.0%)
G(D)                      :    0.000 sec (  0.0%)
G(Z)                      :    0.000 sec (  0.0%)
Z-Vector Solution         :    0.000 sec (  0.0%)
Z-Vector Solution         :    0.000 sec (  0.0%)
3-Index Derivative 
+ Separable RIJ part      :    0.000 sec (  0.0%)
2-Index Derivative 
+ Separable RIJ part      :    0.000 sec (  0.0%)
Separable Gradient (X)    :    0.000 sec (  0.0%)


---------------------------------------
MP2 TOTAL ENERGY:     -232.123622433 Eh
---------------------------------------


-------------------------------------------------------------------------------
                          DFT DISPERSION CORRECTION                            
                                                                               
                              DFTD3 V3.1  Rev 1                                
                          USING Becke-Johnson damping                          
-------------------------------------------------------------------------------
The B2PLYP functional is recognized
Active option DFTDOPT                   ...         4   

molecular C6(AA) [au] = 1659.763720 


            DFT-D V3
 parameters
 s6 scaling factor         :     0.6400 
 a1 scaling factor         :     0.3065 
 s8 scaling factor         :     0.9147 
 a2 scaling factor         :     5.0570 
 ad hoc parameters k1-k3   :    16.0000     1.3333    -4.0000 

 Edisp/kcal,au: -5.407964515988  -0.008618139108 
 E6   /kcal   :  -3.004756702 
 E8   /kcal   :  -2.403207814 
 % E8         :  44.438305897 

-------------------------   ----------------
Dispersion correction           -0.008618139
-------------------------   ----------------


-------------------------   --------------------
FINAL SINGLE POINT ENERGY      -232.132240572382
-------------------------   --------------------


                            ***************************************
                            *     ORCA property calculations      *
                            ***************************************


  WARNING: The energy has been calculated at the MP2 level but the densities
           used in the property calculations are still SCF densities
           MP2 response densities have not been calculated 
           use %mp2 Density relaxed end
           or  %mp2 Density unrelaxed end

                                    ---------------------
                                    Active property flags
                                    ---------------------
   (+) Dipole Moment


------------------------------------------------------------------------------
                       ORCA ELECTRIC PROPERTIES CALCULATION
------------------------------------------------------------------------------

Dipole Moment Calculation                       ... on
Quadrupole Moment Calculation                   ... off
Polarizability Calculation                      ... off
GBWName                                         ... MOR02_bz.gbw
Electron density file                           ... MOR02_bz.scfp
The origin for moment calculation is the CENTER OF MASS  = ( 0.000000, -0.000000 -0.000003)

-------------
DIPOLE MOMENT
-------------
                                X             Y             Z
Electronic contribution:     -0.00000       0.00000      -0.00010
Nuclear contribution   :      0.00000      -0.00000       0.00014
                        -----------------------------------------
Total Dipole Moment    :     -0.00000      -0.00000       0.00004
                        -----------------------------------------
Magnitude (a.u.)       :      0.00004
Magnitude (Debye)      :      0.00011



--------------------
Rotational spectrum 
--------------------
 
Rotational constants in cm-1:     0.189759     0.189757     0.094879 
Rotational constants in MHz :  5688.823776  5688.770067  2844.398461 

 Dipole components along the rotational axes: 
x,y,z [a.u.] :    -0.000000     0.000000     0.000042 
x,y,z [Debye]:    -0.000000     0.000001     0.000107 

 

Timings for individual modules:

Sum of individual times         ...        6.731 sec (=   0.112 min)
GTO integral calculation        ...        0.656 sec (=   0.011 min)   9.8 %
SCF iterations                  ...        5.272 sec (=   0.088 min)  78.3 %
MP2 module                      ...        0.803 sec (=   0.013 min)  11.9 %
                             ****ORCA TERMINATED NORMALLY****
TOTAL RUN TIME: 0 days 0 hours 0 minutes 7 seconds 245 msec
