
                                 *****************
                                 * O   R   C   A *
                                 *****************

           --- An Ab Initio, DFT and Semiempirical electronic structure package ---

                  #######################################################
                  #                        -***-                        #
                  #          Department of theory and spectroscopy      #
                  #               Directorship: Frank Neese             #
                  #        Max Planck Institute fuer Kohlenforschung    #
                  #                Kaiser Wilhelm Platz 1               #
                  #                 D-45470 Muelheim/Ruhr               #
                  #                      Germany                        #
                  #                                                     #
                  #                  All rights reserved                #
                  #                        -***-                        #
                  #######################################################


                         Program Version 4.2.0 -  RELEASE  -


 With contributions from (in alphabetic order):
   Daniel Aravena         : Magnetic Suceptibility
   Michael Atanasov       : Ab Initio Ligand Field Theory (pilot matlab implementation)
   Alexander A. Auer      : GIAO ZORA, VPT2
   Ute Becker             : Parallelization
   Giovanni Bistoni       : ED, misc. LED, open-shell LED, HFLED
   Martin Brehm           : Molecular dynamics
   Dmytro Bykov           : SCF Hessian
   Vijay G. Chilkuri      : MRCI spin determinant printing, contributions to CSF-ICE
   Dipayan Datta          : RHF DLPNO-CCSD density
   Achintya Kumar Dutta   : EOM-CC, STEOM-CC
   Dmitry Ganyushin       : Spin-Orbit,Spin-Spin,Magnetic field MRCI
   Miquel Garcia          : C-PCM Hessian, Gaussian charge scheme
   Yang Guo               : DLPNO-NEVPT2, CIM, IAO-localization
   Andreas Hansen         : Spin unrestricted coupled pair/coupled cluster methods
   Benjamin Helmich-Paris : CASSCF linear response (MC-RPA)
   Lee Huntington         : MR-EOM, pCC
   Robert Izsak           : Overlap fitted RIJCOSX, COSX-SCS-MP3, EOM
   Christian Kollmar      : KDIIS, OOCD, Brueckner-CCSD(T), CCSD density
   Simone Kossmann        : Meta GGA functionals, TD-DFT gradient, OOMP2, MP2 Hessian
   Martin Krupicka        : AUTO-CI
   Lucas Lang             : DCDCAS
   Dagmar Lenk            : GEPOL surface, SMD
   Dimitrios Liakos       : Extrapolation schemes; Compound Job, initial MDCI parallelization
   Dimitrios Manganas     : Further ROCIS development; embedding schemes
   Dimitrios Pantazis     : SARC Basis sets
   Taras Petrenko         : DFT Hessian,TD-DFT gradient, ASA, ECA, R-Raman, ABS, FL, XAS/XES, NRVS
   Peter Pinski           : DLPNO-MP2, DLPNO-MP2 Gradient
   Christoph Reimann      : Effective Core Potentials
   Marius Retegan         : Local ZFS, SOC
   Christoph Riplinger    : Optimizer, TS searches, QM/MM, DLPNO-CCSD(T), (RO)-DLPNO pert. Triples
   Tobias Risthaus        : Range-separated hybrids, TD-DFT gradient, RPA, STAB
   Michael Roemelt        : Original ROCIS implementation
   Masaaki Saitow         : Open-shell DLPNO-CCSD energy and density
   Barbara Sandhoefer     : DKH picture change effects
   Avijit Sen             : IP-ROCIS
   Kantharuban Sivalingam : CASSCF convergence, NEVPT2, FIC-MRCI
   Bernardo de Souza      : ESD, SOC TD-DFT
   Georgi Stoychev        : AutoAux, RI-MP2 NMR
   Willem Van den Heuvel  : Paramagnetic NMR
   Boris Wezisla          : Elementary symmetry handling
   Frank Wennmohs         : Technical directorship


 We gratefully acknowledge several colleagues who have allowed us to
 interface, adapt or use parts of their codes:
   Stefan Grimme, W. Hujo, H. Kruse,             : VdW corrections, initial TS optimization,
                  C. Bannwarth                     DFT functionals, gCP, sTDA/sTD-DF
   Ed Valeev, F. Pavosevic, A. Kumar             : LibInt (2-el integral package), F12 methods
   Garnet Chan, S. Sharma, J. Yang, R. Olivares  : DMRG
   Ulf Ekstrom                                   : XCFun DFT Library
   Mihaly Kallay                                 : mrcc  (arbitrary order and MRCC methods)
   Andreas Klamt, Michael Diedenhofen            : otool_cosmo (COSMO solvation model)
   Jiri Pittner, Ondrej Demel                    : Mk-CCSD
   Frank Weinhold                                : gennbo (NPA and NBO analysis)
   Christopher J. Cramer and Donald G. Truhlar   : smd solvation model
   Lars Goerigk                                  : TD-DFT with DH, B97 family of functionals
   V. Asgeirsson, H. Jonsson                     : NEB implementation
   FAccTs GmbH                                   : IRC, NEB, NEB-TS, Multilevel, MM, QM/MM, CI optimization
   S Lehtola, MJT Oliveira, MAL Marques          : LibXC Library


 Your calculation uses the libint2 library for the computation of 2-el integrals
 For citations please refer to: http://libint.valeyev.net

 Your ORCA version has been built with support for libXC version: 4.2.3
 For citations please refer to: https://tddft.org/programs/libxc/

 This ORCA versions uses:
   CBLAS   interface :  Fast vector & matrix operations
   LAPACKE interface :  Fast linear algebra routines
   SCALAPACK package :  Parallel linear algebra routines


Your calculation utilizes the atom-pairwise dispersion correction
with the Becke-Johnson damping scheme (D3BJ)
Cite in your paper:
S.Grimme, S.Ehrlich, L.Goerigk, J Comput Chem, (2011), 32, 1456–1465 
S.Grimme, J.Antony, S.Ehrlich and H.Krieg, J.Chem.Phys., 132, (2010), 154104 
   

----- Orbital basis set information -----
Your calculation utilizes the basis: def2-TZVPPD
   F. Weigend and R. Ahlrichs, Phys. Chem. Chem. Phys. 7, 3297 (2005).
   D. Rappoport and F. Furche, J. Chem. Phys. 133 134105 (2010).

----- AuxC basis set information -----
Your calculation utilizes the auxiliary basis: def2-TZVPPD/C
   A. Hellweg, C. Hattig, S. Hofener and W. Klopper, Theor. Chem. Acc. 117, 587 (2007).

----- AuxJK basis set information -----
Your calculation utilizes the auxiliary basis: def2/JK
   H-Ba, Hf-Rn: F. Weigend, J. Comput. Chem. 29, 167 (2008).

cite the ECPs for W  [Def2-ECP] as follows:
Ce-Yb(ecp-28): M. Dolg, H. Stoll, H.Preuss, J. Chem. Phys., 1989, 90, 1730-1734.
Y-Cd(ecp-28), Hf-Hg(ecp-46): D. Andrae,U. Haeussermann, M. Dolg, H. Stoll, H. Preuss, Theor. Chim. Acta, 1990, 77, 123-141.
In-Sb(ecp-28), Tl-Bi(ecp-46): B. Metz, H. Stoll, M. Dolg, J. Chem. Phys., 2000, 113, 2563-2569.
Te-Xe(ecp-28), Po-Rn(ecp-46): K. A. Peterson, D. Figgen, E. Goll, H. Stoll, M. Dolg, J. Chem. Phys., 2003, 119, 11113-11123.
Rb(ecp-28), Cs(ecp-46): T. Leininger, A. Nicklass, W. Kuechle, H. Stoll, M. Dolg, A. Bergner, Chem. Phys. Lett., 1996, 255, 274-280.
Sr(ecp-28), Ba(ecp-46): M. Kaupp, P. V. Schleyer, H. Stoll and H. Preuss, J. Chem. Phys., 1991, 94, 1360-1366.
La(ecp-46): M. Dolg, H. Stoll, A. Savin, H. Preuss, Theor. Chim. Acta, 1989, 75, 173-194.
Lu(ecp-28): X. Cao, M. Dolg, J. Chem. Phys., 2001, 115, 7348-7355.

ECP parameters for W  [Def2-ECP] have been obtained from:
TURBOMOLE (7.0.2)

================================================================================
                                        WARNINGS
                       Please study these warnings very carefully!
================================================================================


WARNING: No MP2 level density has been requested!
         To caclulate MP2 level properties use
         %mp2 Density relaxed end
         or
         %mp2 Density unrelaxed end
         Otherwise for double-hybrid DFT only the energy is correct!

WARNING: The frozen-core approximation is turned on by default for 
         the MP2 part of double-hybrid DFT.

INFO   : the flag for use of LIBINT has been found!

================================================================================
                                       INPUT FILE
================================================================================
NAME = MOR09_ed07.in
|  1> #
|  2> # MOR09_ed07 ri-B2PLYP-D3BJ/Def2-TZVPPD
|  3> #
|  4> ! rijk ri-b2plyp d3bj def2-tzvppd def2/jk def2-tzvppd/c grid4 nofinalgrid
|  5> 
|  6> *xyz 0 1
|  7> W        0.102077    0.091078   -0.092267 
|  8> C        0.117393   -1.847063   -0.698289 
|  9> O        0.106421   -2.944423   -1.101491 
| 10> C        0.053830    0.623127   -1.953542 
| 11> O        0.062184    0.954188   -3.084324 
| 12> C       -0.079789    2.065684    0.368043 
| 13> O       -0.241835    3.206144    0.563164 
| 14> P       -2.374272   -0.093775    0.152024 
| 15> C       -2.924700   -0.636961    1.860300 
| 16> H       -4.020662   -0.654132    1.869520 
| 17> C       -3.301587    1.526034   -0.042070 
| 18> H       -2.720709    2.174283    0.626552 
| 19> C       -3.158465   -1.412689   -0.926528 
| 20> H       -2.602719   -2.298136   -0.589541 
| 21> C        3.533012   -1.160075   -0.926747 
| 22> P        2.541683   -0.047968    0.198665 
| 23> H        3.436930   -0.493420    2.480788 
| 24> H        3.117150   -2.146572   -0.686664 
| 25> C        3.597094    1.476716    0.423185 
| 26> H        4.630625    1.133957    0.560412 
| 27> C       -3.162167    2.103519   -1.458162 
| 28> H       -3.455722    3.159421   -1.453162 
| 29> H       -3.815975    1.580772   -2.162650 
| 30> H       -2.136423    2.033109   -1.825887 
| 31> C       -4.764402    1.570333    0.422322 
| 32> H       -5.415801    0.983387   -0.229568 
| 33> H       -5.116762    2.608723    0.390691 
| 34> H       -4.893747    1.210688    1.447022 
| 35> C       -4.655036   -1.682881   -0.716884 
| 36> H       -4.925909   -1.790522    0.337405 
| 37> H       -4.929224   -2.613829   -1.227923 
| 38> H       -5.265149   -0.883893   -1.147063 
| 39> C       -2.846467   -1.236186   -2.419424 
| 40> H       -3.119249   -2.151958   -2.956758 
| 41> H       -1.787229   -1.039228   -2.589757 
| 42> H       -3.419310   -0.412085   -2.852792 
| 43> C       -2.418211   -2.050160    2.179041 
| 44> H       -2.879973   -2.804800    1.536232 
| 45> H       -2.649558   -2.306479    3.219697 
| 46> H       -1.332968   -2.120913    2.045449 
| 47> C       -2.447309    0.375917    2.910548 
| 48> H       -1.357998    0.484909    2.881372 
| 49> H       -2.729985    0.039964    3.915237 
| 50> H       -2.881675    1.366975    2.750689 
| 51> C        5.039293   -1.175311   -0.637409 
| 52> H        5.257150   -1.324613    0.425881 
| 53> H        5.510398   -0.237807   -0.951034 
| 54> H        5.518847   -1.987312   -1.196567 
| 55> C        3.236493   -0.904929   -2.411567 
| 56> H        3.640990    0.053418   -2.749243 
| 57> C        1.267139   -0.464900    2.531536 
| 58> H        2.161630   -0.902783   -2.603826 
| 59> H        3.697388   -1.694627   -3.016368 
| 60> C        2.697601   -2.411104    1.824913 
| 61> H        0.411078   -0.840608    1.910182 
| 62> H        1.101298   -0.955345    3.499474 
| 63> H        1.182937    0.613220    2.672323 
| 64> C        2.601288   -0.882352    1.885247 
| 65> H        2.586441   -2.826896    2.833616 
| 66> H        3.659680   -2.747270    1.429848 
| 67> H        1.903309   -2.831808    1.199333 
| 68> C        3.181998    2.276906    1.664687 
| 69> H        2.135318    2.587016    1.600131 
| 70> H        3.793597    3.184158    1.733044 
| 71> H        3.324478    1.710719    2.590306 
| 72> C        3.508784    2.354763   -0.833649 
| 73> H        2.465553    2.610163   -1.046808 
| 74> H        3.919372    1.854332   -1.714343 
| 75> H        4.068793    3.284623   -0.679973 
| 76> *
| 77> 
| 78> %maxcore 5000
| 79> 
| 80> %pal
| 81> nprocs = 24
| 82> end
| 83> 
| 84> 
| 85>                          ****END OF INPUT****
================================================================================

                       ****************************
                       * Single Point Calculation *
                       ****************************

---------------------------------
CARTESIAN COORDINATES (ANGSTROEM)
---------------------------------
  W      0.102077    0.091078   -0.092267
  C      0.117393   -1.847063   -0.698289
  O      0.106421   -2.944423   -1.101491
  C      0.053830    0.623127   -1.953542
  O      0.062184    0.954188   -3.084324
  C     -0.079789    2.065684    0.368043
  O     -0.241835    3.206144    0.563164
  P     -2.374272   -0.093775    0.152024
  C     -2.924700   -0.636961    1.860300
  H     -4.020662   -0.654132    1.869520
  C     -3.301587    1.526034   -0.042070
  H     -2.720709    2.174283    0.626552
  C     -3.158465   -1.412689   -0.926528
  H     -2.602719   -2.298136   -0.589541
  C      3.533012   -1.160075   -0.926747
  P      2.541683   -0.047968    0.198665
  H      3.436930   -0.493420    2.480788
  H      3.117150   -2.146572   -0.686664
  C      3.597094    1.476716    0.423185
  H      4.630625    1.133957    0.560412
  C     -3.162167    2.103519   -1.458162
  H     -3.455722    3.159421   -1.453162
  H     -3.815975    1.580772   -2.162650
  H     -2.136423    2.033109   -1.825887
  C     -4.764402    1.570333    0.422322
  H     -5.415801    0.983387   -0.229568
  H     -5.116762    2.608723    0.390691
  H     -4.893747    1.210688    1.447022
  C     -4.655036   -1.682881   -0.716884
  H     -4.925909   -1.790522    0.337405
  H     -4.929224   -2.613829   -1.227923
  H     -5.265149   -0.883893   -1.147063
  C     -2.846467   -1.236186   -2.419424
  H     -3.119249   -2.151958   -2.956758
  H     -1.787229   -1.039228   -2.589757
  H     -3.419310   -0.412085   -2.852792
  C     -2.418211   -2.050160    2.179041
  H     -2.879973   -2.804800    1.536232
  H     -2.649558   -2.306479    3.219697
  H     -1.332968   -2.120913    2.045449
  C     -2.447309    0.375917    2.910548
  H     -1.357998    0.484909    2.881372
  H     -2.729985    0.039964    3.915237
  H     -2.881675    1.366975    2.750689
  C      5.039293   -1.175311   -0.637409
  H      5.257150   -1.324613    0.425881
  H      5.510398   -0.237807   -0.951034
  H      5.518847   -1.987312   -1.196567
  C      3.236493   -0.904929   -2.411567
  H      3.640990    0.053418   -2.749243
  C      1.267139   -0.464900    2.531536
  H      2.161630   -0.902783   -2.603826
  H      3.697388   -1.694627   -3.016368
  C      2.697601   -2.411104    1.824913
  H      0.411078   -0.840608    1.910182
  H      1.101298   -0.955345    3.499474
  H      1.182937    0.613220    2.672323
  C      2.601288   -0.882352    1.885247
  H      2.586441   -2.826896    2.833616
  H      3.659680   -2.747270    1.429848
  H      1.903309   -2.831808    1.199333
  C      3.181998    2.276906    1.664687
  H      2.135318    2.587016    1.600131
  H      3.793597    3.184158    1.733044
  H      3.324478    1.710719    2.590306
  C      3.508784    2.354763   -0.833649
  H      2.465553    2.610163   -1.046808
  H      3.919372    1.854332   -1.714343
  H      4.068793    3.284623   -0.679973

----------------------------
CARTESIAN COORDINATES (A.U.)
----------------------------
  NO LB      ZA    FRAG     MASS         X           Y           Z
   0 W    14.0000*   0   183.850    0.192898    0.172112   -0.174359
   1 C     6.0000    0    12.011    0.221841   -3.490443   -1.319575
   2 O     8.0000    0    15.999    0.201107   -5.564153   -2.081516
   3 C     6.0000    0    12.011    0.101724    1.177539   -3.691659
   4 O     8.0000    0    15.999    0.117511    1.803154   -5.828528
   5 C     6.0000    0    12.011   -0.150779    3.903577    0.695500
   6 O     8.0000    0    15.999   -0.457002    6.058734    1.064226
   7 P    15.0000    0    30.974   -4.486724   -0.177209    0.287284
   8 C     6.0000    0    12.011   -5.526882   -1.203682    3.515458
   9 H     1.0000    0     1.008   -7.597950   -1.236130    3.532881
  10 C     6.0000    0    12.011   -6.239095    2.883786   -0.079501
  11 H     1.0000    0     1.008   -5.141395    4.108799    1.184012
  12 C     6.0000    0    12.011   -5.968634   -2.669595   -1.750884
  13 H     1.0000    0     1.008   -4.918426   -4.342848   -1.114071
  14 C     6.0000    0    12.011    6.676425   -2.192224   -1.751298
  15 P    15.0000    0    30.974    4.803085   -0.090646    0.375422
  16 H     1.0000    0     1.008    6.494856   -0.932429    4.688010
  17 H     1.0000    0     1.008    5.890560   -4.056433   -1.297607
  18 C     6.0000    0    12.011    6.797523    2.790589    0.799704
  19 H     1.0000    0     1.008    8.750613    2.142868    1.059025
  20 C     6.0000    0    12.011   -5.975630    3.975075   -2.755527
  21 H     1.0000    0     1.008   -6.530368    5.970440   -2.746078
  22 H     1.0000    0     1.008   -7.211148    2.987226   -4.086816
  23 H     1.0000    0     1.008   -4.037254    3.842019   -3.450426
  24 C     6.0000    0    12.011   -9.003415    2.967499    0.798073
  25 H     1.0000    0     1.008  -10.234381    1.858332   -0.433821
  26 H     1.0000    0     1.008   -9.669279    4.929772    0.738299
  27 H     1.0000    0     1.008   -9.247842    2.287869    2.734475
  28 C     6.0000    0    12.011   -8.796743   -3.180184   -1.354714
  29 H     1.0000    0     1.008   -9.308619   -3.383596    0.637603
  30 H     1.0000    0     1.008   -9.314883   -4.939421   -2.320438
  31 H     1.0000    0     1.008   -9.949690   -1.670316   -2.167635
  32 C     6.0000    0    12.011   -5.379043   -2.336053   -4.572049
  33 H     1.0000    0     1.008   -5.894526   -4.066611   -5.587463
  34 H     1.0000    0     1.008   -3.377373   -1.963856   -4.893931
  35 H     1.0000    0     1.008   -6.461559   -0.778728   -5.390996
  36 C     6.0000    0    12.011   -4.569757   -3.874241    4.117791
  37 H     1.0000    0     1.008   -5.442360   -5.300304    2.903058
  38 H     1.0000    0     1.008   -5.006939   -4.358614    6.084346
  39 H     1.0000    0     1.008   -2.518944   -4.007945    3.865338
  40 C     6.0000    0    12.011   -4.624744    0.710380    5.500139
  41 H     1.0000    0     1.008   -2.566244    0.916345    5.445004
  42 H     1.0000    0     1.008   -5.158924    0.075521    7.398726
  43 H     1.0000    0     1.008   -5.445577    2.583208    5.198049
  44 C     6.0000    0    12.011    9.522884   -2.221016   -1.204528
  45 H     1.0000    0     1.008    9.934574   -2.503156    0.804798
  46 H     1.0000    0     1.008   10.413143   -0.449390   -1.797194
  47 H     1.0000    0     1.008   10.429109   -3.755475   -2.261184
  48 C     6.0000    0    12.011    6.116085   -1.710068   -4.557201
  49 H     1.0000    0     1.008    6.880474    0.100945   -5.195316
  50 C     6.0000    0    12.011    2.394546   -0.878534    4.783910
  51 H     1.0000    0     1.008    4.084889   -1.706013   -4.920518
  52 H     1.0000    0     1.008    6.987051   -3.202381   -5.700109
  53 C     6.0000    0    12.011    5.097727   -4.556326    3.448586
  54 H     1.0000    0     1.008    0.776825   -1.588519    3.609721
  55 H     1.0000    0     1.008    2.081152   -1.805340    6.613047
  56 H     1.0000    0     1.008    2.235427    1.158818    5.049959
  57 C     6.0000    0    12.011    4.915722   -1.667404    3.562601
  58 H     1.0000    0     1.008    4.887665   -5.342059    5.354758
  59 H     1.0000    0     1.008    6.915793   -5.191588    2.702021
  60 H     1.0000    0     1.008    3.596733   -5.351342    2.266411
  61 C     6.0000    0    12.011    6.013105    4.302729    3.145803
  62 H     1.0000    0     1.008    4.035166    4.888752    3.023809
  63 H     1.0000    0     1.008    7.168859    6.017187    3.274979
  64 H     1.0000    0     1.008    6.282353    3.232790    4.894969
  65 C     6.0000    0    12.011    6.630641    4.449857   -1.575368
  66 H     1.0000    0     1.008    4.659220    4.932493   -1.978180
  67 H     1.0000    0     1.008    7.406540    3.504180   -3.239639
  68 H     1.0000    0     1.008    7.688904    6.207038   -1.284963
* core charge reduced due to ECP

--------------------------------
INTERNAL COORDINATES (ANGSTROEM)
--------------------------------
 W      0   0   0     0.000000000000     0.00000000     0.00000000
 C      1   0   0     2.030735773118     0.00000000     0.00000000
 O      2   1   0     1.169141226366   177.02617244     0.00000000
 C      1   2   3     1.936426744557    88.60040407   342.40756214
 O      4   1   2     1.178278026003   178.12993917   259.18367697
 C      1   2   3     2.035688923508   173.67819466    28.98073318
 O      6   1   4     1.168323637678   175.57246662    39.02775979
 P      1   2   3     2.495226060719    88.05140084    77.60807931
 C      8   1   2     1.875161034673   113.70112360    90.70634755
 H      9   8   1     1.096135282292   107.79971223   178.18283519
 C      8   1   2     1.876530518415   114.60449240   206.83083617
 H     11   8   1     1.097588901078   100.67727431   311.02701173
 C      8   1   2     1.875571170963   114.25143188   334.96772670
 H     13   8   1     1.098376185327   100.30596366    57.20509265
 C      2   1   4     3.491503791072    80.74182143    84.38674459
 P     15   2   1     1.867101319006    63.79084529    21.58361074
 H     16  15   2     2.491581839403   104.76320312   115.16646325
 H     15   2   1     1.097158776541    55.80371237   148.97493831
 C     16  15   2     1.867876577608   104.98970107   198.94221713
 H     19  16  15     1.097497749233   106.98982538   317.97256238
 C     11   8   1     1.535657323132   112.03168389    64.38066257
 H     21  11   8     1.095960114068   109.49842263   196.38522736
 H     21  11   8     1.094089881599   111.09048760    77.61454556
 H     21  11   8     1.091938641711   111.81307116   316.51555276
 C     11   8   1     1.535398988957   117.67298147   194.47891938
 H     25  11   8     1.092605526353   111.84198957   289.92688754
 H     25  11   8     1.097001313518   108.94180691   171.30473056
 H     25  11   8     1.093656593749   112.74162456    52.08801184
 C     13   8   1     1.535147902204   116.92594793   173.63799588
 H     29  13   8     1.093839139239   112.97672982   312.85391659
 H     29  13   8     1.096815434596   109.23615066   193.03411878
 H     29  13   8     1.093468641047   111.19914904    74.79194453
 C     13   8   1     1.535328801211   113.16330501   303.85259903
 H     33  13   8     1.096255537301   109.26923148   166.39411718
 H     33  13   8     1.090775378021   111.71173933    46.43097491
 H     33  13   8     1.093206011818   111.44706236   285.37467398
 C      9   8   1     1.534685096625   111.04344904   296.64993234
 H     37   9   8     1.093576282079   111.96278242   293.55773212
 H     37   9   8     1.096442326119   110.04492507   173.55368166
 H     37   9   8     1.095721305133   111.16226151    53.90750942
 C      9   8   1     1.535201899188   109.92741424    60.22279228
 H     41   9   8     1.095138781051   110.90043083   302.09643030
 H     41   9   8     1.096435190016   110.15369964   182.41577594
 H     41   9   8     1.093811995363   111.98230407    62.19772200
 C     15   2   1     1.533894085294   161.14833142   110.72327899
 H     45  15   2     1.095599554469   112.31437114   328.58765185
 H     45  15   2     1.095086440271   111.09581930   207.49527653
 H     45  15   2     1.096346355802   109.91883790    88.70489954
 C     15   2   1     1.535484754427    84.66691937   263.36304826
 H     49  15   2     1.093650710416   111.88577048   129.61316010
 C     17  16  15     2.170571752692    70.11617992   225.32498055
 H     49  15   2     1.091924263475   111.14221369     8.86829085
 H     49  15   2     1.096280703939   109.42648825   248.99648629
 C     17  16  15     2.157380659439    75.95569309   299.99072980
 H     51  17  16     1.122531839326   138.15932952    41.77891909
 H     51  17  16     1.097699187915    99.54207447   163.59843073
 H     51  17  16     1.090529087449    95.34729759   273.33995721
 C     17  16  15     1.097376296203    44.98281221   266.11331848
 H     54  17  16     1.096686498081    95.28570784   201.91658085
 H     54  17  16     1.093014151794    94.68209580    93.55788205
 H     54  17  16     1.095099070075   139.79323023   327.78227357
 C     19  16  15     1.534254197100   111.72286908   199.42029634
 H     62  19  16     1.093560566058   111.04402897   301.21476812
 H     62  19  16     1.096281080633   109.33791888   182.59138281
 H     62  19  16     1.094366850069   112.29398383    63.20476084
 C     19  16  15     1.535707294332   109.62353127    76.71532905
 H     66  19  16     1.094987140857   110.33220720    56.45815197
 H     66  19  16     1.092993876077   112.08989654   296.14773922
 H     66  19  16     1.096296498515   109.92900704   175.99336297

---------------------------
INTERNAL COORDINATES (A.U.)
---------------------------
 W      0   0   0     0.000000000000     0.00000000     0.00000000
 C      1   0   0     3.837534461550     0.00000000     0.00000000
 O      2   1   0     2.209356729708   177.02617244     0.00000000
 C      1   2   3     3.659316225613    88.60040407   342.40756214
 O      4   1   2     2.226622778763   178.12993917   259.18367697
 C      1   2   3     3.846894559287   173.67819466    28.98073318
 O      6   1   4     2.207811710998   175.57246662    39.02775979
 P      1   2   3     4.715293896982    88.05140084    77.60807931
 C      8   1   2     3.543540812532   113.70112360    90.70634755
 H      9   8   1     2.071395489260   107.79971223   178.18283519
 C      8   1   2     3.546128761749   114.60449240   206.83083617
 H     11   8   1     2.074142430668   100.67727431   311.02701173
 C      8   1   2     3.544315857799   114.25143188   334.96772670
 H     13   8   1     2.075630182290   100.30596366    57.20509265
 C      2   1   4     6.597985960674    80.74182143    84.38674459
 P     15   2   1     3.528310157205    63.79084529    21.58361074
 H     16  15   2     4.708407316723   104.76320312   115.16646325
 H     15   2   1     2.073329613092    55.80371237   148.97493831
 C     16  15   2     3.529775183645   104.98970107   198.94221713
 H     19  16  15     2.073970178645   106.98982538   317.97256238
 C     11   8   1     2.901971776270   112.03168389    64.38066257
 H     21  11   8     2.071064469291   109.49842263   196.38522736
 H     21  11   8     2.067530242116   111.09048760    77.61454556
 H     21  11   8     2.063464987879   111.81307116   316.51555276
 C     11   8   1     2.901483595428   117.67298147   194.47891938
 H     25  11   8     2.064725217216   111.84198957   289.92688754
 H     25  11   8     2.073032051102   108.94180691   171.30473056
 H     25  11   8     2.066711446742   112.74162456    52.08801184
 C     13   8   1     2.901009110229   116.92594793   173.63799588
 H     29  13   8     2.067056407726   112.97672982   312.85391659
 H     29  13   8     2.072680790845   109.23615066   193.03411878
 H     29  13   8     2.066356267611   111.19914904    74.79194453
 C     13   8   1     2.901350959811   113.16330501   303.85259903
 H     33  13   8     2.071622738294   109.26923148   166.39411718
 H     33  13   8     2.061266738084   111.71173933    46.43097491
 H     33  13   8     2.065859970291   111.44706236   285.37467398
 C      9   8   1     2.900134534432   111.04344904   296.64993234
 H     37   9   8     2.066559679680   111.96278242   293.55773212
 H     37   9   8     2.071975718005   110.04492507   173.55368166
 H     37   9   8     2.070613185804   111.16226151    53.90750942
 C      9   8   1     2.901111149740   109.92741424    60.22279228
 H     41   9   8     2.069512374822   110.90043083   302.09643030
 H     41   9   8     2.071962232725   110.15369964   182.41577594
 H     41   9   8     2.067005113235   111.98230407    62.19772200
 C     15   2   1     2.898639739648   161.14833142   110.72327899
 H     45  15   2     2.070383110393   112.31437114   328.58765185
 H     45  15   2     2.069413465083   111.09581930   207.49527653
 H     45  15   2     2.071794360389   109.91883790    88.70489954
 C     15   2   1     2.901645668678    84.66691937   263.36304826
 H     49  15   2     2.066700328855   111.88577048   129.61316010
 C     17  16  15     4.101786166614    70.11617992   225.32498055
 H     49  15   2     2.063437816952   111.14221369     8.86829085
 H     49  15   2     2.071670296348   109.42648825   248.99648629
 C     17  16  15     4.076858612958    75.95569309   299.99072980
 H     51  17  16     2.121277752933   138.15932952    41.77891909
 H     51  17  16     2.074350842588    99.54207447   163.59843073
 H     51  17  16     2.060801316354    95.34729759   273.33995721
 C     17  16  15     2.073740665681    44.98281221   266.11331848
 H     54  17  16     2.072437136142    95.28570784   201.91658085
 H     54  17  16     2.065497407391    94.68209580    93.55788205
 H     54  17  16     2.069437331954   139.79323023   327.78227357
 C     19  16  15     2.899320252339   111.72286908   199.42029634
 H     62  19  16     2.066529980705   111.04402897   301.21476812
 H     62  19  16     2.071671008196   109.33791888   182.59138281
 H     62  19  16     2.068053636673   112.29398383    63.20476084
 C     19  16  15     2.902066208153   109.62353127    76.71532905
 H     66  19  16     2.069225816385   110.33220720    56.45815197
 H     66  19  16     2.065459091838   112.08989654   296.14773922
 H     66  19  16     2.071700143771   109.92900704   175.99336297

---------------------
BASIS SET INFORMATION
---------------------
There are 5 groups of distinct atoms

 Group   1 Type W   : 8s8p6d2f1g contracted to 6s5p3d2f1g pattern {311111/41111/411/11/1}
 Group   2 Type C   : 12s6p3d1f contracted to 6s3p3d1f pattern {621111/411/111/1}
 Group   3 Type O   : 12s7p3d1f contracted to 6s4p3d1f pattern {621111/4111/111/1}
 Group   4 Type P   : 15s9p4d1f contracted to 6s5p4d1f pattern {732111/51111/1111/1}
 Group   5 Type H   : 5s3p1d contracted to 3s3p1d pattern {311/111/1}

Atom   0W    basis set group =>   1
Atom   1C    basis set group =>   2
Atom   2O    basis set group =>   3
Atom   3C    basis set group =>   2
Atom   4O    basis set group =>   3
Atom   5C    basis set group =>   2
Atom   6O    basis set group =>   3
Atom   7P    basis set group =>   4
Atom   8C    basis set group =>   2
Atom   9H    basis set group =>   5
Atom  10C    basis set group =>   2
Atom  11H    basis set group =>   5
Atom  12C    basis set group =>   2
Atom  13H    basis set group =>   5
Atom  14C    basis set group =>   2
Atom  15P    basis set group =>   4
Atom  16H    basis set group =>   5
Atom  17H    basis set group =>   5
Atom  18C    basis set group =>   2
Atom  19H    basis set group =>   5
Atom  20C    basis set group =>   2
Atom  21H    basis set group =>   5
Atom  22H    basis set group =>   5
Atom  23H    basis set group =>   5
Atom  24C    basis set group =>   2
Atom  25H    basis set group =>   5
Atom  26H    basis set group =>   5
Atom  27H    basis set group =>   5
Atom  28C    basis set group =>   2
Atom  29H    basis set group =>   5
Atom  30H    basis set group =>   5
Atom  31H    basis set group =>   5
Atom  32C    basis set group =>   2
Atom  33H    basis set group =>   5
Atom  34H    basis set group =>   5
Atom  35H    basis set group =>   5
Atom  36C    basis set group =>   2
Atom  37H    basis set group =>   5
Atom  38H    basis set group =>   5
Atom  39H    basis set group =>   5
Atom  40C    basis set group =>   2
Atom  41H    basis set group =>   5
Atom  42H    basis set group =>   5
Atom  43H    basis set group =>   5
Atom  44C    basis set group =>   2
Atom  45H    basis set group =>   5
Atom  46H    basis set group =>   5
Atom  47H    basis set group =>   5
Atom  48C    basis set group =>   2
Atom  49H    basis set group =>   5
Atom  50C    basis set group =>   2
Atom  51H    basis set group =>   5
Atom  52H    basis set group =>   5
Atom  53C    basis set group =>   2
Atom  54H    basis set group =>   5
Atom  55H    basis set group =>   5
Atom  56H    basis set group =>   5
Atom  57C    basis set group =>   2
Atom  58H    basis set group =>   5
Atom  59H    basis set group =>   5
Atom  60H    basis set group =>   5
Atom  61C    basis set group =>   2
Atom  62H    basis set group =>   5
Atom  63H    basis set group =>   5
Atom  64H    basis set group =>   5
Atom  65C    basis set group =>   2
Atom  66H    basis set group =>   5
Atom  67H    basis set group =>   5
Atom  68H    basis set group =>   5
---------------------------------
AUXILIARY/C BASIS SET INFORMATION
---------------------------------
There are 5 groups of distinct atoms

 Group   1 Type W   : 9s9p8d5f4g3h1i contracted to 9s9p8d5f4g3h1i pattern {111111111/111111111/11111111/11111/1111/111/1}
 Group   2 Type C   : 9s7p6d4f1g contracted to 9s7p5d4f1g pattern {111111111/1111111/21111/1111/1}
 Group   3 Type O   : 9s7p6d4f1g contracted to 9s7p5d4f1g pattern {111111111/1111111/21111/1111/1}
 Group   4 Type P   : 12s9p8d6f2g contracted to 12s9p8d6f2g pattern {111111111111/111111111/11111111/111111/11}
 Group   5 Type H   : 5s4p3d1f contracted to 5s4p3d1f pattern {11111/1111/111/1}

Atom   0W    basis set group =>   1
Atom   1C    basis set group =>   2
Atom   2O    basis set group =>   3
Atom   3C    basis set group =>   2
Atom   4O    basis set group =>   3
Atom   5C    basis set group =>   2
Atom   6O    basis set group =>   3
Atom   7P    basis set group =>   4
Atom   8C    basis set group =>   2
Atom   9H    basis set group =>   5
Atom  10C    basis set group =>   2
Atom  11H    basis set group =>   5
Atom  12C    basis set group =>   2
Atom  13H    basis set group =>   5
Atom  14C    basis set group =>   2
Atom  15P    basis set group =>   4
Atom  16H    basis set group =>   5
Atom  17H    basis set group =>   5
Atom  18C    basis set group =>   2
Atom  19H    basis set group =>   5
Atom  20C    basis set group =>   2
Atom  21H    basis set group =>   5
Atom  22H    basis set group =>   5
Atom  23H    basis set group =>   5
Atom  24C    basis set group =>   2
Atom  25H    basis set group =>   5
Atom  26H    basis set group =>   5
Atom  27H    basis set group =>   5
Atom  28C    basis set group =>   2
Atom  29H    basis set group =>   5
Atom  30H    basis set group =>   5
Atom  31H    basis set group =>   5
Atom  32C    basis set group =>   2
Atom  33H    basis set group =>   5
Atom  34H    basis set group =>   5
Atom  35H    basis set group =>   5
Atom  36C    basis set group =>   2
Atom  37H    basis set group =>   5
Atom  38H    basis set group =>   5
Atom  39H    basis set group =>   5
Atom  40C    basis set group =>   2
Atom  41H    basis set group =>   5
Atom  42H    basis set group =>   5
Atom  43H    basis set group =>   5
Atom  44C    basis set group =>   2
Atom  45H    basis set group =>   5
Atom  46H    basis set group =>   5
Atom  47H    basis set group =>   5
Atom  48C    basis set group =>   2
Atom  49H    basis set group =>   5
Atom  50C    basis set group =>   2
Atom  51H    basis set group =>   5
Atom  52H    basis set group =>   5
Atom  53C    basis set group =>   2
Atom  54H    basis set group =>   5
Atom  55H    basis set group =>   5
Atom  56H    basis set group =>   5
Atom  57C    basis set group =>   2
Atom  58H    basis set group =>   5
Atom  59H    basis set group =>   5
Atom  60H    basis set group =>   5
Atom  61C    basis set group =>   2
Atom  62H    basis set group =>   5
Atom  63H    basis set group =>   5
Atom  64H    basis set group =>   5
Atom  65C    basis set group =>   2
Atom  66H    basis set group =>   5
Atom  67H    basis set group =>   5
Atom  68H    basis set group =>   5
----------------------------------
AUXILIARY/JK BASIS SET INFORMATION
----------------------------------
There are 5 groups of distinct atoms

 Group   1 Type W   : 13s12p11d9f5g3h2i contracted to 11s9p9d7f4g3h2i pattern {31111111111/411111111/311111111/3111111/2111/111/11}
 Group   2 Type C   : 14s10p6d2f1g contracted to 10s8p5d1f1g pattern {5111111111/31111111/21111/2/1}
 Group   3 Type O   : 14s10p6d2f1g contracted to 10s8p4d2f1g pattern {5111111111/31111111/3111/11/1}
 Group   4 Type P   : 16s12p10d4f1g contracted to 13s11p9d4f1g pattern {4111111111111/21111111111/211111111/1111/1}
 Group   5 Type H   : 4s2p2d contracted to 2s2p2d pattern {31/11/11}

Atom   0W    basis set group =>   1
Atom   1C    basis set group =>   2
Atom   2O    basis set group =>   3
Atom   3C    basis set group =>   2
Atom   4O    basis set group =>   3
Atom   5C    basis set group =>   2
Atom   6O    basis set group =>   3
Atom   7P    basis set group =>   4
Atom   8C    basis set group =>   2
Atom   9H    basis set group =>   5
Atom  10C    basis set group =>   2
Atom  11H    basis set group =>   5
Atom  12C    basis set group =>   2
Atom  13H    basis set group =>   5
Atom  14C    basis set group =>   2
Atom  15P    basis set group =>   4
Atom  16H    basis set group =>   5
Atom  17H    basis set group =>   5
Atom  18C    basis set group =>   2
Atom  19H    basis set group =>   5
Atom  20C    basis set group =>   2
Atom  21H    basis set group =>   5
Atom  22H    basis set group =>   5
Atom  23H    basis set group =>   5
Atom  24C    basis set group =>   2
Atom  25H    basis set group =>   5
Atom  26H    basis set group =>   5
Atom  27H    basis set group =>   5
Atom  28C    basis set group =>   2
Atom  29H    basis set group =>   5
Atom  30H    basis set group =>   5
Atom  31H    basis set group =>   5
Atom  32C    basis set group =>   2
Atom  33H    basis set group =>   5
Atom  34H    basis set group =>   5
Atom  35H    basis set group =>   5
Atom  36C    basis set group =>   2
Atom  37H    basis set group =>   5
Atom  38H    basis set group =>   5
Atom  39H    basis set group =>   5
Atom  40C    basis set group =>   2
Atom  41H    basis set group =>   5
Atom  42H    basis set group =>   5
Atom  43H    basis set group =>   5
Atom  44C    basis set group =>   2
Atom  45H    basis set group =>   5
Atom  46H    basis set group =>   5
Atom  47H    basis set group =>   5
Atom  48C    basis set group =>   2
Atom  49H    basis set group =>   5
Atom  50C    basis set group =>   2
Atom  51H    basis set group =>   5
Atom  52H    basis set group =>   5
Atom  53C    basis set group =>   2
Atom  54H    basis set group =>   5
Atom  55H    basis set group =>   5
Atom  56H    basis set group =>   5
Atom  57C    basis set group =>   2
Atom  58H    basis set group =>   5
Atom  59H    basis set group =>   5
Atom  60H    basis set group =>   5
Atom  61C    basis set group =>   2
Atom  62H    basis set group =>   5
Atom  63H    basis set group =>   5
Atom  64H    basis set group =>   5
Atom  65C    basis set group =>   2
Atom  66H    basis set group =>   5
Atom  67H    basis set group =>   5
Atom  68H    basis set group =>   5
-------------------------
ECP PARAMETER INFORMATION
-------------------------

 Group 1, Type W  ECP Def2-ECP (replacing 60 core electrons, lmax=3)

Atom   0W    ECP group =>   1



           ************************************************************
           *        Program running with 24 parallel MPI-processes    *
           *              working on a common directory               *
           ************************************************************
------------------------------------------------------------------------------
                           ORCA GTO INTEGRAL CALCULATION
                           -- RI-GTO INTEGRALS CHOSEN --
------------------------------------------------------------------------------

                         BASIS SET STATISTICS AND STARTUP INFO

Gaussian basis set:
 # of primitive gaussian shells          ...  992
 # of primitive gaussian functions       ... 2278
 # of contracted shells                  ...  658
 # of contracted basis functions         ... 1766
 Highest angular momentum                ...    4
 Maximum contraction depth               ...    7
Auxiliary gaussian basis set:
 # of primitive gaussian shells          ... 1269
 # of primitive gaussian functions       ... 3717
 # of contracted shells                  ...  973
 # of contracted aux-basis functions     ... 3045
 Highest angular momentum                ...    6
 Maximum contraction depth               ...    5
Ratio of auxiliary to basis functions    ...  1.72
Integral package used                  ... LIBINT
 One Electron integrals                  
   ECP integrals                         ... done
 Ordering auxiliary basis shells         ... done
 Integral threshhold             Thresh  ...  1.000e-10
 Primitive cut-off               TCut    ...  1.000e-11
 Pre-screening matrix                    ... done
 Shell pair data                         ... 
 Ordering of the shell pairs             ... done (   0.035 sec) 159893 of 216811 pairs
 Determination of significant pairs      ... done (   0.001 sec)
 Creation of shell pair data             ... done (   0.014 sec)
 Storage of shell pair data              ... done (   0.079 sec)
 Shell pair data done in (   0.129 sec)
 Computing two index integrals           ... done
 Cholesky decomposition of the V-matrix  ... done


Timings:
 Total evaluation time                   ...  14.401 sec (  0.240 min)
 One electron matrix time                ...  12.374 sec (  0.206 min) = 85.9%
 Schwartz matrix evaluation time         ...   1.084 sec (  0.018 min) =  7.5%
 Two index repulsion integral time       ...   0.324 sec (  0.005 min) =  2.3%
 Cholesky decomposition of V             ...   0.461 sec (  0.008 min) =  3.2%
 Three index repulsion integral time     ...   0.000 sec (  0.000 min) =  0.0%



           ************************************************************
           *        Program running with 24 parallel MPI-processes    *
           *              working on a common directory               *
           ************************************************************
-------------------------------------------------------------------------------
                                 ORCA SCF
-------------------------------------------------------------------------------

------------
SCF SETTINGS
------------
Hamiltonian:
 Density Functional     Method          .... DFT(GTOs)
 Exchange Functional    Exchange        .... B88
   X-Alpha parameter    XAlpha          ....  0.666667
   Becke's b parameter  XBeta           ....  0.004200
 Correlation Functional Correlation     .... LYP
 LDA part of GGA corr.  LDAOpt          .... VWN-3
 Gradients option       PostSCFGGA      .... off
 Hybrid DFT is turned on
   Fraction HF Exchange ScalHFX         ....  0.530000
   Scaling of DF-GGA-X  ScalDFX         ....  0.470000
   Scaling of DF-GGA-C  ScalDFC         ....  0.730000
   Scaling of DF-LDA-C  ScalLDAC        ....  0.730000
   Perturbative correction              ....  0.270000
   Density functional embedding theory  .... OFF
 RI-approximation to the Coulomb term is turned on
   Number of auxiliary basis functions  .... 3045
   RI-JK (J+K treated both via RI)      .... on


General Settings:
 Integral files         IntName         .... MOR09_ed07
 Hartree-Fock type      HFTyp           .... RHF
 Total Charge           Charge          ....    0
 Multiplicity           Mult            ....    1
 Number of Electrons    NEL             ....  236
 Basis Dimension        Dim             .... 1766
 Nuclear Repulsion      ENuc            ....   3558.2821903299 Eh

Convergence Acceleration:
 DIIS                   CNVDIIS         .... on
   Start iteration      DIISMaxIt       ....    12
   Startup error        DIISStart       ....  0.200000
   # of expansion vecs  DIISMaxEq       ....     5
   Bias factor          DIISBfac        ....   1.050
   Max. coefficient     DIISMaxC        ....  10.000
 Newton-Raphson         CNVNR           .... off
 SOSCF                  CNVSOSCF        .... off
 Level Shifting         CNVShift        .... on
   Level shift para.    LevelShift      ....    0.2500
   Turn off err/grad.   ShiftErr        ....    0.0010
 Zerner damping         CNVZerner       .... off
 Static damping         CNVDamp         .... on
   Fraction old density DampFac         ....    0.7000
   Max. Damping (<1)    DampMax         ....    0.9800
   Min. Damping (>=0)   DampMin         ....    0.0000
   Turn off err/grad.   DampErr         ....    0.1000
 Fernandez-Rico         CNVRico         .... off

SCF Procedure:
 Maximum # iterations   MaxIter         ....   125
 SCF integral mode      SCFMode         .... Direct
   Integral package                     .... LIBINT
 Reset frequency        DirectResetFreq ....    20
 Integral Threshold     Thresh          ....  1.000e-10 Eh
 Primitive CutOff       TCut            ....  1.000e-11 Eh

Convergence Tolerance:
 Convergence Check Mode ConvCheckMode   .... Total+1el-Energy
 Convergence forced     ConvForced      .... 0
 Energy Change          TolE            ....  1.000e-06 Eh
 1-El. energy change                    ....  1.000e-03 Eh
 DIIS Error             TolErr          ....  1.000e-06


Diagonalization of the overlap matrix:
Smallest eigenvalue                        ... 2.214e-07
Time for diagonalization                   ...    0.357 sec
Threshold for overlap eigenvalues          ... 1.000e-08
Number of eigenvalues below threshold      ... 0
Time for construction of square roots      ...    0.398 sec
Total time needed                          ...    0.767 sec

-------------------
DFT GRID GENERATION
-------------------

General Integration Accuracy     IntAcc      ...  4.670
Radial Grid Type                 RadialGrid  ... Gauss-Chebyshev
Angular Grid (max. acc.)         AngularGrid ... Lebedev-302
Angular grid pruning method      GridPruning ... 3 (G Style)
Weight generation scheme         WeightScheme... Becke
Basis function cutoff            BFCut       ...    1.0000e-10
Integration weight cutoff        WCut        ...    1.0000e-14
Grids for H and He will be reduced by one unit

# of grid points (after initial pruning)     ... 316980 (   0.0 sec)
# of grid points (after weights+screening)   ... 264848 (   0.3 sec)
nearest neighbour list constructed           ...    0.0 sec
Grid point re-assignment to atoms done       ...    0.0 sec
Grid point division into batches done        ...    0.7 sec
Reduced shell lists constructed in    2.6 sec

Total number of grid points                  ...   264848
Total number of batches                      ...     4176
Average number of points per batch           ...       63
Average number of grid points per atom       ...     3838
Average number of shells per batch           ...   354.95 (53.94%)
Average number of basis functions per batch  ...   922.77 (52.25%)
Average number of large shells per batch     ...   254.91 (71.82%)
Average number of large basis fcns per batch ...   668.45 (72.44%)
Average number of aux-shells per batch       ...   354.95 (36.48%)
Average number of aux functions per batch    ...   922.77 (30.30%)
Maximum spatial batch extension              ...   3.10,  4.47,  3.27 au
Average spatial batch extension              ...   0.05,  0.05,  0.05 au

Time for grid setup =    3.013 sec

------------------------------
INITIAL GUESS: MODEL POTENTIAL
------------------------------
Loading Hartree-Fock densities                     ... done
  calling /sw/apps/orca/orca_4_2_0_linux_x86-64_openmpi314/orca MOR09_ed07_atom74.inp > MOR09_ed07_atom74.out in order to generate an atomic fitting density for atom 0 (W  with ECP) on-the-fly... 
    atom 0 (W ), assumed electronic state with S=5: 1s2 2s2 2p6 3s2 3p6 4s2 3d10 4p6 5s2 4d10 5p6 6s2 4f14 5d4           ... done
Calculating cut-offs                               ... done
Setting up the integral package                    ... done
Initializing the effective Hamiltonian             ... done
Starting the Coulomb interaction                   ... done (   0.6 sec)
Reading the grid                                   ... done
Mapping shells                                     ... done
Starting the XC term evaluation                    ... done (   1.9 sec)
  promolecular density results
     # of electrons  =    295.980285154
     EX              =   -516.626224849
     EC              =     -4.036724782
     EX+EC           =   -520.662949631
Transforming the Hamiltonian                       ... done (   0.2 sec)
Diagonalizing the Hamiltonian                      ... done (   0.4 sec)
Back transforming the eigenvectors                 ... done (   0.1 sec)
Now organizing SCF variables                       ... done
                      ------------------
                      INITIAL GUESS DONE (   8.3 sec)
                      ------------------
--------------
SCF ITERATIONS
--------------
ITER       Energy         Delta-E        Max-DP      RMS-DP      [F,P]     Damp
  0  -1797.3139862341   0.000000000000 7.41637225  0.01312871  0.3703017 0.7000
  1  -1797.0772346659   0.236751568223 5.69897641  0.00948318  0.2550987 0.7000
                               ***Turning on DIIS***
  2  -1797.3804440008  -0.303209334911 4.11145501  0.00660940  0.1649892 0.7000
  3  -1797.8154977500  -0.435053749128 2.81054251  0.00444107  0.1094972 0.7000
  4  -1798.2130378260  -0.397540076084 5.83547957  0.01023842  0.0778578 0.0000
  5  -1798.5395113236  -0.326473497596 1.00334491  0.00118542  0.0255762 0.0000
  6  -1798.5454953073  -0.005983983648 0.10897759  0.00029263  0.0163476 0.0000
  7  -1798.5469639807  -0.001468673438 0.45843995  0.00040968  0.0062378 0.0000
  8  -1798.5475197878  -0.000555807057 0.22701233  0.00050675  0.0041713 0.0000
  9  -1798.5477771469  -0.000257359171 0.24581061  0.00039425  0.0021447 0.0000
 10  -1798.5478074112  -0.000030264263 1.34227575  0.00104982  0.0007163 0.0000
 11  -1798.5478109519  -0.000003540646 0.19781406  0.00025518  0.0004547 0.0000
 12  -1798.5478120707  -0.000001118817 0.77882584  0.00065299  0.0002804 0.0000
 13  -1798.5478124238  -0.000000353132 0.21396597  0.00022871  0.0001129 0.0000
                 **** Energy Check signals convergence ****

               *****************************************************
               *                     SUCCESS                       *
               *           SCF CONVERGED AFTER  14 CYCLES          *
               *****************************************************


----------------
TOTAL SCF ENERGY
----------------

Total Energy       :        -1798.54781251 Eh          -48940.97409 eV

Components:
Nuclear Repulsion  :         3558.28219033 Eh           96825.78093 eV
Electronic Energy  :        -5356.83000284 Eh         -145766.75502 eV
One Electron Energy:        -9569.64475706 Eh         -260403.27249 eV
Two Electron Energy:         4212.81475422 Eh          114636.51747 eV

Virial components:
Potential Energy   :        -3548.29965901 Eh          -96554.14244 eV
Kinetic Energy     :         1749.75184650 Eh           47613.16835 eV
Virial Ratio       :            2.02788736


DFT components:
N(Alpha)           :      117.999885521503 electrons
N(Beta)            :      117.999885521503 electrons
N(Total)           :      235.999771043006 electrons
E(X)               :      -94.566245198428 Eh       
E(C)               :       -5.862087560894 Eh       
E(XC)              :     -100.428332759323 Eh       
DFET-embed. en.    :        0.000000000000 Eh       

---------------
SCF CONVERGENCE
---------------

  Last Energy change         ...   -8.1672e-08  Tolerance :   1.0000e-06
  Last MAX-Density change    ...    3.1895e-01  Tolerance :   1.0000e-05
  Last RMS-Density change    ...    3.8108e-04  Tolerance :   1.0000e-06
  Last DIIS Error            ...    7.3805e-05  Tolerance :   1.0000e-06

             **** THE GBW FILE WAS UPDATED (MOR09_ed07.gbw) ****
             **** DENSITY FILE WAS UPDATED (MOR09_ed07.scfp) ****
             **** ENERGY FILE WAS UPDATED (MOR09_ed07.en.tmp) ****
             **** THE GBW FILE WAS UPDATED (MOR09_ed07.gbw) ****
             **** DENSITY FILE WAS UPDATED (MOR09_ed07.scfp) ****
----------------
ORBITAL ENERGIES
----------------

  NO   OCC          E(Eh)            E(eV) 
   0   2.0000     -78.275145     -2129.9750 
   1   2.0000     -78.273076     -2129.9187 
   2   2.0000     -19.771944      -538.0220 
   3   2.0000     -19.770846      -537.9921 
   4   2.0000     -19.728481      -536.8393 
   5   2.0000     -10.708330      -291.3885 
   6   2.0000     -10.708093      -291.3820 
   7   2.0000     -10.677119      -290.5392 
   8   2.0000     -10.641487      -289.5696 
   9   2.0000     -10.639697      -289.5209 
  10   2.0000     -10.629116      -289.2330 
  11   2.0000     -10.628445      -289.2147 
  12   2.0000     -10.627309      -289.1838 
  13   2.0000     -10.623062      -289.0682 
  14   2.0000     -10.622631      -289.0565 
  15   2.0000     -10.619605      -288.9741 
  16   2.0000     -10.615319      -288.8575 
  17   2.0000     -10.613528      -288.8088 
  18   2.0000     -10.613132      -288.7980 
  19   2.0000     -10.611136      -288.7437 
  20   2.0000     -10.608255      -288.6653 
  21   2.0000     -10.607218      -288.6371 
  22   2.0000     -10.605242      -288.5833 
  23   2.0000     -10.600605      -288.4571 
  24   2.0000     -10.596745      -288.3521 
  25   2.0000     -10.594729      -288.2972 
  26   2.0000      -6.943312      -188.9371 
  27   2.0000      -6.940032      -188.8479 
  28   2.0000      -4.994757      -135.9142 
  29   2.0000      -4.994216      -135.8995 
  30   2.0000      -4.992134      -135.8429 
  31   2.0000      -4.991329      -135.8210 
  32   2.0000      -4.991249      -135.8188 
  33   2.0000      -4.988980      -135.7571 
  34   2.0000      -3.084184       -83.9249 
  35   2.0000      -1.674824       -45.5743 
  36   2.0000      -1.673709       -45.5439 
  37   2.0000      -1.662781       -45.2466 
  38   2.0000      -1.240753       -33.7626 
  39   2.0000      -1.239452       -33.7272 
  40   2.0000      -1.197276       -32.5795 
  41   2.0000      -0.943730       -25.6802 
  42   2.0000      -0.933295       -25.3962 
  43   2.0000      -0.912293       -24.8248 
  44   2.0000      -0.901711       -24.5368 
  45   2.0000      -0.900051       -24.4916 
  46   2.0000      -0.895421       -24.3656 
  47   2.0000      -0.813674       -22.1412 
  48   2.0000      -0.799267       -21.7492 
  49   2.0000      -0.795040       -21.6341 
  50   2.0000      -0.792364       -21.5613 
  51   2.0000      -0.791949       -21.5500 
  52   2.0000      -0.782019       -21.2798 
  53   2.0000      -0.754570       -20.5329 
  54   2.0000      -0.748587       -20.3701 
  55   2.0000      -0.689701       -18.7677 
  56   2.0000      -0.678777       -18.4705 
  57   2.0000      -0.676427       -18.4065 
  58   2.0000      -0.675597       -18.3839 
  59   2.0000      -0.652306       -17.7502 
  60   2.0000      -0.627680       -17.0800 
  61   2.0000      -0.613404       -16.6916 
  62   2.0000      -0.602635       -16.3985 
  63   2.0000      -0.597980       -16.2719 
  64   2.0000      -0.561193       -15.2708 
  65   2.0000      -0.551010       -14.9938 
  66   2.0000      -0.546857       -14.8807 
  67   2.0000      -0.540459       -14.7066 
  68   2.0000      -0.539951       -14.6928 
  69   2.0000      -0.529585       -14.4107 
  70   2.0000      -0.522963       -14.2305 
  71   2.0000      -0.522557       -14.2195 
  72   2.0000      -0.512088       -13.9346 
  73   2.0000      -0.505352       -13.7513 
  74   2.0000      -0.503681       -13.7058 
  75   2.0000      -0.500667       -13.6238 
  76   2.0000      -0.497401       -13.5350 
  77   2.0000      -0.494467       -13.4551 
  78   2.0000      -0.493437       -13.4271 
  79   2.0000      -0.490692       -13.3524 
  80   2.0000      -0.481308       -13.0971 
  81   2.0000      -0.479068       -13.0361 
  82   2.0000      -0.476219       -12.9586 
  83   2.0000      -0.474849       -12.9213 
  84   2.0000      -0.473152       -12.8751 
  85   2.0000      -0.469730       -12.7820 
  86   2.0000      -0.469096       -12.7648 
  87   2.0000      -0.465422       -12.6648 
  88   2.0000      -0.463808       -12.6209 
  89   2.0000      -0.460757       -12.5378 
  90   2.0000      -0.458410       -12.4740 
  91   2.0000      -0.456262       -12.4155 
  92   2.0000      -0.454529       -12.3684 
  93   2.0000      -0.451722       -12.2920 
  94   2.0000      -0.450755       -12.2657 
  95   2.0000      -0.439063       -11.9475 
  96   2.0000      -0.432290       -11.7632 
  97   2.0000      -0.428917       -11.6714 
  98   2.0000      -0.426366       -11.6020 
  99   2.0000      -0.417747       -11.3675 
 100   2.0000      -0.416027       -11.3207 
 101   2.0000      -0.415368       -11.3027 
 102   2.0000      -0.410279       -11.1643 
 103   2.0000      -0.405776       -11.0417 
 104   2.0000      -0.405596       -11.0368 
 105   2.0000      -0.402001       -10.9390 
 106   2.0000      -0.400280       -10.8922 
 107   2.0000      -0.399729       -10.8772 
 108   2.0000      -0.397871       -10.8266 
 109   2.0000      -0.359009        -9.7691 
 110   2.0000      -0.352860        -9.6018 
 111   2.0000      -0.350791        -9.5455 
 112   2.0000      -0.348052        -9.4710 
 113   2.0000      -0.340681        -9.2704 
 114   2.0000      -0.296113        -8.0576 
 115   2.0000      -0.223959        -6.0942 
 116   2.0000      -0.215102        -5.8532 
 117   2.0000      -0.205119        -5.5816 
 118   0.0000      -0.007702        -0.2096 
 119   0.0000       0.020615         0.5610 
 120   0.0000       0.023756         0.6464 
 121   0.0000       0.026268         0.7148 
 122   0.0000       0.032607         0.8873 
 123   0.0000       0.035119         0.9556 
 124   0.0000       0.043737         1.1902 
 125   0.0000       0.046348         1.2612 
 126   0.0000       0.046765         1.2725 
 127   0.0000       0.056210         1.5295 
 128   0.0000       0.056831         1.5465 
 129   0.0000       0.060387         1.6432 
 130   0.0000       0.063871         1.7380 
 131   0.0000       0.065589         1.7848 
 132   0.0000       0.068286         1.8581 
 133   0.0000       0.069847         1.9006 
 134   0.0000       0.079671         2.1679 
 135   0.0000       0.079887         2.1738 
 136   0.0000       0.081328         2.2131 
 137   0.0000       0.085771         2.3339 
 138   0.0000       0.088437         2.4065 
 139   0.0000       0.091990         2.5032 
 140   0.0000       0.093743         2.5509 
 141   0.0000       0.096427         2.6239 
 142   0.0000       0.097071         2.6414 
 143   0.0000       0.099903         2.7185 
 144   0.0000       0.105269         2.8645 
 145   0.0000       0.107153         2.9158 
 146   0.0000       0.110271         3.0006 
 147   0.0000       0.114824         3.1245 
 148   0.0000       0.116713         3.1759 
 149   0.0000       0.120241         3.2719 
 150   0.0000       0.122418         3.3312 
 151   0.0000       0.123876         3.3709 
 152   0.0000       0.126733         3.4486 
 153   0.0000       0.128149         3.4871 
 154   0.0000       0.129938         3.5358 
 155   0.0000       0.132952         3.6178 
 156   0.0000       0.136089         3.7032 
 157   0.0000       0.137924         3.7531 
 158   0.0000       0.141533         3.8513 
 159   0.0000       0.142933         3.8894 
 160   0.0000       0.143368         3.9012 
 161   0.0000       0.145571         3.9612 
 162   0.0000       0.146770         3.9938 
 163   0.0000       0.148974         4.0538 
 164   0.0000       0.150120         4.0850 
 165   0.0000       0.154547         4.2054 
 166   0.0000       0.154869         4.2142 
 167   0.0000       0.157351         4.2817 
 168   0.0000       0.159742         4.3468 
 169   0.0000       0.161850         4.4042 
 170   0.0000       0.163967         4.4618 
 171   0.0000       0.166833         4.5397 
 172   0.0000       0.169036         4.5997 
 173   0.0000       0.173448         4.7198 
 174   0.0000       0.174628         4.7519 
 175   0.0000       0.176158         4.7935 
 176   0.0000       0.179554         4.8859 
 177   0.0000       0.180185         4.9031 
 178   0.0000       0.180921         4.9231 
 179   0.0000       0.182199         4.9579 
 180   0.0000       0.185493         5.0475 
 181   0.0000       0.187490         5.1019 
 182   0.0000       0.191332         5.2064 
 183   0.0000       0.194672         5.2973 
 184   0.0000       0.198083         5.3901 
 185   0.0000       0.199378         5.4254 
 186   0.0000       0.201729         5.4893 
 187   0.0000       0.203275         5.5314 
 188   0.0000       0.205187         5.5834 
 189   0.0000       0.207061         5.6344 
 190   0.0000       0.208115         5.6631 
 191   0.0000       0.210903         5.7390 
 192   0.0000       0.214455         5.8356 
 193   0.0000       0.215607         5.8670 
 194   0.0000       0.217232         5.9112 
 195   0.0000       0.218450         5.9443 
 196   0.0000       0.222106         6.0438 
 197   0.0000       0.223624         6.0851 
 198   0.0000       0.224963         6.1216 
 199   0.0000       0.228137         6.2079 
 200   0.0000       0.229704         6.2506 
 201   0.0000       0.229961         6.2576 
 202   0.0000       0.232181         6.3180 
 203   0.0000       0.233738         6.3603 
 204   0.0000       0.235818         6.4169 
 205   0.0000       0.238121         6.4796 
 206   0.0000       0.239634         6.5208 
 207   0.0000       0.243651         6.6301 
 208   0.0000       0.244949         6.6654 
 209   0.0000       0.248245         6.7551 
 210   0.0000       0.248890         6.7726 
 211   0.0000       0.252853         6.8805 
 212   0.0000       0.254271         6.9191 
 213   0.0000       0.256407         6.9772 
 214   0.0000       0.257180         6.9982 
 215   0.0000       0.259028         7.0485 
 216   0.0000       0.262087         7.1317 
 217   0.0000       0.263964         7.1828 
 218   0.0000       0.265946         7.2368 
 219   0.0000       0.269023         7.3205 
 220   0.0000       0.270151         7.3512 
 221   0.0000       0.271286         7.3821 
 222   0.0000       0.273456         7.4411 
 223   0.0000       0.275806         7.5051 
 224   0.0000       0.278569         7.5803 
 225   0.0000       0.279074         7.5940 
 226   0.0000       0.280007         7.6194 
 227   0.0000       0.283229         7.7071 
 228   0.0000       0.283928         7.7261 
 229   0.0000       0.287427         7.8213 
 230   0.0000       0.288047         7.8382 
 231   0.0000       0.292255         7.9527 
 232   0.0000       0.293987         7.9998 
 233   0.0000       0.294820         8.0225 
 234   0.0000       0.297270         8.0891 
 235   0.0000       0.297944         8.1075 
 236   0.0000       0.300359         8.1732 
 237   0.0000       0.301408         8.2017 
 238   0.0000       0.303167         8.2496 
 239   0.0000       0.304982         8.2990 
 240   0.0000       0.306162         8.3311 
 241   0.0000       0.308113         8.3842 
 242   0.0000       0.309284         8.4160 
 243   0.0000       0.310769         8.4565 
 244   0.0000       0.312721         8.5096 
 245   0.0000       0.314964         8.5706 
 246   0.0000       0.316657         8.6167 
 247   0.0000       0.317661         8.6440 
 248   0.0000       0.320691         8.7264 
 249   0.0000       0.321471         8.7477 
 250   0.0000       0.323546         8.8041 
 251   0.0000       0.325118         8.8469 
 252   0.0000       0.327032         8.8990 
 253   0.0000       0.329279         8.9601 
 254   0.0000       0.331309         9.0154 
 255   0.0000       0.332355         9.0438 
 256   0.0000       0.334429         9.1003 
 257   0.0000       0.336039         9.1441 
 258   0.0000       0.337114         9.1733 
 259   0.0000       0.341104         9.2819 
 260   0.0000       0.342948         9.3321 
 261   0.0000       0.345280         9.3956 
 262   0.0000       0.346646         9.4327 
 263   0.0000       0.348423         9.4811 
 264   0.0000       0.350485         9.5372 
 265   0.0000       0.351483         9.5643 
 266   0.0000       0.353927         9.6308 
 267   0.0000       0.357365         9.7244 
 268   0.0000       0.358688         9.7604 
 269   0.0000       0.359146         9.7729 
 270   0.0000       0.360577         9.8118 
 271   0.0000       0.361882         9.8473 
 272   0.0000       0.366112         9.9624 
 273   0.0000       0.368996        10.0409 
 274   0.0000       0.369272        10.0484 
 275   0.0000       0.370456        10.0806 
 276   0.0000       0.370773        10.0892 
 277   0.0000       0.373600        10.1662 
 278   0.0000       0.374570        10.1926 
 279   0.0000       0.377106        10.2616 
 280   0.0000       0.378711        10.3052 
 281   0.0000       0.381103        10.3703 
 282   0.0000       0.382985        10.4216 
 283   0.0000       0.383724        10.4417 
 284   0.0000       0.385154        10.4806 
 285   0.0000       0.387841        10.5537 
 286   0.0000       0.388973        10.5845 
 287   0.0000       0.390980        10.6391 
 288   0.0000       0.391333        10.6487 
 289   0.0000       0.392618        10.6837 
 290   0.0000       0.394093        10.7238 
 291   0.0000       0.398425        10.8417 
 292   0.0000       0.401285        10.9195 
 293   0.0000       0.404943        11.0191 
 294   0.0000       0.405952        11.0465 
 295   0.0000       0.409134        11.1331 
 296   0.0000       0.411996        11.2110 
 297   0.0000       0.413381        11.2487 
 298   0.0000       0.415786        11.3141 
 299   0.0000       0.417121        11.3504 
 300   0.0000       0.418050        11.3757 
 301   0.0000       0.423522        11.5246 
 302   0.0000       0.424063        11.5393 
 303   0.0000       0.426187        11.5971 
 304   0.0000       0.427088        11.6216 
 305   0.0000       0.429898        11.6981 
 306   0.0000       0.430618        11.7177 
 307   0.0000       0.431940        11.7537 
 308   0.0000       0.432995        11.7824 
 309   0.0000       0.439743        11.9660 
 310   0.0000       0.441932        12.0256 
 311   0.0000       0.444688        12.1006 
 312   0.0000       0.445141        12.1129 
 313   0.0000       0.446889        12.1605 
 314   0.0000       0.449078        12.2200 
 315   0.0000       0.450540        12.2598 
 316   0.0000       0.454543        12.3687 
 317   0.0000       0.456771        12.4294 
 318   0.0000       0.458341        12.4721 
 319   0.0000       0.460437        12.5291 
 320   0.0000       0.462225        12.5778 
 321   0.0000       0.465840        12.6762 
 322   0.0000       0.467708        12.7270 
 323   0.0000       0.468508        12.7487 
 324   0.0000       0.470977        12.8159 
 325   0.0000       0.472004        12.8439 
 326   0.0000       0.472478        12.8568 
 327   0.0000       0.475907        12.9501 
 328   0.0000       0.477060        12.9815 
 329   0.0000       0.478033        13.0079 
 330   0.0000       0.481671        13.1069 
 331   0.0000       0.482662        13.1339 
 332   0.0000       0.483802        13.1649 
 333   0.0000       0.488320        13.2879 
 334   0.0000       0.488596        13.2954 
 335   0.0000       0.490758        13.3542 
 336   0.0000       0.491583        13.3767 
 337   0.0000       0.492426        13.3996 
 338   0.0000       0.495226        13.4758 
 339   0.0000       0.495661        13.4876 
 340   0.0000       0.499821        13.6008 
 341   0.0000       0.503559        13.7025 
 342   0.0000       0.504991        13.7415 
 343   0.0000       0.507136        13.7999 
 344   0.0000       0.508203        13.8289 
 345   0.0000       0.511255        13.9120 
 346   0.0000       0.513439        13.9714 
 347   0.0000       0.513897        13.9838 
 348   0.0000       0.515578        14.0296 
 349   0.0000       0.516397        14.0519 
 350   0.0000       0.519765        14.1435 
 351   0.0000       0.522215        14.2102 
 352   0.0000       0.523243        14.2382 
 353   0.0000       0.526623        14.3301 
 354   0.0000       0.529209        14.4005 
 355   0.0000       0.530792        14.4436 
 356   0.0000       0.532991        14.5034 
 357   0.0000       0.533805        14.5256 
 358   0.0000       0.537887        14.6367 
 359   0.0000       0.539046        14.6682 
 360   0.0000       0.539784        14.6883 
 361   0.0000       0.543229        14.7820 
 362   0.0000       0.544714        14.8224 
 363   0.0000       0.545346        14.8396 
 364   0.0000       0.547946        14.9104 
 365   0.0000       0.550067        14.9681 
 366   0.0000       0.551836        15.0162 
 367   0.0000       0.555401        15.1132 
 368   0.0000       0.557402        15.1677 
 369   0.0000       0.559650        15.2289 
 370   0.0000       0.560464        15.2510 
 371   0.0000       0.563037        15.3210 
 372   0.0000       0.566514        15.4156 
 373   0.0000       0.566931        15.4270 
 374   0.0000       0.567967        15.4552 
 375   0.0000       0.570578        15.5262 
 376   0.0000       0.571659        15.5556 
 377   0.0000       0.572301        15.5731 
 378   0.0000       0.575397        15.6573 
 379   0.0000       0.578297        15.7363 
 380   0.0000       0.579678        15.7738 
 381   0.0000       0.582184        15.8420 
 382   0.0000       0.583909        15.8890 
 383   0.0000       0.588735        16.0203 
 384   0.0000       0.590094        16.0573 
 385   0.0000       0.591067        16.0838 
 386   0.0000       0.593285        16.1441 
 387   0.0000       0.594809        16.1856 
 388   0.0000       0.597381        16.2556 
 389   0.0000       0.600661        16.3448 
 390   0.0000       0.602015        16.3817 
 391   0.0000       0.604244        16.4423 
 392   0.0000       0.606410        16.5013 
 393   0.0000       0.607146        16.5213 
 394   0.0000       0.610779        16.6201 
 395   0.0000       0.613274        16.6880 
 396   0.0000       0.615211        16.7408 
 397   0.0000       0.618220        16.8226 
 398   0.0000       0.620808        16.8931 
 399   0.0000       0.622212        16.9312 
 400   0.0000       0.623399        16.9636 
 401   0.0000       0.624359        16.9897 
 402   0.0000       0.626413        17.0456 
 403   0.0000       0.630144        17.1471 
 404   0.0000       0.633721        17.2444 
 405   0.0000       0.634852        17.2752 
 406   0.0000       0.636533        17.3209 
 407   0.0000       0.639013        17.3884 
 408   0.0000       0.640416        17.4266 
 409   0.0000       0.642761        17.4904 
 410   0.0000       0.644257        17.5311 
 411   0.0000       0.646090        17.5810 
 412   0.0000       0.646735        17.5985 
 413   0.0000       0.648868        17.6566 
 414   0.0000       0.652398        17.7527 
 415   0.0000       0.655415        17.8348 
 416   0.0000       0.656542        17.8654 
 417   0.0000       0.658318        17.9138 
 418   0.0000       0.661528        18.0011 
 419   0.0000       0.661848        18.0098 
 420   0.0000       0.662532        18.0284 
 421   0.0000       0.664072        18.0703 
 422   0.0000       0.666937        18.1483 
 423   0.0000       0.668734        18.1972 
 424   0.0000       0.671333        18.2679 
 425   0.0000       0.673218        18.3192 
 426   0.0000       0.676988        18.4218 
 427   0.0000       0.678356        18.4590 
 428   0.0000       0.680447        18.5159 
 429   0.0000       0.682364        18.5681 
 430   0.0000       0.684232        18.6189 
 431   0.0000       0.687188        18.6993 
 432   0.0000       0.688411        18.7326 
 433   0.0000       0.690109        18.7788 
 434   0.0000       0.692127        18.8337 
 435   0.0000       0.693267        18.8648 
 436   0.0000       0.694921        18.9097 
 437   0.0000       0.695995        18.9390 
 438   0.0000       0.698722        19.0132 
 439   0.0000       0.700637        19.0653 
 440   0.0000       0.704053        19.1582 
 441   0.0000       0.706036        19.2122 
 442   0.0000       0.707206        19.2440 
 443   0.0000       0.709256        19.2998 
 444   0.0000       0.710780        19.3413 
 445   0.0000       0.711868        19.3709 
 446   0.0000       0.713627        19.4188 
 447   0.0000       0.714722        19.4486 
 448   0.0000       0.716933        19.5087 
 449   0.0000       0.718342        19.5471 
 450   0.0000       0.720462        19.6048 
 451   0.0000       0.722163        19.6511 
 452   0.0000       0.725623        19.7452 
 453   0.0000       0.726621        19.7724 
 454   0.0000       0.727046        19.7839 
 455   0.0000       0.728653        19.8276 
 456   0.0000       0.729632        19.8543 
 457   0.0000       0.732144        19.9226 
 458   0.0000       0.733336        19.9551 
 459   0.0000       0.734949        19.9990 
 460   0.0000       0.736398        20.0384 
 461   0.0000       0.737051        20.0562 
 462   0.0000       0.739608        20.1258 
 463   0.0000       0.743322        20.2268 
 464   0.0000       0.746767        20.3206 
 465   0.0000       0.747114        20.3300 
 466   0.0000       0.750170        20.4132 
 467   0.0000       0.751853        20.4589 
 468   0.0000       0.752256        20.4699 
 469   0.0000       0.752499        20.4765 
 470   0.0000       0.756563        20.5871 
 471   0.0000       0.758149        20.6303 
 472   0.0000       0.759260        20.6605 
 473   0.0000       0.762540        20.7498 
 474   0.0000       0.764145        20.7934 
 475   0.0000       0.767060        20.8728 
 476   0.0000       0.768870        20.9220 
 477   0.0000       0.771506        20.9938 
 478   0.0000       0.772509        21.0210 
 479   0.0000       0.775092        21.0913 
 480   0.0000       0.776777        21.1372 
 481   0.0000       0.779208        21.2033 
 482   0.0000       0.783040        21.3076 
 483   0.0000       0.783516        21.3206 
 484   0.0000       0.785261        21.3680 
 485   0.0000       0.787394        21.4261 
 486   0.0000       0.789444        21.4819 
 487   0.0000       0.790553        21.5120 
 488   0.0000       0.792999        21.5786 
 489   0.0000       0.794014        21.6062 
 490   0.0000       0.795001        21.6331 
 491   0.0000       0.796864        21.6838 
 492   0.0000       0.798728        21.7345 
 493   0.0000       0.800935        21.7946 
 494   0.0000       0.803646        21.8683 
 495   0.0000       0.808248        21.9935 
 496   0.0000       0.808514        22.0008 
 497   0.0000       0.810485        22.0544 
 498   0.0000       0.813073        22.1248 
 499   0.0000       0.813950        22.1487 
 500   0.0000       0.815137        22.1810 
 501   0.0000       0.817222        22.2378 
 502   0.0000       0.820050        22.3147 
 503   0.0000       0.823067        22.3968 
 504   0.0000       0.824717        22.4417 
 505   0.0000       0.825001        22.4494 
 506   0.0000       0.825750        22.4698 
 507   0.0000       0.827063        22.5055 
 508   0.0000       0.829082        22.5605 
 509   0.0000       0.832700        22.6589 
 510   0.0000       0.836067        22.7505 
 511   0.0000       0.838501        22.8168 
 512   0.0000       0.840080        22.8597 
 513   0.0000       0.842831        22.9346 
 514   0.0000       0.843984        22.9660 
 515   0.0000       0.847403        23.0590 
 516   0.0000       0.850058        23.1313 
 517   0.0000       0.852002        23.1842 
 518   0.0000       0.854706        23.2577 
 519   0.0000       0.856172        23.2976 
 520   0.0000       0.858917        23.3723 
 521   0.0000       0.860015        23.4022 
 522   0.0000       0.861109        23.4320 
 523   0.0000       0.864084        23.5129 
 524   0.0000       0.866660        23.5830 
 525   0.0000       0.869097        23.6493 
 526   0.0000       0.870611        23.6905 
 527   0.0000       0.872652        23.7461 
 528   0.0000       0.877423        23.8759 
 529   0.0000       0.879326        23.9277 
 530   0.0000       0.883435        24.0395 
 531   0.0000       0.883807        24.0496 
 532   0.0000       0.886025        24.1100 
 533   0.0000       0.887891        24.1607 
 534   0.0000       0.888630        24.1809 
 535   0.0000       0.894102        24.3297 
 536   0.0000       0.894382        24.3374 
 537   0.0000       0.896978        24.4080 
 538   0.0000       0.898601        24.4522 
 539   0.0000       0.900843        24.5132 
 540   0.0000       0.903002        24.5719 
 541   0.0000       0.905291        24.6342 
 542   0.0000       0.908190        24.7131 
 543   0.0000       0.910415        24.7737 
 544   0.0000       0.912093        24.8193 
 545   0.0000       0.915998        24.9256 
 546   0.0000       0.919409        25.0184 
 547   0.0000       0.920617        25.0513 
 548   0.0000       0.922991        25.1159 
 549   0.0000       0.925435        25.1824 
 550   0.0000       0.925832        25.1932 
 551   0.0000       0.933921        25.4133 
 552   0.0000       0.934939        25.4410 
 553   0.0000       0.937328        25.5060 
 554   0.0000       0.938181        25.5292 
 555   0.0000       0.943563        25.6756 
 556   0.0000       0.945565        25.7301 
 557   0.0000       0.947913        25.7940 
 558   0.0000       0.950317        25.8594 
 559   0.0000       0.954538        25.9743 
 560   0.0000       0.956316        26.0227 
 561   0.0000       0.957656        26.0591 
 562   0.0000       0.959907        26.1204 
 563   0.0000       0.962199        26.1828 
 564   0.0000       0.963692        26.2234 
 565   0.0000       0.966234        26.2926 
 566   0.0000       0.968437        26.3525 
 567   0.0000       0.974417        26.5152 
 568   0.0000       0.976694        26.5772 
 569   0.0000       0.977005        26.5857 
 570   0.0000       0.978615        26.6295 
 571   0.0000       0.984523        26.7902 
 572   0.0000       0.985571        26.8188 
 573   0.0000       0.987023        26.8583 
 574   0.0000       0.990407        26.9503 
 575   0.0000       0.992469        27.0065 
 576   0.0000       0.996549        27.1175 
 577   0.0000       0.998406        27.1680 
 578   0.0000       1.003050        27.2944 
 579   0.0000       1.005461        27.3600 
 580   0.0000       1.009217        27.4622 
 581   0.0000       1.012009        27.5382 
 582   0.0000       1.012952        27.5638 
 583   0.0000       1.017935        27.6994 
 584   0.0000       1.019158        27.7327 
 585   0.0000       1.019885        27.7525 
 586   0.0000       1.022166        27.8145 
 587   0.0000       1.024758        27.8851 
 588   0.0000       1.030390        28.0383 
 589   0.0000       1.032825        28.1046 
 590   0.0000       1.035170        28.1684 
 591   0.0000       1.037343        28.2275 
 592   0.0000       1.043988        28.4084 
 593   0.0000       1.049041        28.5458 
 594   0.0000       1.049926        28.5700 
 595   0.0000       1.054951        28.7067 
 596   0.0000       1.057184        28.7674 
 597   0.0000       1.060689        28.8628 
 598   0.0000       1.062902        28.9230 
 599   0.0000       1.066846        29.0304 
 600   0.0000       1.069031        29.0898 
 601   0.0000       1.073185        29.2028 
 602   0.0000       1.077417        29.3180 
 603   0.0000       1.080778        29.4095 
 604   0.0000       1.082335        29.4518 
 605   0.0000       1.085580        29.5401 
 606   0.0000       1.088166        29.6105 
 607   0.0000       1.089372        29.6433 
 608   0.0000       1.091290        29.6955 
 609   0.0000       1.096914        29.8485 
 610   0.0000       1.101425        29.9713 
 611   0.0000       1.105661        30.0866 
 612   0.0000       1.109094        30.1800 
 613   0.0000       1.110358        30.2144 
 614   0.0000       1.111758        30.2525 
 615   0.0000       1.116146        30.3719 
 616   0.0000       1.117496        30.4086 
 617   0.0000       1.120943        30.5024 
 618   0.0000       1.122518        30.5453 
 619   0.0000       1.128256        30.7014 
 620   0.0000       1.130762        30.7696 
[...]
      px      :     0.912474
      py      :     0.884162
      dz2     :     0.142141  d :     0.544579
      dxz     :     0.090024
      dyz     :     0.123752
      dx2y2   :     0.084722
      dxy     :     0.103940
      f0      :     0.004481  f :     0.031250
      f+1     :     0.005095
      f-1     :     0.006327
      f+2     :     0.003747
      f-2     :     0.004787
      f+3     :     0.004878
      f-3     :     0.001933
 66 H s       :     0.683705  s :     0.683705
      pz      :     0.076173  p :     0.306519
      px      :     0.146444
      py      :     0.083902
      dz2     :     0.002925  d :     0.029137
      dxz     :     0.008673
      dyz     :     0.001110
      dx2y2   :     0.007368
      dxy     :     0.009061
 67 H s       :     0.691492  s :     0.691492
      pz      :     0.114255  p :     0.311231
      px      :     0.087036
      py      :     0.109940
      dz2     :     0.008943  d :     0.029192
      dxz     :     0.006691
      dyz     :     0.007117
      dx2y2   :     0.003407
      dxy     :     0.003035
 68 H s       :     0.697963  s :     0.697963
      pz      :     0.077268  p :     0.279397
      px      :     0.088898
      py      :     0.113231
      dz2     :     0.002948  d :     0.029040
      dxz     :     0.002156
      dyz     :     0.007067
      dx2y2   :     0.009104
      dxy     :     0.007766


                      *****************************
                      * MAYER POPULATION ANALYSIS *
                      *****************************

  NA   - Mulliken gross atomic population
  ZA   - Total nuclear charge
  QA   - Mulliken gross atomic charge
  VA   - Mayer's total valence
  BVA  - Mayer's bonded valence
  FA   - Mayer's free valence

  ATOM       NA         ZA         QA         VA         BVA        FA
  0 W     14.2379    14.0000    -0.2379     3.3124     3.3124    -0.0000
  1 C      5.6455     6.0000     0.3545     3.9122     3.9122     0.0000
  2 O      8.4949     8.0000    -0.4949     1.9038     1.9038     0.0000
  3 C      5.2556     6.0000     0.7444     3.8696     3.8696    -0.0000
  4 O      8.5814     8.0000    -0.5814     1.8886     1.8886    -0.0000
  5 C      5.6648     6.0000     0.3352     3.4627     3.4627     0.0000
  6 O      8.5054     8.0000    -0.5054     1.9776     1.9776     0.0000
  7 P     14.8961    15.0000     0.1039     2.9285     2.9285     0.0000
  8 C      5.2307     6.0000     0.7693     3.2158     3.2158    -0.0000
  9 H      0.6829     1.0000     0.3171     0.5643     0.5643     0.0000
 10 C      5.0716     6.0000     0.9284     2.9432     2.9432    -0.0000
 11 H      0.8765     1.0000     0.1235     0.8448     0.8448     0.0000
 12 C      5.0593     6.0000     0.9407     3.0458     3.0458    -0.0000
 13 H      0.8508     1.0000     0.1492     0.8012     0.8012     0.0000
 14 C      4.7705     6.0000     1.2295     2.1354     2.1354     0.0000
 15 P     15.3230    15.0000    -0.3230     3.1220     3.1220    -0.0000
 16 H      0.6047     1.0000     0.3953     0.5932     0.5932     0.0000
 17 H      0.7830     1.0000     0.2170     0.7963     0.7963    -0.0000
 18 C      5.0538     6.0000     0.9462     2.5440     2.5440    -0.0000
 19 H      0.6654     1.0000     0.3346     0.5645     0.5645    -0.0000
 20 C      6.8356     6.0000    -0.8356     3.8627     3.8627     0.0000
 21 H      0.8578     1.0000     0.1422     0.9911     0.9911     0.0000
 22 H      0.9352     1.0000     0.0648     1.0779     1.0779    -0.0000
 23 H      0.9384     1.0000     0.0616     1.0670     1.0670    -0.0000
 24 C      6.8444     6.0000    -0.8444     3.8798     3.8798     0.0000
 25 H      0.9562     1.0000     0.0438     1.0681     1.0681     0.0000
 26 H      0.8385     1.0000     0.1615     0.9977     0.9977     0.0000
 27 H      0.8922     1.0000     0.1078     1.0414     1.0414     0.0000
 28 C      6.8909     6.0000    -0.8909     3.8455     3.8455     0.0000
 29 H      0.8681     1.0000     0.1319     1.0004     1.0004     0.0000
 30 H      0.8570     1.0000     0.1430     1.0118     1.0118     0.0000
 31 H      0.9307     1.0000     0.0693     1.0767     1.0767     0.0000
 32 C      6.7698     6.0000    -0.7698     3.8251     3.8251    -0.0000
 33 H      0.8473     1.0000     0.1527     0.9686     0.9686    -0.0000
 34 H      0.9587     1.0000     0.0413     1.0576     1.0576    -0.0000
 35 H      0.9390     1.0000     0.0610     1.0590     1.0590    -0.0000
 36 C      6.8872     6.0000    -0.8872     3.9029     3.9029    -0.0000
 37 H      0.8880     1.0000     0.1120     1.0548     1.0548    -0.0000
 38 H      0.8729     1.0000     0.1271     1.0220     1.0220    -0.0000
 39 H      0.9789     1.0000     0.0211     1.0240     1.0240    -0.0000
 40 C      6.8005     6.0000    -0.8005     3.9260     3.9260     0.0000
 41 H      1.0357     1.0000    -0.0357     1.0413     1.0413     0.0000
 42 H      0.8636     1.0000     0.1364     1.0383     1.0383    -0.0000
 43 H      0.8609     1.0000     0.1391     1.0441     1.0441     0.0000
 44 C      6.9112     6.0000    -0.9112     3.8317     3.8317    -0.0000
 45 H      0.8674     1.0000     0.1326     1.0169     1.0169     0.0000
 46 H      0.9147     1.0000     0.0853     1.0518     1.0518    -0.0000
 47 H      0.8557     1.0000     0.1443     1.0104     1.0104    -0.0000
 48 C      6.7250     6.0000    -0.7250     3.8472     3.8472    -0.0000
 49 H      0.9500     1.0000     0.0500     1.0591     1.0591    -0.0000
 50 C      6.7312     6.0000    -0.7312     4.8479     4.8479     0.0000
 51 H      0.9440     1.0000     0.0560     1.0503     1.0503    -0.0000
 52 H      0.8513     1.0000     0.1487     0.9882     0.9882     0.0000
 53 C      6.8697     6.0000    -0.8697     3.8213     3.8213     0.0000
 54 H      1.1929     1.0000    -0.1929     1.2694     1.2694     0.0000
 55 H      0.8938     1.0000     0.1062     0.9464     0.9464     0.0000
 56 H      0.8622     1.0000     0.1378     1.0152     1.0152     0.0000
 57 C      5.1354     6.0000     0.8646     2.8921     2.8921    -0.0000
 58 H      0.8562     1.0000     0.1438     1.0123     1.0123    -0.0000
 59 H      0.9136     1.0000     0.0864     1.0172     1.0172    -0.0000
 60 H      0.8942     1.0000     0.1058     1.0398     1.0398     0.0000
 61 C      6.7714     6.0000    -0.7714     3.9233     3.9233    -0.0000
 62 H      0.9571     1.0000     0.0429     1.0742     1.0742    -0.0000
 63 H      0.8379     1.0000     0.1621     0.9741     0.9741    -0.0000
 64 H      0.9360     1.0000     0.0640     1.0359     1.0359    -0.0000
 65 C      6.8103     6.0000    -0.8103     4.0866     4.0866    -0.0000
 66 H      0.9442     1.0000     0.0558     1.0804     1.0804     0.0000
 67 H      0.9318     1.0000     0.0682     1.0434     1.0434    -0.0000
 68 H      0.8418     1.0000     0.1582     0.9838     0.9838    -0.0000

  Mayer bond orders larger than 0.100000
B(  0-W ,  1-C ) :   0.7584 B(  0-W ,  3-C ) :   1.6017 B(  0-W ,  5-C ) :   0.1636 
B(  0-W ,  7-P ) :  -0.3957 B(  0-W , 10-C ) :   0.1346 B(  0-W , 12-C ) :   0.1002 
B(  0-W , 14-C ) :   0.1726 B(  0-W , 18-C ) :   0.2635 B(  1-C ,  2-O ) :   1.8151 
B(  1-C ,  3-C ) :   0.1289 B(  1-C ,  5-C ) :   0.6662 B(  1-C ,  7-P ) :   0.3939 
B(  1-C , 15-P ) :   0.2705 B(  1-C , 50-C ) :   0.1351 B(  1-C , 54-H ) :  -0.1135 
B(  3-C ,  4-O ) :   1.7300 B(  3-C ,  5-C ) :   0.2821 B(  3-C ,  7-P ) :   0.1078 
B(  3-C , 15-P ) :   0.2772 B(  5-C ,  6-O ) :   1.8793 B(  5-C ,  7-P ) :   0.3942 
B(  5-C , 15-P ) :   0.1814 B(  7-P ,  8-C ) :   0.9486 B(  7-P , 10-C ) :   0.6933 
B(  7-P , 12-C ) :   0.7721 B(  7-P , 15-P ) :  -0.3025 B(  7-P , 24-C ) :   0.1154 
B(  7-P , 40-C ) :   0.1178 B(  7-P , 54-H ) :  -0.1165 B(  8-C ,  9-H ) :   0.8117 
B(  8-C , 10-C ) :   0.2863 B(  8-C , 12-C ) :   0.3118 B(  8-C , 36-C ) :   0.5688 
B(  8-C , 39-H ) :  -0.1380 B(  8-C , 40-C ) :   0.5972 B(  8-C , 41-H ) :  -0.1235 
B( 10-C , 11-H ) :   0.9096 B( 10-C , 12-C ) :   0.2889 B( 10-C , 20-C ) :   0.5577 
B( 10-C , 24-C ) :   0.4981 B( 10-C , 25-H ) :  -0.1094 B( 10-C , 40-C ) :   0.1291 
B( 11-H , 20-C ) :  -0.1048 B( 12-C , 13-H ) :   0.8781 B( 12-C , 28-C ) :   0.5064 
B( 12-C , 31-H ) :  -0.1041 B( 12-C , 32-C ) :   0.5867 B( 12-C , 36-C ) :   0.1589 
B( 14-C , 15-P ) :   0.2055 B( 14-C , 17-H ) :   0.8688 B( 14-C , 18-C ) :   0.2277 
B( 14-C , 44-C ) :   0.4783 B( 14-C , 46-H ) :  -0.1075 B( 14-C , 48-C ) :   0.5503 
B( 14-C , 57-C ) :   0.2218 B( 15-P , 16-H ) :  -0.2166 B( 15-P , 18-C ) :   0.6623 
B( 15-P , 44-C ) :   0.1102 B( 15-P , 48-C ) :   0.1074 B( 15-P , 50-C ) :   0.3888 
B( 15-P , 57-C ) :   0.8089 B( 15-P , 61-C ) :   0.2194 B( 15-P , 65-C ) :   0.2431 
B( 16-H , 57-C ) :   0.8291 B( 18-C , 19-H ) :   0.7751 B( 18-C , 57-C ) :   0.2218 
B( 18-C , 61-C ) :   0.4017 B( 18-C , 62-H ) :  -0.1234 B( 18-C , 65-C ) :   0.5381 
B( 18-C , 66-H ) :  -0.1031 B( 19-H , 61-C ) :  -0.1181 B( 20-C , 21-H ) :   1.0424 
B( 20-C , 22-H ) :   1.0817 B( 20-C , 23-H ) :   1.0290 B( 20-C , 24-C ) :   0.1399 
B( 24-C , 25-H ) :   1.0707 B( 24-C , 26-H ) :   1.0631 B( 24-C , 27-H ) :   0.9989 
B( 28-C , 29-H ) :   0.9761 B( 28-C , 30-H ) :   1.0742 B( 28-C , 31-H ) :   1.0780 
B( 28-C , 32-C ) :   0.1252 B( 32-C , 33-H ) :   1.0253 B( 32-C , 34-H ) :   1.0403 
B( 32-C , 35-H ) :   1.0656 B( 36-C , 37-H ) :   0.9879 B( 36-C , 38-H ) :   1.0673 
B( 36-C , 39-H ) :   1.0432 B( 40-C , 41-H ) :   1.0445 B( 40-C , 42-H ) :   1.0447 
B( 40-C , 43-H ) :   0.9675 B( 44-C , 45-H ) :   0.9959 B( 44-C , 46-H ) :   1.1023 
B( 44-C , 47-H ) :   1.0646 B( 48-C , 49-H ) :   1.0547 B( 48-C , 51-H ) :   1.0855 
B( 48-C , 52-H ) :   1.0321 B( 50-C , 53-C ) :   0.1442 B( 50-C , 54-H ) :   1.3739 
B( 50-C , 55-H ) :   0.8937 B( 50-C , 56-H ) :   1.0375 B( 50-C , 57-C ) :   0.6612 
B( 53-C , 57-C ) :   0.5138 B( 53-C , 58-H ) :   1.0322 B( 53-C , 59-H ) :   1.0770 
B( 53-C , 60-H ) :   1.0458 B( 54-H , 57-C ) :  -0.1099 B( 57-C , 60-H ) :  -0.1102 
B( 61-C , 62-H ) :   1.0645 B( 61-C , 63-H ) :   1.0283 B( 61-C , 64-H ) :   1.0634 
B( 61-C , 65-C ) :   0.1439 B( 65-C , 66-H ) :   1.1048 B( 65-C , 67-H ) :   1.0018 
B( 65-C , 68-H ) :   1.0240 

-------
TIMINGS
-------

Total SCF time: 0 days 0 hours 11 min 51 sec 

Total time                  ....     711.341 sec
Sum of individual times     ....     707.320 sec  ( 99.4%)

Fock matrix formation       ....     677.888 sec  ( 95.3%)
  XC integration            ....      31.579 sec  (  4.7% of F)
    Basis function eval.    ....       4.962 sec  ( 15.7% of XC)
    Density eval.           ....      13.934 sec  ( 44.1% of XC)
    XC-Functional eval.     ....       0.135 sec  (  0.4% of XC)
    XC-Potential eval.      ....       9.074 sec  ( 28.7% of XC)
Diagonalization             ....       7.897 sec  (  1.1%)
Density matrix formation    ....       0.636 sec  (  0.1%)
Population analysis         ....       1.043 sec  (  0.1%)
Initial guess               ....       5.311 sec  (  0.7%)
Orbital Transformation      ....       0.000 sec  (  0.0%)
Orbital Orthonormalization  ....       0.000 sec  (  0.0%)
DIIS solution               ....      11.531 sec  (  1.6%)
Grid generation             ....       3.013 sec  (  0.4%)


           ************************************************************
           *        Program running with 24 parallel MPI-processes    *
           *              working on a common directory               *
           ************************************************************

------------------------------------------------------------------------------
                                ORCA  MP2 
------------------------------------------------------------------------------

Freezing NCore=68 chemical core electrons

-------------
RI-MP2 ENERGY
-------------
Dimension of the basis                    ... 1766
Memory devoted to MP2                     ... 5000 MB   
Data format for buffers                   ... DOUBLE
Compression type for matrix containers    ... UNCOMPRESSED
Overall scaling of the MP2 energy         ...   2.700e-01
Calculating two index integrals           ... done (    0.132 sec)
Cholesky decomposition of V**-1           ... done (    2.078 sec)

-----------------
RI-TRANSFORMATION (AUX index driven)
-----------------

Dimension of the orbital-basis         ... 1766
Dimension of the aux-basis             ... 4317
Transformation of internal/external MOs...   34- 117 to  118-1765
Number Format for Storage              ... Double (8 Byte)
Integral mode                          ... Direct

First Phase: integral generation and transformation of MO indices
  Aux angular momentum 0               ... done (    1.759 sec)
  Aux angular momentum 1               ... done (    3.350 sec)
  Aux angular momentum 2               ... done (    4.211 sec)
  Aux angular momentum 3               ... done (    3.378 sec)
  Aux angular momentum 4               ... done (    1.119 sec)
  Aux angular momentum 5               ... done (    0.758 sec)
  Aux angular momentum 6               ... done (    0.934 sec)
Closing buffer VIA ( 4.45 GB; CompressionRatio= 1.00)
  Phase 1 completed in    15.815 sec
Second Phase: sorting and transformation of aux index

IA-Transformation
Memory available                       ... 4607 MB 
Max. # MO pairs treated in a batch     ... 4    
# of internal orbitals                 ... 84
# batches for internal orbitals        ... 1
Closing buffer IAV ( 0.21 GB; CompressionRatio= 1.00)
(ia|v) transformation done in     5.308 sec

  Phase 2 completed in    12.628 sec
RI-Integral transformation completed in    28.530 sec
Opening buffers                              ... done

Starting loop over batches of integrals:

Operator 0  - window                       ... ( 34-117)x(118-1765)
Operator 0  - Memory available             ...  5000 MB
Operator 0  - Memory needed per MO         ...  54.3 MB
Operator 0  - Number of orbitals per batch ... 4
Operator 0  - Number of batches            ... 1

OPERATOR  0   PASS   0:  MOs    34 ...   37 +   38 ...   41 +   42 ...   45 +   46 ...   49
                            +   50 ...   53 +   54 ...   57 +   58 ...   61 +   62 ...   65
                            +   66 ...   69 +   70 ...   73 +   74 ...   77 +   78 ...   81
                            +   82 ...   85 +   86 ...   89 +   90 ...   93 +   94 ...   97
                            +   98 ...  101 +  102 ...  105 +  106 ...  109 +  110 ...  113
                            +  114 ...  117
  Reading integrals       ... ok
  Internal MO  36
Time spent in pair loops =     4.523 sec
Deleting buffer (Ka|jb)[aa] ...done

-----------------------------------------------
 RI-MP2 CORRELATION ENERGY:     -1.762374119 Eh
-----------------------------------------------


-------
TIMINGS
-------

Total time                :  159.222 sec
Integral trafo            :   28.559 sec ( 17.9%)
I/O of integrals          :    0.258 sec (  0.2%)
K(i,j) Operators          :    3.672 sec (  2.3%)
T(i,j) pair energies      :    0.364 sec (  0.2%)
V-calculation             :    0.132 sec (  0.1%)
V**(-1/2)                 :    2.078 sec (  1.3%)
Gamma(ia|P)               :    0.000 sec (  0.0%)
Gamma-Trafo               :    0.000 sec (  0.0%)
D(virtual)                :    0.000 sec (  0.0%)
D(internal)               :    0.000 sec (  0.0%)
W(virtual)                :    0.000 sec (  0.0%)
W(internal)               :    0.000 sec (  0.0%)
L(virtual)                :    0.000 sec (  0.0%)
L(internal)               :    0.000 sec (  0.0%)
G(D)                      :    0.000 sec (  0.0%)
G(Z)                      :    0.000 sec (  0.0%)
Z-Vector Solution         :    0.000 sec (  0.0%)
Z-Vector Solution         :    0.000 sec (  0.0%)
3-Index Derivative 
+ Separable RIJ part      :    0.000 sec (  0.0%)
2-Index Derivative 
+ Separable RIJ part      :    0.000 sec (  0.0%)
Separable Gradient (X)    :    0.000 sec (  0.0%)


---------------------------------------
MP2 TOTAL ENERGY:    -1800.310186624 Eh
---------------------------------------


-------------------------------------------------------------------------------
                          DFT DISPERSION CORRECTION                            
                                                                               
                              DFTD3 V3.1  Rev 1                                
                          USING Becke-Johnson damping                          
-------------------------------------------------------------------------------
The B2PLYP functional is recognized
Active option DFTDOPT                   ...         4   

molecular C6(AA) [au] = 50197.659412 


            DFT-D V3
 parameters
 s6 scaling factor         :     0.6400 
 a1 scaling factor         :     0.3065 
 s8 scaling factor         :     0.9147 
 a2 scaling factor         :     5.0570 
 ad hoc parameters k1-k3   :    16.0000     1.3333    -4.0000 

 Edisp/kcal,au: -61.369646620602  -0.097798746650 
 E6   /kcal   : -32.377033155 
 E8   /kcal   : -28.992613466 
 % E8         :  47.242594772 

-------------------------   ----------------
Dispersion correction           -0.097798747
-------------------------   ----------------


-------------------------   --------------------
FINAL SINGLE POINT ENERGY     -1800.407985370978
-------------------------   --------------------


                            ***************************************
                            *     ORCA property calculations      *
                            ***************************************


  WARNING: The energy has been calculated at the MP2 level but the densities
           used in the property calculations are still SCF densities
           MP2 response densities have not been calculated 
           use %mp2 Density relaxed end
           or  %mp2 Density unrelaxed end

                                    ---------------------
                                    Active property flags
                                    ---------------------
   (+) Dipole Moment


------------------------------------------------------------------------------
                       ORCA ELECTRIC PROPERTIES CALCULATION
------------------------------------------------------------------------------

Dipole Moment Calculation                       ... on
Quadrupole Moment Calculation                   ... off
Polarizability Calculation                      ... off
GBWName                                         ... MOR09_ed07.gbw
Electron density file                           ... MOR09_ed07.scfp
The origin for moment calculation is the CENTER OF MASS  = ( 0.024778,  0.027164 -0.048519)

-------------
DIPOLE MOMENT
-------------
                                X             Y             Z
Electronic contribution:     17.80535      16.06262     -19.90557
Nuclear contribution   :    -17.42159     -16.73751      21.91193
                        -----------------------------------------
Total Dipole Moment    :      0.38376      -0.67488       2.00636
                        -----------------------------------------
Magnitude (a.u.)       :      2.15133
Magnitude (Debye)      :      5.46825



--------------------
Rotational spectrum 
--------------------
 
Rotational constants in cm-1:     0.007992     0.003859     0.003786 
Rotational constants in MHz :   239.602072   115.683770   113.510152 

 Dipole components along the rotational axes: 
x,y,z [a.u.] :     0.384893    -0.506961     2.055011 
x,y,z [Debye]:     0.978321    -1.288593     5.223422 

 

Timings for individual modules:

Sum of individual times         ...      887.378 sec (=  14.790 min)
GTO integral calculation        ...       14.820 sec (=   0.247 min)   1.7 %
SCF iterations                  ...      711.894 sec (=  11.865 min)  80.2 %
MP2 module                      ...      160.663 sec (=   2.678 min)  18.1 %
                             ****ORCA TERMINATED NORMALLY****
TOTAL RUN TIME: 0 days 0 hours 14 minutes 48 seconds 407 msec
