
                                 *****************
                                 * O   R   C   A *
                                 *****************

           --- An Ab Initio, DFT and Semiempirical electronic structure package ---

                  #######################################################
                  #                        -***-                        #
                  #          Department of theory and spectroscopy      #
                  #               Directorship: Frank Neese             #
                  #        Max Planck Institute fuer Kohlenforschung    #
                  #                Kaiser Wilhelm Platz 1               #
                  #                 D-45470 Muelheim/Ruhr               #
                  #                      Germany                        #
                  #                                                     #
                  #                  All rights reserved                #
                  #                        -***-                        #
                  #######################################################


                         Program Version 4.2.0 -  RELEASE  -


 With contributions from (in alphabetic order):
   Daniel Aravena         : Magnetic Suceptibility
   Michael Atanasov       : Ab Initio Ligand Field Theory (pilot matlab implementation)
   Alexander A. Auer      : GIAO ZORA, VPT2
   Ute Becker             : Parallelization
   Giovanni Bistoni       : ED, misc. LED, open-shell LED, HFLED
   Martin Brehm           : Molecular dynamics
   Dmytro Bykov           : SCF Hessian
   Vijay G. Chilkuri      : MRCI spin determinant printing, contributions to CSF-ICE
   Dipayan Datta          : RHF DLPNO-CCSD density
   Achintya Kumar Dutta   : EOM-CC, STEOM-CC
   Dmitry Ganyushin       : Spin-Orbit,Spin-Spin,Magnetic field MRCI
   Miquel Garcia          : C-PCM Hessian, Gaussian charge scheme
   Yang Guo               : DLPNO-NEVPT2, CIM, IAO-localization
   Andreas Hansen         : Spin unrestricted coupled pair/coupled cluster methods
   Benjamin Helmich-Paris : CASSCF linear response (MC-RPA)
   Lee Huntington         : MR-EOM, pCC
   Robert Izsak           : Overlap fitted RIJCOSX, COSX-SCS-MP3, EOM
   Christian Kollmar      : KDIIS, OOCD, Brueckner-CCSD(T), CCSD density
   Simone Kossmann        : Meta GGA functionals, TD-DFT gradient, OOMP2, MP2 Hessian
   Martin Krupicka        : AUTO-CI
   Lucas Lang             : DCDCAS
   Dagmar Lenk            : GEPOL surface, SMD
   Dimitrios Liakos       : Extrapolation schemes; Compound Job, initial MDCI parallelization
   Dimitrios Manganas     : Further ROCIS development; embedding schemes
   Dimitrios Pantazis     : SARC Basis sets
   Taras Petrenko         : DFT Hessian,TD-DFT gradient, ASA, ECA, R-Raman, ABS, FL, XAS/XES, NRVS
   Peter Pinski           : DLPNO-MP2, DLPNO-MP2 Gradient
   Christoph Reimann      : Effective Core Potentials
   Marius Retegan         : Local ZFS, SOC
   Christoph Riplinger    : Optimizer, TS searches, QM/MM, DLPNO-CCSD(T), (RO)-DLPNO pert. Triples
   Tobias Risthaus        : Range-separated hybrids, TD-DFT gradient, RPA, STAB
   Michael Roemelt        : Original ROCIS implementation
   Masaaki Saitow         : Open-shell DLPNO-CCSD energy and density
   Barbara Sandhoefer     : DKH picture change effects
   Avijit Sen             : IP-ROCIS
   Kantharuban Sivalingam : CASSCF convergence, NEVPT2, FIC-MRCI
   Bernardo de Souza      : ESD, SOC TD-DFT
   Georgi Stoychev        : AutoAux, RI-MP2 NMR
   Willem Van den Heuvel  : Paramagnetic NMR
   Boris Wezisla          : Elementary symmetry handling
   Frank Wennmohs         : Technical directorship


 We gratefully acknowledge several colleagues who have allowed us to
 interface, adapt or use parts of their codes:
   Stefan Grimme, W. Hujo, H. Kruse,             : VdW corrections, initial TS optimization,
                  C. Bannwarth                     DFT functionals, gCP, sTDA/sTD-DF
   Ed Valeev, F. Pavosevic, A. Kumar             : LibInt (2-el integral package), F12 methods
   Garnet Chan, S. Sharma, J. Yang, R. Olivares  : DMRG
   Ulf Ekstrom                                   : XCFun DFT Library
   Mihaly Kallay                                 : mrcc  (arbitrary order and MRCC methods)
   Andreas Klamt, Michael Diedenhofen            : otool_cosmo (COSMO solvation model)
   Jiri Pittner, Ondrej Demel                    : Mk-CCSD
   Frank Weinhold                                : gennbo (NPA and NBO analysis)
   Christopher J. Cramer and Donald G. Truhlar   : smd solvation model
   Lars Goerigk                                  : TD-DFT with DH, B97 family of functionals
   V. Asgeirsson, H. Jonsson                     : NEB implementation
   FAccTs GmbH                                   : IRC, NEB, NEB-TS, Multilevel, MM, QM/MM, CI optimization
   S Lehtola, MJT Oliveira, MAL Marques          : LibXC Library


 Your calculation uses the libint2 library for the computation of 2-el integrals
 For citations please refer to: http://libint.valeyev.net

 Your ORCA version has been built with support for libXC version: 4.2.3
 For citations please refer to: https://tddft.org/programs/libxc/

 This ORCA versions uses:
   CBLAS   interface :  Fast vector & matrix operations
   LAPACKE interface :  Fast linear algebra routines
   SCALAPACK package :  Parallel linear algebra routines


Your calculation utilizes the atom-pairwise dispersion correction
with the Becke-Johnson damping scheme (D3BJ)
Cite in your paper:
S.Grimme, S.Ehrlich, L.Goerigk, J Comput Chem, (2011), 32, 1456–1465 
S.Grimme, J.Antony, S.Ehrlich and H.Krieg, J.Chem.Phys., 132, (2010), 154104 
   

----- Orbital basis set information -----
Your calculation utilizes the basis: def2-TZVPPD
   F. Weigend and R. Ahlrichs, Phys. Chem. Chem. Phys. 7, 3297 (2005).
   D. Rappoport and F. Furche, J. Chem. Phys. 133 134105 (2010).

----- AuxC basis set information -----
Your calculation utilizes the auxiliary basis: def2-TZVPPD/C
   A. Hellweg, C. Hattig, S. Hofener and W. Klopper, Theor. Chem. Acc. 117, 587 (2007).

----- AuxJK basis set information -----
Your calculation utilizes the auxiliary basis: def2/JK
   H-Ba, Hf-Rn: F. Weigend, J. Comput. Chem. 29, 167 (2008).

cite the ECPs for Ir [Def2-ECP] as follows:
Ce-Yb(ecp-28): M. Dolg, H. Stoll, H.Preuss, J. Chem. Phys., 1989, 90, 1730-1734.
Y-Cd(ecp-28), Hf-Hg(ecp-46): D. Andrae,U. Haeussermann, M. Dolg, H. Stoll, H. Preuss, Theor. Chim. Acta, 1990, 77, 123-141.
In-Sb(ecp-28), Tl-Bi(ecp-46): B. Metz, H. Stoll, M. Dolg, J. Chem. Phys., 2000, 113, 2563-2569.
Te-Xe(ecp-28), Po-Rn(ecp-46): K. A. Peterson, D. Figgen, E. Goll, H. Stoll, M. Dolg, J. Chem. Phys., 2003, 119, 11113-11123.
Rb(ecp-28), Cs(ecp-46): T. Leininger, A. Nicklass, W. Kuechle, H. Stoll, M. Dolg, A. Bergner, Chem. Phys. Lett., 1996, 255, 274-280.
Sr(ecp-28), Ba(ecp-46): M. Kaupp, P. V. Schleyer, H. Stoll and H. Preuss, J. Chem. Phys., 1991, 94, 1360-1366.
La(ecp-46): M. Dolg, H. Stoll, A. Savin, H. Preuss, Theor. Chim. Acta, 1989, 75, 173-194.
Lu(ecp-28): X. Cao, M. Dolg, J. Chem. Phys., 2001, 115, 7348-7355.

ECP parameters for Ir [Def2-ECP] have been obtained from:
TURBOMOLE (7.0.2)

================================================================================
                                        WARNINGS
                       Please study these warnings very carefully!
================================================================================


WARNING: No MP2 level density has been requested!
         To caclulate MP2 level properties use
         %mp2 Density relaxed end
         or
         %mp2 Density unrelaxed end
         Otherwise for double-hybrid DFT only the energy is correct!

WARNING: The frozen-core approximation is turned on by default for 
         the MP2 part of double-hybrid DFT.

INFO   : the flag for use of LIBINT has been found!

================================================================================
                                       INPUT FILE
================================================================================
NAME = MOR12_ed18.in
|  1> #
|  2> # MOR12_ed18 ri-B2PLYP-D3BJ/Def2-TZVPPD
|  3> #
|  4> ! rijk ri-b2plyp d3bj def2-tzvppd def2/jk def2-tzvppd/c grid4 nofinalgrid
|  5> 
|  6> *xyz 0 1
|  7> Ir       0.000009    0.119441   -0.001134 
|  8> P        2.313164   -0.026854    0.000864 
|  9> C        3.266155    1.538041    0.001301 
| 10> C        2.990776   -0.938546    1.437922 
| 11> H        4.076753   -1.056364    1.355244 
| 12> H        4.080827   -1.059585   -1.345638 
| 13> H        2.508332   -1.918605    1.474823 
| 14> H        2.511934   -1.920062   -1.470843 
| 15> H        3.000883    2.123603    0.885753 
| 16> H        2.748975   -0.395301    2.355327 
| 17> C        2.995346   -0.940504   -1.432774 
| 18> H        4.343510    1.342437    0.003886 
| 19> H        2.757870   -0.397739   -2.351580 
| 20> H        3.004825    2.121649   -0.885628 
| 21> P       -2.313239   -0.026297    0.000821 
| 22> C       -3.266059    1.538685   -0.001751 
| 23> C       -2.995240   -0.942628   -1.431183 
| 24> H       -2.509974   -1.915937    1.477317 
| 25> H       -4.077346   -1.051885    1.357522 
| 26> H       -2.748166   -0.391240    2.356043 
| 27> C       -2.991181   -0.935299    1.439450 
| 28> H       -2.510085   -1.921339   -1.468610 
| 29> H       -4.080420   -1.063528   -1.342825 
| 30> H       -4.343438    1.343207   -0.001601 
| 31> H       -3.002541    2.121837   -0.888321 
| 32> H       -2.759672   -0.400400   -2.350803 
| 33> H       -3.002807    2.124611    0.883073 
| 34> C        0.000649    1.940082   -0.001490 
| 35> O        0.001240    3.110505   -0.001979 
| 36> Cl      -0.000683   -2.266357   -0.002005 
| 37> *
| 38> 
| 39> %maxcore 5000
| 40> 
| 41> %pal
| 42> nprocs = 24
| 43> end
| 44> 
| 45> 
| 46>                          ****END OF INPUT****
================================================================================

                       ****************************
                       * Single Point Calculation *
                       ****************************

---------------------------------
CARTESIAN COORDINATES (ANGSTROEM)
---------------------------------
  Ir     0.000009    0.119441   -0.001134
  P      2.313164   -0.026854    0.000864
  C      3.266155    1.538041    0.001301
  C      2.990776   -0.938546    1.437922
  H      4.076753   -1.056364    1.355244
  H      4.080827   -1.059585   -1.345638
  H      2.508332   -1.918605    1.474823
  H      2.511934   -1.920062   -1.470843
  H      3.000883    2.123603    0.885753
  H      2.748975   -0.395301    2.355327
  C      2.995346   -0.940504   -1.432774
  H      4.343510    1.342437    0.003886
  H      2.757870   -0.397739   -2.351580
  H      3.004825    2.121649   -0.885628
  P     -2.313239   -0.026297    0.000821
  C     -3.266059    1.538685   -0.001751
  C     -2.995240   -0.942628   -1.431183
  H     -2.509974   -1.915937    1.477317
  H     -4.077346   -1.051885    1.357522
  H     -2.748166   -0.391240    2.356043
  C     -2.991181   -0.935299    1.439450
  H     -2.510085   -1.921339   -1.468610
  H     -4.080420   -1.063528   -1.342825
  H     -4.343438    1.343207   -0.001601
  H     -3.002541    2.121837   -0.888321
  H     -2.759672   -0.400400   -2.350803
  H     -3.002807    2.124611    0.883073
  C      0.000649    1.940082   -0.001490
  O      0.001240    3.110505   -0.001979
  Cl    -0.000683   -2.266357   -0.002005

----------------------------
CARTESIAN COORDINATES (A.U.)
----------------------------
  NO LB      ZA    FRAG     MASS         X           Y           Z
   0 Ir   17.0000*   0   192.220    0.000017    0.225711   -0.002143
   1 P    15.0000    0    30.974    4.371246   -0.050747    0.001633
   2 C     6.0000    0    12.011    6.172138    2.906476    0.002459
   3 C     6.0000    0    12.011    5.651748   -1.773595    2.717279
   4 H     1.0000    0     1.008    7.703947   -1.996239    2.561040
   5 H     1.0000    0     1.008    7.711645   -2.002325   -2.542887
   6 H     1.0000    0     1.008    4.740061   -3.625638    2.787012
   7 H     1.0000    0     1.008    4.746867   -3.628391   -2.779490
   8 H     1.0000    0     1.008    5.670847    4.013028    1.673831
   9 H     1.0000    0     1.008    5.194810   -0.747011    4.450923
  10 C     6.0000    0    12.011    5.660384   -1.777295   -2.707550
  11 H     1.0000    0     1.008    8.208044    2.536838    0.007343
  12 H     1.0000    0     1.008    5.211619   -0.751618   -4.443842
  13 H     1.0000    0     1.008    5.678296    4.009336   -1.673594
  14 P    15.0000    0    30.974   -4.371388   -0.049694    0.001551
  15 C     6.0000    0    12.011   -6.171957    2.907693   -0.003309
  16 C     6.0000    0    12.011   -5.660183   -1.781309   -2.704544
  17 H     1.0000    0     1.008   -4.743163   -3.620596    2.791725
  18 H     1.0000    0     1.008   -7.705067   -1.987775    2.565345
  19 H     1.0000    0     1.008   -5.193281   -0.739336    4.452276
  20 C     6.0000    0    12.011   -5.652513   -1.767459    2.720166
  21 H     1.0000    0     1.008   -4.743373   -3.630805   -2.775271
  22 H     1.0000    0     1.008   -7.710876   -2.009777   -2.537571
  23 H     1.0000    0     1.008   -8.207908    2.538293   -0.003025
  24 H     1.0000    0     1.008   -5.673980    4.009691   -1.678683
  25 H     1.0000    0     1.008   -5.215024   -0.756646   -4.442374
  26 H     1.0000    0     1.008   -5.674483    4.014933    1.668766
  27 C     6.0000    0    12.011    0.001226    3.666224   -0.002816
  28 O     8.0000    0    15.999    0.002343    5.878003   -0.003740
  29 Cl   17.0000    0    35.453   -0.001291   -4.282794   -0.003789
* core charge reduced due to ECP

--------------------------------
INTERNAL COORDINATES (ANGSTROEM)
--------------------------------
 Ir     0   0   0     0.000000000000     0.00000000     0.00000000
 P      1   0   0     2.317777442520     0.00000000     0.00000000
 C      2   1   0     1.832235901317   117.72177370     0.00000000
 C      2   1   3     1.831795845822   113.65757778   121.12798062
 H      4   2   1     1.095473768439   111.16341822   175.21627236
 H      2   1   3     2.450353736899   138.25200381   235.72495129
 H      4   2   1     1.092991098051   108.02818949    54.31460447
 H      6   2   1     1.793745301040    67.01898320   334.09077090
 H      3   2   1     1.093392623961   109.35427096    59.06046738
 H      4   2   1     1.093258792625   109.21962101   296.31864373
 C      8   6   2     1.093009737317    34.99687860    41.14291417
 H      3   2   1     1.094970959919   111.05008763   179.90893779
 H     11   8   6     1.093248901869   108.63837472   120.06974055
 H      3   2   1     1.093405102240   109.35176155   300.75229634
 P      1   2   3     2.317835131361   172.77554717   180.76342502
 C     15   1   2     1.832223028975   117.72955964   179.34225943
 C     15   1   2     1.831781461195   113.72660953   300.54308168
 H     15   1   2     2.406134748480    97.55625053    37.46197413
 H     18  15   1     1.793764668822    69.64508389   162.71813710
 H     18  15   1     1.775836634871    68.92010401    97.92876377
 C     18  15   1     1.092998158087    46.38008135   131.30214215
 H     17  15   1     1.093001086859   108.02550709    54.03736639
 H     17  15   1     1.095463179922   111.16005798   174.93249051
 H     16  15   1     1.094969031811   111.05081062   179.94248970
 H     16  15   1     1.093395791252   109.35101048    59.09629780
 H     17  15   1     1.093254056022   109.22400842   296.03605246
 H     16  15   1     1.093400385932   109.35209855   300.78865639
 C      1   2   3     1.820641147293    93.59870702     0.00000000
 O     28   1   2     1.170423251363   179.98452606    55.43259166
 Cl     1   2   3     2.385798259348    86.39779865   179.96541454

---------------------------
INTERNAL COORDINATES (A.U.)
---------------------------
 Ir     0   0   0     0.000000000000     0.00000000     0.00000000
 P      1   0   0     4.379964605743     0.00000000     0.00000000
 C      2   1   0     3.462424066228   117.72177370     0.00000000
 C      2   1   3     3.461592481859   113.65757778   121.12798062
 H      4   2   1     2.070145409244   111.16341822   175.21627236
 H      2   1   3     4.630497493969   138.25200381   235.72495129
 H      4   2   1     2.065453842130   108.02818949    54.31460447
 H      6   2   1     3.389687372974    67.01898320   334.09077090
 H      3   2   1     2.066212616136   109.35427096    59.06046738
 H      4   2   1     2.065959711562   109.21962101   296.31864373
 C      8   6   2     2.065489065238    34.99687860    41.14291417
 H      3   2   1     2.069195238844   111.05008763   179.90893779
 H     11   8   6     2.065941020742   108.63837472   120.06974055
 H      3   2   1     2.066236196666   109.35176155   300.75229634
 P      1   2   3     4.380073621854   172.77554717   180.76342502
 C     15   1   2     3.462399741027   117.72955964   179.34225943
 C     15   1   2     3.461565298853   113.72660953   300.54308168
 H     15   1   2     4.546935715938    97.55625053    37.46197413
 H     18  15   1     3.389723972777    69.64508389   162.71813710
 H     18  15   1     3.355844898490    68.92010401    97.92876377
 C     18  15   1     2.065467183665    46.38008135   131.30214215
 H     17  15   1     2.065472718242   108.02550709    54.03736639
 H     17  15   1     2.070125399846   111.16005798   174.93249051
 H     16  15   1     2.069191595248   111.05081062   179.94248970
 H     16  15   1     2.066218601449   109.35101048    59.09629780
 H     17  15   1     2.065950760680   109.22400842   296.03605246
 H     16  15   1     2.066227284135   109.35209855   300.78865639
 C      1   2   3     3.440513156532    93.59870702     0.00000000
 O     28   1   2     2.211779405850   179.98452606    55.43259166
 Cl     1   2   3     4.508505320954    86.39779865   179.96541454

---------------------
BASIS SET INFORMATION
---------------------
There are 6 groups of distinct atoms

 Group   1 Type Ir  : 8s8p6d2f1g contracted to 6s5p3d2f1g pattern {311111/41111/411/11/1}
 Group   2 Type P   : 15s9p4d1f contracted to 6s5p4d1f pattern {732111/51111/1111/1}
 Group   3 Type C   : 12s6p3d1f contracted to 6s3p3d1f pattern {621111/411/111/1}
 Group   4 Type H   : 5s3p1d contracted to 3s3p1d pattern {311/111/1}
 Group   5 Type O   : 12s7p3d1f contracted to 6s4p3d1f pattern {621111/4111/111/1}
 Group   6 Type Cl  : 15s10p4d1f contracted to 6s6p4d1f pattern {732111/511111/1111/1}

Atom   0Ir   basis set group =>   1
Atom   1P    basis set group =>   2
Atom   2C    basis set group =>   3
Atom   3C    basis set group =>   3
Atom   4H    basis set group =>   4
Atom   5H    basis set group =>   4
Atom   6H    basis set group =>   4
Atom   7H    basis set group =>   4
Atom   8H    basis set group =>   4
Atom   9H    basis set group =>   4
Atom  10C    basis set group =>   3
Atom  11H    basis set group =>   4
Atom  12H    basis set group =>   4
Atom  13H    basis set group =>   4
Atom  14P    basis set group =>   2
Atom  15C    basis set group =>   3
Atom  16C    basis set group =>   3
Atom  17H    basis set group =>   4
Atom  18H    basis set group =>   4
Atom  19H    basis set group =>   4
Atom  20C    basis set group =>   3
Atom  21H    basis set group =>   4
Atom  22H    basis set group =>   4
Atom  23H    basis set group =>   4
Atom  24H    basis set group =>   4
Atom  25H    basis set group =>   4
Atom  26H    basis set group =>   4
Atom  27C    basis set group =>   3
Atom  28O    basis set group =>   5
Atom  29Cl   basis set group =>   6
---------------------------------
AUXILIARY/C BASIS SET INFORMATION
---------------------------------
There are 6 groups of distinct atoms

 Group   1 Type Ir  : 9s9p8d5f4g3h1i contracted to 9s9p8d5f4g3h1i pattern {111111111/111111111/11111111/11111/1111/111/1}
 Group   2 Type P   : 12s9p8d6f2g contracted to 12s9p8d6f2g pattern {111111111111/111111111/11111111/111111/11}
 Group   3 Type C   : 9s7p6d4f1g contracted to 9s7p5d4f1g pattern {111111111/1111111/21111/1111/1}
 Group   4 Type H   : 5s4p3d1f contracted to 5s4p3d1f pattern {11111/1111/111/1}
 Group   5 Type O   : 9s7p6d4f1g contracted to 9s7p5d4f1g pattern {111111111/1111111/21111/1111/1}
 Group   6 Type Cl  : 12s9p8d6f2g contracted to 12s9p8d6f2g pattern {111111111111/111111111/11111111/111111/11}

Atom   0Ir   basis set group =>   1
Atom   1P    basis set group =>   2
Atom   2C    basis set group =>   3
Atom   3C    basis set group =>   3
Atom   4H    basis set group =>   4
Atom   5H    basis set group =>   4
Atom   6H    basis set group =>   4
Atom   7H    basis set group =>   4
Atom   8H    basis set group =>   4
Atom   9H    basis set group =>   4
Atom  10C    basis set group =>   3
Atom  11H    basis set group =>   4
Atom  12H    basis set group =>   4
Atom  13H    basis set group =>   4
Atom  14P    basis set group =>   2
Atom  15C    basis set group =>   3
Atom  16C    basis set group =>   3
Atom  17H    basis set group =>   4
Atom  18H    basis set group =>   4
Atom  19H    basis set group =>   4
Atom  20C    basis set group =>   3
Atom  21H    basis set group =>   4
Atom  22H    basis set group =>   4
Atom  23H    basis set group =>   4
Atom  24H    basis set group =>   4
Atom  25H    basis set group =>   4
Atom  26H    basis set group =>   4
Atom  27C    basis set group =>   3
Atom  28O    basis set group =>   5
Atom  29Cl   basis set group =>   6
----------------------------------
AUXILIARY/JK BASIS SET INFORMATION
----------------------------------
There are 6 groups of distinct atoms

 Group   1 Type Ir  : 13s12p11d9f5g3h2i contracted to 11s9p9d7f4g3h2i pattern {31111111111/411111111/311111111/3111111/2111/111/11}
 Group   2 Type P   : 16s12p10d4f1g contracted to 13s11p9d4f1g pattern {4111111111111/21111111111/211111111/1111/1}
 Group   3 Type C   : 14s10p6d2f1g contracted to 10s8p5d1f1g pattern {5111111111/31111111/21111/2/1}
 Group   4 Type H   : 4s2p2d contracted to 2s2p2d pattern {31/11/11}
 Group   5 Type O   : 14s10p6d2f1g contracted to 10s8p4d2f1g pattern {5111111111/31111111/3111/11/1}
 Group   6 Type Cl  : 16s12p10d4f1g contracted to 13s11p9d4f1g pattern {4111111111111/21111111111/211111111/1111/1}

Atom   0Ir   basis set group =>   1
Atom   1P    basis set group =>   2
Atom   2C    basis set group =>   3
Atom   3C    basis set group =>   3
Atom   4H    basis set group =>   4
Atom   5H    basis set group =>   4
Atom   6H    basis set group =>   4
Atom   7H    basis set group =>   4
Atom   8H    basis set group =>   4
Atom   9H    basis set group =>   4
Atom  10C    basis set group =>   3
Atom  11H    basis set group =>   4
Atom  12H    basis set group =>   4
Atom  13H    basis set group =>   4
Atom  14P    basis set group =>   2
Atom  15C    basis set group =>   3
Atom  16C    basis set group =>   3
Atom  17H    basis set group =>   4
Atom  18H    basis set group =>   4
Atom  19H    basis set group =>   4
Atom  20C    basis set group =>   3
Atom  21H    basis set group =>   4
Atom  22H    basis set group =>   4
Atom  23H    basis set group =>   4
Atom  24H    basis set group =>   4
Atom  25H    basis set group =>   4
Atom  26H    basis set group =>   4
Atom  27C    basis set group =>   3
Atom  28O    basis set group =>   5
Atom  29Cl   basis set group =>   6
-------------------------
ECP PARAMETER INFORMATION
-------------------------

 Group 1, Type Ir ECP Def2-ECP (replacing 60 core electrons, lmax=3)

Atom   0Ir   ECP group =>   1



           ************************************************************
           *        Program running with 24 parallel MPI-processes    *
           *              working on a common directory               *
           ************************************************************
------------------------------------------------------------------------------
                           ORCA GTO INTEGRAL CALCULATION
                           -- RI-GTO INTEGRALS CHOSEN --
------------------------------------------------------------------------------

                         BASIS SET STATISTICS AND STARTUP INFO

Gaussian basis set:
 # of primitive gaussian shells          ...  452
 # of primitive gaussian functions       ... 1056
 # of contracted shells                  ...  297
 # of contracted basis functions         ...  811
 Highest angular momentum                ...    4
 Maximum contraction depth               ...    7
Auxiliary gaussian basis set:
 # of primitive gaussian shells          ...  592
 # of primitive gaussian functions       ... 1824
 # of contracted shells                  ...  467
 # of contracted aux-basis functions     ... 1537
 Highest angular momentum                ...    6
 Maximum contraction depth               ...    5
Ratio of auxiliary to basis functions    ...  1.90
Integral package used                  ... LIBINT
 One Electron integrals                  
   ECP integrals                         ... done
 Ordering auxiliary basis shells         ... done
 Integral threshhold             Thresh  ...  1.000e-10
 Primitive cut-off               TCut    ...  1.000e-11
 Pre-screening matrix                    ... done
 Shell pair data                         ... 
 Ordering of the shell pairs             ... done (   0.006 sec) 35569 of 44253 pairs
 Determination of significant pairs      ... done (   0.000 sec)
 Creation of shell pair data             ... done (   0.003 sec)
 Storage of shell pair data              ... done (   0.010 sec)
 Shell pair data done in (   0.020 sec)
 Computing two index integrals           ... done
 Cholesky decomposition of the V-matrix  ... done


Timings:
 Total evaluation time                   ...   3.629 sec (  0.060 min)
 One electron matrix time                ...   3.021 sec (  0.050 min) = 83.3%
 Schwartz matrix evaluation time         ...   0.336 sec (  0.006 min) =  9.3%
 Two index repulsion integral time       ...   0.115 sec (  0.002 min) =  3.2%
 Cholesky decomposition of V             ...   0.103 sec (  0.002 min) =  2.8%
 Three index repulsion integral time     ...   0.000 sec (  0.000 min) =  0.0%



           ************************************************************
           *        Program running with 24 parallel MPI-processes    *
           *              working on a common directory               *
           ************************************************************
-------------------------------------------------------------------------------
                                 ORCA SCF
-------------------------------------------------------------------------------

------------
SCF SETTINGS
------------
Hamiltonian:
 Density Functional     Method          .... DFT(GTOs)
 Exchange Functional    Exchange        .... B88
   X-Alpha parameter    XAlpha          ....  0.666667
   Becke's b parameter  XBeta           ....  0.004200
 Correlation Functional Correlation     .... LYP
 LDA part of GGA corr.  LDAOpt          .... VWN-3
 Gradients option       PostSCFGGA      .... off
 Hybrid DFT is turned on
   Fraction HF Exchange ScalHFX         ....  0.530000
   Scaling of DF-GGA-X  ScalDFX         ....  0.470000
   Scaling of DF-GGA-C  ScalDFC         ....  0.730000
   Scaling of DF-LDA-C  ScalLDAC        ....  0.730000
   Perturbative correction              ....  0.270000
   Density functional embedding theory  .... OFF
 RI-approximation to the Coulomb term is turned on
   Number of auxiliary basis functions  .... 1537
   RI-JK (J+K treated both via RI)      .... on


General Settings:
 Integral files         IntName         .... MOR12_ed18
 Hartree-Fock type      HFTyp           .... RHF
 Total Charge           Charge          ....    0
 Multiplicity           Mult            ....    1
 Number of Electrons    NEL             ....  132
 Basis Dimension        Dim             ....  811
 Nuclear Repulsion      ENuc            ....   1289.6809262071 Eh

Convergence Acceleration:
 DIIS                   CNVDIIS         .... on
   Start iteration      DIISMaxIt       ....    12
   Startup error        DIISStart       ....  0.200000
   # of expansion vecs  DIISMaxEq       ....     5
   Bias factor          DIISBfac        ....   1.050
   Max. coefficient     DIISMaxC        ....  10.000
 Newton-Raphson         CNVNR           .... off
 SOSCF                  CNVSOSCF        .... off
 Level Shifting         CNVShift        .... on
   Level shift para.    LevelShift      ....    0.2500
   Turn off err/grad.   ShiftErr        ....    0.0010
 Zerner damping         CNVZerner       .... off
 Static damping         CNVDamp         .... on
   Fraction old density DampFac         ....    0.7000
   Max. Damping (<1)    DampMax         ....    0.9800
   Min. Damping (>=0)   DampMin         ....    0.0000
   Turn off err/grad.   DampErr         ....    0.1000
 Fernandez-Rico         CNVRico         .... off

SCF Procedure:
 Maximum # iterations   MaxIter         ....   125
 SCF integral mode      SCFMode         .... Direct
   Integral package                     .... LIBINT
 Reset frequency        DirectResetFreq ....    20
 Integral Threshold     Thresh          ....  1.000e-10 Eh
 Primitive CutOff       TCut            ....  1.000e-11 Eh

Convergence Tolerance:
 Convergence Check Mode ConvCheckMode   .... Total+1el-Energy
 Convergence forced     ConvForced      .... 0
 Energy Change          TolE            ....  1.000e-06 Eh
 1-El. energy change                    ....  1.000e-03 Eh
 DIIS Error             TolErr          ....  1.000e-06


Diagonalization of the overlap matrix:
Smallest eigenvalue                        ... 6.547e-06
Time for diagonalization                   ...    0.124 sec
Threshold for overlap eigenvalues          ... 1.000e-08
Number of eigenvalues below threshold      ... 0
Time for construction of square roots      ...    0.081 sec
Total time needed                          ...    0.208 sec

-------------------
DFT GRID GENERATION
-------------------

General Integration Accuracy     IntAcc      ...  4.670
Radial Grid Type                 RadialGrid  ... Gauss-Chebyshev
Angular Grid (max. acc.)         AngularGrid ... Lebedev-302
Angular grid pruning method      GridPruning ... 3 (G Style)
Weight generation scheme         WeightScheme... Becke
Basis function cutoff            BFCut       ...    1.0000e-10
Integration weight cutoff        WCut        ...    1.0000e-14
Grids for H and He will be reduced by one unit

# of grid points (after initial pruning)     ... 142870 (   0.0 sec)
# of grid points (after weights+screening)   ... 127421 (   0.1 sec)
nearest neighbour list constructed           ...    0.0 sec
Grid point re-assignment to atoms done       ...    0.0 sec
Grid point division into batches done        ...    0.4 sec
Reduced shell lists constructed in    0.9 sec

Total number of grid points                  ...   127421
Total number of batches                      ...     2005
Average number of points per batch           ...       63
Average number of grid points per atom       ...     4247
Average number of shells per batch           ...   188.45 (63.45%)
Average number of basis functions per batch  ...   514.12 (63.39%)
Average number of large shells per batch     ...   143.04 (75.90%)
Average number of large basis fcns per batch ...   393.44 (76.53%)
Average number of aux-shells per batch       ...   188.45 (40.35%)
Average number of aux functions per batch    ...   514.12 (33.45%)
Maximum spatial batch extension              ...   2.56,  2.32,  2.01 au
Average spatial batch extension              ...   0.06,  0.05,  0.05 au

Time for grid setup =    1.022 sec

------------------------------
INITIAL GUESS: MODEL POTENTIAL
------------------------------
Loading Hartree-Fock densities                     ... done
  calling /sw/apps/orca/orca_4_2_0_linux_x86-64_openmpi314/orca MOR12_ed18_atom77.inp > MOR12_ed18_atom77.out in order to generate an atomic fitting density for atom 0 (Ir with ECP) on-the-fly... 
    atom 0 (Ir), assumed electronic state with S=4: 1s2 2s2 2p6 3s2 3p6 4s2 3d10 4p6 5s2 4d10 5p6 6s2 4f14 5d7           ... done
Calculating cut-offs                               ... done
Setting up the integral package                    ... done
Initializing the effective Hamiltonian             ... done
Starting the Coulomb interaction                   ... done (   0.1 sec)
Reading the grid                                   ... done
Mapping shells                                     ... done
Starting the XC term evaluation                    ... done (   0.3 sec)
  promolecular density results
     # of electrons  =    191.994075396
     EX              =   -472.920319806
     EC              =     -2.975410670
     EX+EC           =   -475.895730477
Transforming the Hamiltonian                       ... done (   0.1 sec)
Diagonalizing the Hamiltonian                      ... done (   0.1 sec)
Back transforming the eigenvectors                 ... done (   0.0 sec)
Now organizing SCF variables                       ... done
                      ------------------
                      INITIAL GUESS DONE (   2.8 sec)
                      ------------------
--------------
SCF ITERATIONS
--------------
ITER       Energy         Delta-E        Max-DP      RMS-DP      [F,P]     Damp
  0  -1593.6258028455   0.000000000000209.15032013  0.49718423  1.0976366 0.7000
  1  -1594.4581749043  -0.83237205887492.01255125  0.23830763  0.4604566 0.7000
  2  -1594.3245544422   0.13362046214690.35712134  0.21996502  0.2112060 0.7000
                               ***Turning on DIIS***
  3  -1596.9519362458  -2.62738180359063.24577472  0.15400798  0.1401084 0.7000
  4  -1597.4712296997  -0.51929345391744.29044391  0.10783066  0.1946354 0.7000
  5  -1597.7384278212  -0.26719812151331.01261395  0.07549461  0.2099062 0.7000
  6  -1597.9309285566  -0.19250073537121.71350684  0.05285304  0.2047490 0.7000
  7  -1598.0758885561  -0.14495999950215.20209914  0.03700094  0.2034443 0.7000
  8  -1598.1881782453  -0.11228968925610.63557355  0.02589008  0.2002894 0.7000
  9  -1598.2918530652  -0.103674819886 7.46872887  0.01816201  0.1902264 0.7000
 10  -1598.4011715254  -0.109318460198 5.22690574  0.01272572  0.1286214 0.7000
 11  -1598.4912254959  -0.09005397049512.14611355  0.02960710  0.0613903 0.0000
 12  -1598.7607703377  -0.269544841736 0.05192826  0.00041912  0.0647331 0.0000
 13  -1598.7827139644  -0.021943626711 0.02489408  0.00018089  0.0290676 0.0000
 14  -1598.7879722156  -0.005258251176 0.01061171  0.00006436  0.0069214 0.0000
 15  -1598.7884327974  -0.000460581829 0.00493134  0.00002880  0.0027565 0.0000
 16  -1598.7884928950  -0.000060097613 0.00277618  0.00001546  0.0012150 0.0000
 17  -1598.7885073033  -0.000014408287 0.00183368  0.00001227  0.0005411 0.0000
 18  -1598.7885111134  -0.000003810124 0.00060150  0.00000413  0.0004822 0.0000
                 **** Energy Check signals convergence ****

               *****************************************************
               *                     SUCCESS                       *
               *           SCF CONVERGED AFTER  19 CYCLES          *
               *****************************************************


----------------
TOTAL SCF ENERGY
----------------

Total Energy       :        -1598.78851181 Eh          -43505.24717 eV

Components:
Nuclear Repulsion  :         1289.68092621 Eh           35094.00215 eV
Electronic Energy  :        -2888.46943802 Eh          -78599.24932 eV
One Electron Energy:        -4807.19182652 Eh         -130810.33987 eV
Two Electron Energy:         1918.72238850 Eh           52211.09055 eV

Virial components:
Potential Energy   :        -3126.17930045 Eh          -85067.66352 eV
Kinetic Energy     :         1527.39078864 Eh           41562.41635 eV
Virial Ratio       :            2.04674490


DFT components:
N(Alpha)           :       66.000295001918 electrons
N(Beta)            :       66.000295001918 electrons
N(Total)           :      132.000590003835 electrons
E(X)               :      -62.910886558091 Eh       
E(C)               :       -3.468617404028 Eh       
E(XC)              :      -66.379503962119 Eh       
DFET-embed. en.    :        0.000000000000 Eh       

---------------
SCF CONVERGENCE
---------------

  Last Energy change         ...   -7.0087e-07  Tolerance :   1.0000e-06
  Last MAX-Density change    ...    1.4570e-03  Tolerance :   1.0000e-05
  Last RMS-Density change    ...    6.6896e-06  Tolerance :   1.0000e-06
  Last DIIS Error            ...    1.6100e-04  Tolerance :   1.0000e-06

             **** THE GBW FILE WAS UPDATED (MOR12_ed18.gbw) ****
             **** DENSITY FILE WAS UPDATED (MOR12_ed18.scfp) ****
             **** ENERGY FILE WAS UPDATED (MOR12_ed18.en.tmp) ****
             **** THE GBW FILE WAS UPDATED (MOR12_ed18.gbw) ****
             **** DENSITY FILE WAS UPDATED (MOR12_ed18.scfp) ****
----------------
ORBITAL ENERGIES
----------------

  NO   OCC          E(Eh)            E(eV) 
   0   2.0000    -102.829775     -2798.1404 
   1   2.0000     -78.293107     -2130.4638 
   2   2.0000     -78.293097     -2130.4635 
   3   2.0000     -19.767870      -537.9111 
   4   2.0000     -10.721479      -291.7463 
   5   2.0000     -10.621504      -289.0258 
   6   2.0000     -10.621502      -289.0258 
   7   2.0000     -10.615348      -288.8583 
   8   2.0000     -10.615336      -288.8580 
   9   2.0000     -10.615330      -288.8578 
  10   2.0000     -10.615289      -288.8567 
  11   2.0000      -9.835715      -267.6434 
  12   2.0000      -7.473082      -203.3529 
  13   2.0000      -7.471167      -203.3008 
  14   2.0000      -7.470782      -203.2903 
  15   2.0000      -6.959908      -189.3887 
  16   2.0000      -6.959898      -189.3885 
  17   2.0000      -5.011428      -136.3679 
  18   2.0000      -5.011418      -136.3676 
  19   2.0000      -5.011181      -136.3612 
  20   2.0000      -5.011171      -136.3609 
  21   2.0000      -5.009126      -136.3052 
  22   2.0000      -5.009116      -136.3050 
  23   2.0000      -3.884779      -105.7102 
  24   2.0000      -2.175640       -59.2022 
  25   2.0000      -2.164202       -58.8909 
  26   2.0000      -2.138612       -58.1946 
  27   2.0000      -1.238442       -33.6997 
  28   2.0000      -0.892002       -24.2726 
  29   2.0000      -0.888774       -24.1848 
  30   2.0000      -0.850587       -23.1457 
  31   2.0000      -0.808920       -22.0118 
  32   2.0000      -0.808173       -21.9915 
  33   2.0000      -0.804322       -21.8867 
  34   2.0000      -0.804276       -21.8855 
  35   2.0000      -0.654953       -17.8222 
  36   2.0000      -0.635447       -17.2914 
  37   2.0000      -0.626456       -17.0467 
  38   2.0000      -0.541956       -14.7474 
  39   2.0000      -0.524809       -14.2808 
  40   2.0000      -0.521960       -14.2032 
  41   2.0000      -0.511872       -13.9288 
  42   2.0000      -0.508068       -13.8252 
  43   2.0000      -0.506649       -13.7866 
  44   2.0000      -0.502786       -13.6815 
  45   2.0000      -0.499448       -13.5907 
  46   2.0000      -0.496599       -13.5131 
  47   2.0000      -0.480594       -13.0776 
  48   2.0000      -0.477609       -12.9964 
  49   2.0000      -0.477486       -12.9931 
  50   2.0000      -0.474633       -12.9154 
  51   2.0000      -0.461379       -12.5548 
  52   2.0000      -0.461030       -12.5453 
  53   2.0000      -0.413456       -11.2507 
  54   2.0000      -0.408562       -11.1175 
  55   2.0000      -0.405731       -11.0405 
  56   2.0000      -0.403683       -10.9848 
  57   2.0000      -0.401584       -10.9277 
  58   2.0000      -0.356552        -9.7023 
  59   2.0000      -0.355829        -9.6826 
  60   2.0000      -0.342566        -9.3217 
  61   2.0000      -0.307800        -8.3757 
  62   2.0000      -0.283224        -7.7069 
  63   2.0000      -0.280564        -7.6345 
  64   2.0000      -0.269393        -7.3306 
  65   2.0000      -0.252898        -6.8817 
  66   0.0000       0.007768         0.2114 
  67   0.0000       0.023423         0.6374 
  68   0.0000       0.024363         0.6630 
  69   0.0000       0.034398         0.9360 
  70   0.0000       0.049756         1.3539 
  71   0.0000       0.058892         1.6025 
  72   0.0000       0.061748         1.6802 
  73   0.0000       0.062651         1.7048 
  74   0.0000       0.071272         1.9394 
  75   0.0000       0.073056         1.9879 
  76   0.0000       0.073224         1.9925 
  77   0.0000       0.076326         2.0769 
  78   0.0000       0.082472         2.2442 
  79   0.0000       0.089956         2.4478 
  80   0.0000       0.093867         2.5543 
  81   0.0000       0.095871         2.6088 
  82   0.0000       0.097217         2.6454 
  83   0.0000       0.102675         2.7939 
  84   0.0000       0.108488         2.9521 
  85   0.0000       0.114014         3.1025 
  86   0.0000       0.114315         3.1107 
  87   0.0000       0.123127         3.3504 
  88   0.0000       0.123256         3.3540 
  89   0.0000       0.125141         3.4053 
  90   0.0000       0.130637         3.5548 
  91   0.0000       0.139952         3.8083 
  92   0.0000       0.145221         3.9517 
  93   0.0000       0.147633         4.0173 
  94   0.0000       0.148771         4.0483 
  95   0.0000       0.151770         4.1299 
  96   0.0000       0.152240         4.1427 
  97   0.0000       0.157856         4.2955 
  98   0.0000       0.158295         4.3074 
  99   0.0000       0.160908         4.3785 
 100   0.0000       0.162071         4.4102 
 101   0.0000       0.163086         4.4378 
 102   0.0000       0.165666         4.5080 
 103   0.0000       0.165877         4.5137 
 104   0.0000       0.167045         4.5455 
 105   0.0000       0.171684         4.6717 
 106   0.0000       0.186312         5.0698 
 107   0.0000       0.191408         5.2085 
 108   0.0000       0.193284         5.2595 
 109   0.0000       0.201283         5.4772 
 110   0.0000       0.208735         5.6800 
 111   0.0000       0.212128         5.7723 
 112   0.0000       0.212532         5.7833 
 113   0.0000       0.213739         5.8161 
 114   0.0000       0.220274         5.9940 
 115   0.0000       0.229529         6.2458 
 116   0.0000       0.230249         6.2654 
 117   0.0000       0.230721         6.2782 
 118   0.0000       0.234509         6.3813 
 119   0.0000       0.246074         6.6960 
 120   0.0000       0.255718         6.9584 
 121   0.0000       0.259601         7.0641 
 122   0.0000       0.260516         7.0890 
 123   0.0000       0.264266         7.1910 
 124   0.0000       0.269103         7.3227 
 125   0.0000       0.276405         7.5214 
 126   0.0000       0.276661         7.5283 
 127   0.0000       0.277558         7.5527 
 128   0.0000       0.278477         7.5777 
 129   0.0000       0.279484         7.6051 
 130   0.0000       0.282345         7.6830 
 131   0.0000       0.285280         7.7629 
 132   0.0000       0.296133         8.0582 
 133   0.0000       0.296981         8.0813 
 134   0.0000       0.297020         8.0823 
 135   0.0000       0.300036         8.1644 
 136   0.0000       0.306274         8.3341 
 137   0.0000       0.310066         8.4373 
 138   0.0000       0.315508         8.5854 
 139   0.0000       0.317117         8.6292 
 140   0.0000       0.318269         8.6605 
 141   0.0000       0.324289         8.8243 
 142   0.0000       0.325491         8.8571 
 143   0.0000       0.327595         8.9143 
 144   0.0000       0.328290         8.9332 
 145   0.0000       0.333169         9.0660 
 146   0.0000       0.337028         9.1710 
 147   0.0000       0.343288         9.3413 
 148   0.0000       0.343412         9.3447 
 149   0.0000       0.350539         9.5387 
 150   0.0000       0.352094         9.5810 
 151   0.0000       0.352452         9.5907 
 152   0.0000       0.353355         9.6153 
 153   0.0000       0.355397         9.6708 
 154   0.0000       0.360343         9.8054 
 155   0.0000       0.360880         9.8201 
 156   0.0000       0.361207         9.8289 
 157   0.0000       0.363402         9.8887 
 158   0.0000       0.367869        10.0102 
 159   0.0000       0.374582        10.1929 
 160   0.0000       0.375876        10.2281 
 161   0.0000       0.377637        10.2760 
 162   0.0000       0.383980        10.4486 
 163   0.0000       0.389859        10.6086 
 164   0.0000       0.391522        10.6538 
 165   0.0000       0.392647        10.6845 
 166   0.0000       0.401977        10.9384 
 167   0.0000       0.405069        11.0225 
 168   0.0000       0.405884        11.0447 
 169   0.0000       0.406350        11.0573 
 170   0.0000       0.418845        11.3974 
 171   0.0000       0.423640        11.5278 
 172   0.0000       0.423839        11.5332 
 173   0.0000       0.425696        11.5838 
 174   0.0000       0.434301        11.8179 
 175   0.0000       0.434494        11.8232 
 176   0.0000       0.435727        11.8567 
 177   0.0000       0.437118        11.8946 
 178   0.0000       0.440930        11.9983 
 179   0.0000       0.446516        12.1503 
 180   0.0000       0.452133        12.3032 
 181   0.0000       0.454599        12.3703 
 182   0.0000       0.456022        12.4090 
 183   0.0000       0.456773        12.4294 
 184   0.0000       0.464063        12.6278 
 185   0.0000       0.464570        12.6416 
 186   0.0000       0.469287        12.7700 
 187   0.0000       0.472399        12.8546 
 188   0.0000       0.479977        13.0608 
 189   0.0000       0.485656        13.2154 
 190   0.0000       0.487347        13.2614 
 191   0.0000       0.487502        13.2656 
 192   0.0000       0.493510        13.4291 
 193   0.0000       0.496991        13.5238 
 194   0.0000       0.507341        13.8054 
 195   0.0000       0.508511        13.8373 
 196   0.0000       0.515610        14.0305 
 197   0.0000       0.516106        14.0439 
 198   0.0000       0.516821        14.0634 
 199   0.0000       0.520902        14.1745 
 200   0.0000       0.522914        14.2292 
 201   0.0000       0.524306        14.2671 
 202   0.0000       0.536504        14.5990 
 203   0.0000       0.537680        14.6310 
 204   0.0000       0.539307        14.6753 
 205   0.0000       0.542980        14.7752 
 206   0.0000       0.546186        14.8625 
 207   0.0000       0.552958        15.0467 
 208   0.0000       0.553298        15.0560 
 209   0.0000       0.556093        15.1321 
 210   0.0000       0.557449        15.1690 
 211   0.0000       0.565824        15.3969 
 212   0.0000       0.570870        15.5342 
 213   0.0000       0.576974        15.7003 
 214   0.0000       0.589375        16.0377 
 215   0.0000       0.589931        16.0528 
 216   0.0000       0.598819        16.2947 
 217   0.0000       0.604203        16.4412 
 218   0.0000       0.606810        16.5121 
 219   0.0000       0.609202        16.5772 
 220   0.0000       0.615038        16.7360 
 221   0.0000       0.629760        17.1366 
 222   0.0000       0.631095        17.1730 
 223   0.0000       0.639855        17.4113 
 224   0.0000       0.640587        17.4313 
 225   0.0000       0.641623        17.4595 
 226   0.0000       0.645759        17.5720 
 227   0.0000       0.649176        17.6650 
 228   0.0000       0.653438        17.7810 
 229   0.0000       0.658990        17.9320 
 230   0.0000       0.659753        17.9528 
 231   0.0000       0.668652        18.1950 
 232   0.0000       0.673487        18.3265 
 233   0.0000       0.674026        18.3412 
 234   0.0000       0.685996        18.6669 
 235   0.0000       0.686184        18.6720 
 236   0.0000       0.691909        18.8278 
 237   0.0000       0.700409        19.0591 
 238   0.0000       0.702387        19.1129 
 239   0.0000       0.704513        19.1708 
 240   0.0000       0.706346        19.2207 
 241   0.0000       0.709180        19.2978 
 242   0.0000       0.717070        19.5125 
 243   0.0000       0.721108        19.6223 
 244   0.0000       0.723944        19.6995 
 245   0.0000       0.725805        19.7502 
 246   0.0000       0.734224        19.9792 
 247   0.0000       0.736824        20.0500 
 248   0.0000       0.737430        20.0665 
 249   0.0000       0.742012        20.1912 
 250   0.0000       0.749749        20.4017 
 251   0.0000       0.749967        20.4076 
 252   0.0000       0.754620        20.5342 
 253   0.0000       0.762471        20.7479 
 254   0.0000       0.764242        20.7961 
 255   0.0000       0.765077        20.8188 
 256   0.0000       0.766209        20.8496 
 257   0.0000       0.769918        20.9505 
 258   0.0000       0.772013        21.0075 
 259   0.0000       0.773204        21.0399 
 260   0.0000       0.782590        21.2954 
 261   0.0000       0.791751        21.5446 
 262   0.0000       0.794774        21.6269 
 263   0.0000       0.796740        21.6804 
 264   0.0000       0.803035        21.8517 
 265   0.0000       0.803763        21.8715 
 266   0.0000       0.809056        22.0155 
 267   0.0000       0.811659        22.0864 
 268   0.0000       0.817417        22.2430 
 269   0.0000       0.820152        22.3175 
 270   0.0000       0.825253        22.4563 
 271   0.0000       0.834115        22.6974 
 272   0.0000       0.837297        22.7840 
 273   0.0000       0.841459        22.8973 
 274   0.0000       0.845397        23.0044 
 275   0.0000       0.849137        23.1062 
 276   0.0000       0.850967        23.1560 
 277   0.0000       0.856700        23.3120 
 278   0.0000       0.861594        23.4452 
 279   0.0000       0.863502        23.4971 
 280   0.0000       0.867290        23.6002 
 281   0.0000       0.873765        23.7764 
 282   0.0000       0.875687        23.8287 
 283   0.0000       0.882790        24.0219 
 284   0.0000       0.887119        24.1397 
 285   0.0000       0.890574        24.2338 
 286   0.0000       0.899403        24.4740 
 287   0.0000       0.903405        24.5829 
 288   0.0000       0.905368        24.6363 
 289   0.0000       0.906386        24.6640 
 290   0.0000       0.918870        25.0037 
 291   0.0000       0.936539        25.4845 
 292   0.0000       0.937591        25.5132 
 293   0.0000       0.945113        25.7178 
 294   0.0000       0.945390        25.7254 
 295   0.0000       0.947987        25.7960 
 296   0.0000       0.972321        26.4582 
 297   0.0000       0.972645        26.4670 
 298   0.0000       0.973238        26.4832 
 299   0.0000       0.993829        27.0435 
 300   0.0000       0.998016        27.1574 
 301   0.0000       1.004399        27.3311 
 302   0.0000       1.008653        27.4468 
 303   0.0000       1.013221        27.5711 
 304   0.0000       1.023869        27.8609 
 305   0.0000       1.027572        27.9616 
 306   0.0000       1.039854        28.2959 
 307   0.0000       1.042302        28.3625 
 308   0.0000       1.046220        28.4691 
 309   0.0000       1.047234        28.4967 
 310   0.0000       1.056651        28.7529 
 311   0.0000       1.063460        28.9382 
 312   0.0000       1.084892        29.5214 
 313   0.0000       1.087184        29.5838 
 314   0.0000       1.099734        29.9253 
 315   0.0000       1.101001        29.9598 
 316   0.0000       1.103221        30.0202 
 317   0.0000       1.119404        30.4605 
 318   0.0000       1.129854        30.7449 
 319   0.0000       1.141858        31.0715 
 320   0.0000       1.146807        31.2062 
 321   0.0000       1.157995        31.5106 
 322   0.0000       1.159385        31.5485 
 323   0.0000       1.162423        31.6311 
 324   0.0000       1.173378        31.9292 
 325   0.0000       1.173657        31.9368 
 326   0.0000       1.182008        32.1641 
 327   0.0000       1.183226        32.1972 
 328   0.0000       1.192816        32.4582 
 329   0.0000       1.213514        33.0214 
 330   0.0000       1.216293        33.0970 
 331   0.0000       1.219948        33.1965 
 332   0.0000       1.228677        33.4340 
 333   0.0000       1.233724        33.5713 
 334   0.0000       1.234927        33.6041 
 335   0.0000       1.253471        34.1087 
 336   0.0000       1.262044        34.3420 
 337   0.0000       1.263190        34.3732 
 338   0.0000       1.289333        35.0845 
 339   0.0000       1.298802        35.3422 
 340   0.0000       1.300042        35.3759 
 341   0.0000       1.303240        35.4630 
 342   0.0000       1.310392        35.6576 
 343   0.0000       1.317425        35.8490 
 344   0.0000       1.320989        35.9459 
 345   0.0000       1.324108        36.0308 
 346   0.0000       1.329628        36.1810 
 347   0.0000       1.339503        36.4497 
 348   0.0000       1.343180        36.5498 
 349   0.0000       1.344300        36.5803 
 350   0.0000       1.351492        36.7760 
 351   0.0000       1.377277        37.4776 
 352   0.0000       1.382181        37.6110 
 353   0.0000       1.400589        38.1120 
 354   0.0000       1.402329        38.1593 
 355   0.0000       1.404634        38.2220 
 356   0.0000       1.408069        38.3155 
 357   0.0000       1.408508        38.3274 
 358   0.0000       1.420008        38.6404 
 359   0.0000       1.431705        38.9587 
 360   0.0000       1.432406        38.9778 
 361   0.0000       1.432867        38.9903 
 362   0.0000       1.434637        39.0384 
 363   0.0000       1.440368        39.1944 
 364   0.0000       1.443893        39.2903 
 365   0.0000       1.453003        39.5382 
 366   0.0000       1.465242        39.8713 
 367   0.0000       1.485963        40.4351 
 368   0.0000       1.494311        40.6623 
 369   0.0000       1.494452        40.6661 
 370   0.0000       1.496929        40.7335 
 371   0.0000       1.502119        40.8747 
 372   0.0000       1.506933        41.0057 
 373   0.0000       1.519851        41.3573 
 374   0.0000       1.525062        41.4991 
 375   0.0000       1.527364        41.5617 
 376   0.0000       1.527657        41.5697 
 377   0.0000       1.533683        41.7336 
 378   0.0000       1.535300        41.7776 
 379   0.0000       1.544928        42.0396 
 380   0.0000       1.550996        42.2047 
 381   0.0000       1.566705        42.6322 
 382   0.0000       1.581500        43.0348 
 383   0.0000       1.592093        43.3231 
 384   0.0000       1.593558        43.3629 
 385   0.0000       1.611686        43.8562 
 386   0.0000       1.619748        44.0756 
 387   0.0000       1.632341        44.4182 
 388   0.0000       1.640381        44.6370 
 389   0.0000       1.672227        45.5036 
 390   0.0000       1.672658        45.5153 
 391   0.0000       1.672851        45.5206 
 392   0.0000       1.676824        45.6287 
 393   0.0000       1.701093        46.2891 
 394   0.0000       1.703485        46.3542 
 395   0.0000       1.717820        46.7443 
 396   0.0000       1.720652        46.8213 
 397   0.0000       1.723631        46.9024 
 398   0.0000       1.734235        47.1909 
 399   0.0000       1.734406        47.1956 
 400   0.0000       1.735487        47.2250 
 401   0.0000       1.735701        47.2308 
 402   0.0000       1.747293        47.5463 
 403   0.0000       1.747748        47.5586 
 404   0.0000       1.754482        47.7419 
 405   0.0000       1.761849        47.9424 
 406   0.0000       1.770786        48.1855 
 407   0.0000       1.776568        48.3429 
 408   0.0000       1.778670        48.4001 
 409   0.0000       1.785527        48.5866 
 410   0.0000       1.787013        48.6271 
 411   0.0000       1.797117        48.9020 
 412   0.0000       1.801452        49.0200 
 413   0.0000       1.825645        49.6783 
 414   0.0000       1.851093        50.3708 
 415   0.0000       1.883827        51.2615 
 416   0.0000       1.890051        51.4309 
 417   0.0000       1.902898        51.7805 
 418   0.0000       1.925847        52.4050 
 419   0.0000       1.932576        52.5881 
 420   0.0000       1.937321        52.7172 
 421   0.0000       1.938544        52.7505 
 422   0.0000       1.955817        53.2205 
 423   0.0000       1.958092        53.2824 
 424   0.0000       1.974021        53.7158 
 425   0.0000       1.977381        53.8073 
 426   0.0000       1.979667        53.8695 
 427   0.0000       1.981018        53.9063 
 428   0.0000       1.988719        54.1158 
 429   0.0000       1.999368        54.4056 
 430   0.0000       2.000145        54.4267 
 431   0.0000       2.002436        54.4891 
 432   0.0000       2.004839        54.5545 
 433   0.0000       2.009413        54.6789 
 434   0.0000       2.016518        54.8723 
 435   0.0000       2.039046        55.4853 
 436   0.0000       2.051795        55.8322 
 437   0.0000       2.054891        55.9164 
 438   0.0000       2.063848        56.1602 
 439   0.0000       2.075216        56.4695 
 440   0.0000       2.084531        56.7230 
 441   0.0000       2.097766        57.0831 
 442   0.0000       2.112788        57.4919 
 443   0.0000       2.144333        58.3503 
 444   0.0000       2.151216        58.5376 
 445   0.0000       2.191065        59.6219 
 446   0.0000       2.196528        59.7706 
 447   0.0000       2.197596        59.7996 
 448   0.0000       2.205003        60.0012 
 449   0.0000       2.206108        60.0313 
 450   0.0000       2.237124        60.8752 
 451   0.0000       2.238608        60.9156 
 452   0.0000       2.252609        61.2966 
 453   0.0000       2.253201        61.3127 
 454   0.0000       2.294230        62.4292 
 455   0.0000       2.299338        62.5682 
 456   0.0000       2.310212        62.8641 
 457   0.0000       2.312930        62.9380 
 458   0.0000       2.322486        63.1981 
 459   0.0000       2.345443        63.8227 
 460   0.0000       2.350030        63.9476 
 461   0.0000       2.380387        64.7736 
 462   0.0000       2.388076        64.9829 
 463   0.0000       2.389020        65.0085 
 464   0.0000       2.406513        65.4845 
 465   0.0000       2.410317        65.5881 
 466   0.0000       2.437931        66.3395 
 467   0.0000       2.438392        66.3520 
 468   0.0000       2.450841        66.6908 
 469   0.0000       2.458874        66.9094 
 470   0.0000       2.462803        67.0163 
 471   0.0000       2.481203        67.5170 
 472   0.0000       2.509816        68.2956 
 473   0.0000       2.511323        68.3366 
 474   0.0000       2.517637        68.5084 
 475   0.0000       2.523865        68.6779 
 476   0.0000       2.542674        69.1897 
 477   0.0000       2.551706        69.4355 
 478   0.0000       2.569594        69.9222 
 479   0.0000       2.623828        71.3980 
 480   0.0000       2.656179        72.2783 
 481   0.0000       2.668461        72.6125 
 482   0.0000       2.676390        72.8283 
 483   0.0000       2.693952        73.3062 
 484   0.0000       2.710858        73.7662 
 485   0.0000       2.719213        73.9936 
 486   0.0000       2.728115        74.2358 
 487   0.0000       2.767585        75.3098 
 488   0.0000       2.780387        75.6582 
 489   0.0000       2.788225        75.8715 
 490   0.0000       2.868807        78.0642 
 491   0.0000       2.890040        78.6420 
 492   0.0000       2.893546        78.7374 
 493   0.0000       2.896400        78.8151 
 494   0.0000       2.907521        79.1177 
 495   0.0000       2.908151        79.1348 
 496   0.0000       2.915266        79.3284 
 497   0.0000       2.918666        79.4209 
 498   0.0000       2.925905        79.6179 
 499   0.0000       2.934894        79.8625 
 500   0.0000       2.948916        80.2441 
 501   0.0000       2.963544        80.6421 
 502   0.0000       2.964440        80.6665 
 503   0.0000       2.977447        81.0204 
 504   0.0000       2.978032        81.0364 
 505   0.0000       2.988288        81.3155 
 506   0.0000       3.010877        81.9301 
 507   0.0000       3.012282        81.9684 
 508   0.0000       3.012449        81.9729 
 509   0.0000       3.017493        82.1102 
 510   0.0000       3.019264        82.1584 
 511   0.0000       3.023194        82.2653 
 512   0.0000       3.026934        82.3671 
 513   0.0000       3.031690        82.4965 
 514   0.0000       3.051037        83.0229 
 515   0.0000       3.055466        83.1435 
 516   0.0000       3.056759        83.1786 
 517   0.0000       3.070087        83.5413 
 518   0.0000       3.082000        83.8655 
 519   0.0000       3.083666        83.9108 
 520   0.0000       3.092834        84.1603 
 521   0.0000       3.117101        84.8206 
 522   0.0000       3.120538        84.9142 
 523   0.0000       3.128491        85.1306 
 524   0.0000       3.128573        85.1328 
 525   0.0000       3.140939        85.4693 
 526   0.0000       3.153354        85.8071 
 527   0.0000       3.154760        85.8454 
 528   0.0000       3.163042        86.0708 
 529   0.0000       3.165127        86.1275 
 530   0.0000       3.167972        86.2049 
 531   0.0000       3.176249        86.4301 
 532   0.0000       3.181921        86.5845 
 533   0.0000       3.206144        87.2436 
 534   0.0000       3.211055        87.3773 
 535   0.0000       3.212766        87.4238 
 536   0.0000       3.218009        87.5665 
 537   0.0000       3.224298        87.7376 
 538   0.0000       3.225431        87.7684 
 539   0.0000       3.233135        87.9781 
 540   0.0000       3.235850        88.0519 
 541   0.0000       3.250256        88.4439 
 542   0.0000       3.259405        88.6929 
 543   0.0000       3.305727        89.9534 
 544   0.0000       3.314408        90.1896 
 545   0.0000       3.319885        90.3387 
 546   0.0000       3.322892        90.4205 
 547   0.0000       3.329609        90.6033 
 548   0.0000       3.340631        90.9032 
 549   0.0000       3.342801        90.9623 
 550   0.0000       3.343134        90.9713 
 551   0.0000       3.349088        91.1333 
 552   0.0000       3.349570        91.1464 
 553   0.0000       3.360335        91.4394 
 554   0.0000       3.361875        91.4813 
 555   0.0000       3.385979        92.1372 
 556   0.0000       3.396261        92.4170 
 557   0.0000       3.402418        92.5845 
 558   0.0000       3.411918        92.8430 
 559   0.0000       3.425991        93.2260 
 560   0.0000       3.428182        93.2856 
 561   0.0000       3.452665        93.9518 
 562   0.0000       3.455215        94.0212 
 563   0.0000       3.456483        94.0557 
 564   0.0000       3.457292        94.0777 
 565   0.0000       3.463376        94.2432 
 566   0.0000       3.476439        94.5987 
 567   0.0000       3.491397        95.0058 
 568   0.0000       3.501662        95.2851 
 569   0.0000       3.519137        95.7606 
 570   0.0000       3.525599        95.9364 
 571   0.0000       3.534728        96.1848 
 572   0.0000       3.535016        96.1927 
 573   0.0000       3.538804        96.2958 
 574   0.0000       3.544827        96.4597 
 575   0.0000       3.581819        97.4662 
 576   0.0000       3.596607        97.8686 
 577   0.0000       3.604284        98.0775 
 578   0.0000       3.604670        98.0881 
 579   0.0000       3.606896        98.1486 
 580   0.0000       3.625726        98.6610 
 581   0.0000       3.627313        98.7042 
 582   0.0000       3.628140        98.7267 
 583   0.0000       3.635939        98.9389 
 584   0.0000       3.637122        98.9711 
 585   0.0000       3.643848        99.1541 
 586   0.0000       3.659743        99.5867 
 587   0.0000       3.677112       100.0593 
 588   0.0000       3.680647       100.1555 
 589   0.0000       3.681789       100.1866 
 590   0.0000       3.681978       100.1917 
 591   0.0000       3.687472       100.3412 
 592   0.0000       3.697378       100.6108 
 593   0.0000       3.700079       100.6843 
 594   0.0000       3.702786       100.7579 
 595   0.0000       3.703569       100.7792 
 596   0.0000       3.707522       100.8868 
 597   0.0000       3.709700       100.9461 
 598   0.0000       3.711122       100.9848 
 599   0.0000       3.726219       101.3956 
 600   0.0000       3.731515       101.5397 
 601   0.0000       3.735342       101.6438 
 602   0.0000       3.754916       102.1764 
 603   0.0000       3.760325       102.3236 
 604   0.0000       3.761521       102.3562 
 605   0.0000       3.778346       102.8140 
 606   0.0000       3.797167       103.3262 
 607   0.0000       3.811658       103.7205 
 608   0.0000       3.814948       103.8100 
 609   0.0000       3.815619       103.8283 
 610   0.0000       3.816836       103.8614 
 611   0.0000       3.820320       103.9562 
 612   0.0000       3.828233       104.1715 
 613   0.0000       3.846980       104.6816 
 614   0.0000       3.856805       104.9490 
 615   0.0000       3.868182       105.2586 
 616   0.0000       3.877250       105.5053 
 617   0.0000       3.891490       105.8928 
 618   0.0000       3.893542       105.9487 
 619   0.0000       3.919821       106.6637 
 620   0.0000       3.927811       106.8812 
 621   0.0000       3.939545       107.2005 
 622   0.0000       3.940190       107.2180 
 623   0.0000       3.954563       107.6091 
 624   0.0000       3.955292       107.6290 
 625   0.0000       3.960812       107.7792 
 626   0.0000       3.979206       108.2797 
 627   0.0000       4.028200       109.6129 
 628   0.0000       4.064762       110.6078 
 629   0.0000       4.067135       110.6724 
 630   0.0000       4.076405       110.9246 
 631   0.0000       4.087262       111.2200 
 632   0.0000       4.102832       111.6437 
 633   0.0000       4.108391       111.7950 
 634   0.0000       4.109644       111.8291 
 635   0.0000       4.111232       111.8723 
 636   0.0000       4.112356       111.9029 
 637   0.0000       4.145263       112.7983 
 638   0.0000       4.146653       112.8362 
 639   0.0000       4.153845       113.0319 
 640   0.0000       4.167910       113.4146 
 641   0.0000       4.171230       113.5049 
 642   0.0000       4.172837       113.5487 
 643   0.0000       4.177349       113.6714 
 644   0.0000       4.208584       114.5214 
 645   0.0000       4.217358       114.7602 
 646   0.0000       4.247482       115.5799 
 647   0.0000       4.252116       115.7060 
 648   0.0000       4.272369       116.2571 
 649   0.0000       4.273807       116.2962 
 650   0.0000       4.282209       116.5248 
 651   0.0000       4.287471       116.6680 
 652   0.0000       4.310471       117.2939 
 653   0.0000       4.310609       117.2976 
 654   0.0000       4.331180       117.8574 
 655   0.0000       4.334276       117.9416 
 656   0.0000       4.339003       118.0703 
 657   0.0000       4.351756       118.4173 
 658   0.0000       4.360035       118.6426 
 659   0.0000       4.365309       118.7861 
 660   0.0000       4.368041       118.8604 
 661   0.0000       4.371156       118.9452 
 662   0.0000       4.384295       119.3027 
 663   0.0000       4.401365       119.7672 
 664   0.0000       4.424746       120.4035 
 665   0.0000       4.459552       121.3506 
 666   0.0000       4.469164       121.6121 
 667   0.0000       4.470349       121.6444 
 668   0.0000       4.472397       121.7001 
 669   0.0000       4.474315       121.7523 
 670   0.0000       4.480465       121.9197 
 671   0.0000       4.484312       122.0243 
 672   0.0000       4.497972       122.3961 
 673   0.0000       4.498428       122.4084 
 674   0.0000       4.512276       122.7853 
 675   0.0000       4.514244       122.8388 
 676   0.0000       4.534192       123.3816 
 677   0.0000       4.542729       123.6139 
 678   0.0000       4.546040       123.7040 
 679   0.0000       4.546251       123.7098 
 680   0.0000       4.557987       124.0291 
 681   0.0000       4.565935       124.2454 
 682   0.0000       4.593523       124.9961 
 683   0.0000       4.598193       125.1232 
 684   0.0000       4.607998       125.3900 
 685   0.0000       4.678938       127.3204 
 686   0.0000       4.750143       129.2580 
 687   0.0000       4.753394       129.3464 
 688   0.0000       4.767620       129.7335 
 689   0.0000       4.768636       129.7612 
 690   0.0000       4.776669       129.9798 
 691   0.0000       4.777569       130.0043 
 692   0.0000       4.787123       130.2642 
 693   0.0000       4.788413       130.2993 
 694   0.0000       4.792562       130.4123 
 695   0.0000       4.795525       130.4929 
 696   0.0000       4.798652       130.5779 
 697   0.0000       4.802029       130.6699 
 698   0.0000       4.825299       131.3031 
 699   0.0000       4.829258       131.4108 
 700   0.0000       4.882551       132.8610 
 701   0.0000       4.882722       132.8656 
 702   0.0000       4.896808       133.2489 
 703   0.0000       4.898630       133.2985 
 704   0.0000       5.231370       142.3528 
 705   0.0000       5.233918       142.4221 
 706   0.0000       5.253422       142.9529 
 707   0.0000       5.254396       142.9794 
 708   0.0000       5.259164       143.1091 
 709   0.0000       5.261531       143.1735 
 710   0.0000       5.263054       143.2150 
 711   0.0000       5.266179       143.3000 
 712   0.0000       5.268927       143.3748 
 713   0.0000       5.273113       143.4887 
 714   0.0000       5.285409       143.8233 
 715   0.0000       5.288969       143.9202 
 716   0.0000       5.289210       143.9267 
 717   0.0000       5.295059       144.0859 
 718   0.0000       5.300960       144.2464 
 719   0.0000       5.300973       144.2468 
 720   0.0000       5.311646       144.5372 
 721   0.0000       5.311850       144.5428 
 722   0.0000       5.316682       144.6743 
 723   0.0000       5.319655       144.7552 
 724   0.0000       5.324474       144.8863 
 725   0.0000       5.362658       145.9254 
 726   0.0000       5.371118       146.1556 
 727   0.0000       5.388265       146.6221 
 728   0.0000       5.388767       146.6358 
 729   0.0000       5.393157       146.7553 
 730   0.0000       5.394095       146.7808 
 731   0.0000       5.420479       147.4987 
 732   0.0000       5.434912       147.8915 
 733   0.0000       5.478395       149.0747 
 734   0.0000       5.480095       149.1210 
 735   0.0000       5.482055       149.1743 
 736   0.0000       5.485681       149.2730 
 737   0.0000       5.493930       149.4974 
 738   0.0000       5.497374       149.5911 
 739   0.0000       5.498130       149.6117 
 740   0.0000       5.500085       149.6649 
 741   0.0000       5.507645       149.8707 
 742   0.0000       5.513248       150.0231 
 743   0.0000       5.616127       152.8226 
 744   0.0000       5.618508       152.8874 
 745   0.0000       5.618665       152.8916 
 746   0.0000       5.619627       152.9178 
 747   0.0000       5.656504       153.9213 
 748   0.0000       5.658851       153.9852 
 749   0.0000       5.718143       155.5986 
 750   0.0000       5.726035       155.8133 
 751   0.0000       5.779019       157.2551 
 752   0.0000       5.783552       157.3785 
 753   0.0000       5.797835       157.7671 
 754   0.0000       5.805064       157.9638 
 755   0.0000       5.814939       158.2325 
 756   0.0000       5.815565       158.2496 
 757   0.0000       5.849562       159.1747 
 758   0.0000       5.861436       159.4978 
 759   0.0000       5.897136       160.4692 
 760   0.0000       5.899160       160.5243 
 761   0.0000       5.902950       160.6274 
 762   0.0000       5.904555       160.6711 
 763   0.0000       6.182495       168.2342 
 764   0.0000       6.191449       168.4779 
 765   0.0000       6.194710       168.5666 
 766   0.0000       6.215660       169.1367 
 767   0.0000       6.359977       173.0638 
 768   0.0000       6.378251       173.5610 
 769   0.0000       6.617747       180.0781 
 770   0.0000       6.620400       180.1502 
 771   0.0000       6.626309       180.3110 
 772   0.0000       6.629036       180.3852 
 773   0.0000       6.643384       180.7757 
 774   0.0000       6.700958       182.3423 
 775   0.0000       6.701978       182.3701 
 776   0.0000       6.711807       182.6375 
 777   0.0000       6.784817       184.6243 
 778   0.0000       7.062171       192.1715 
 779   0.0000       7.145226       194.4315 
 780   0.0000       7.454949       202.8595 
 781   0.0000       8.184710       222.7173 
 782   0.0000       8.242858       224.2996 
 783   0.0000       8.263130       224.8512 
 784   0.0000       8.290911       225.6072 
 785   0.0000       8.316007       226.2901 
 786   0.0000       8.331830       226.7206 
 787   0.0000       8.532737       232.1876 
 788   0.0000       8.563165       233.0156 
 789   0.0000       8.604395       234.1375 
 790   0.0000       8.631824       234.8839 
 791   0.0000       8.724519       237.4062 
 792   0.0000      11.294137       307.3291 
 793   0.0000      11.514209       313.3175 
 794   0.0000      11.515354       313.3487 
 795   0.0000      15.957200       434.2175 
 796   0.0000      16.034902       436.3319 
 797   0.0000      23.637156       643.1997 
 798   0.0000      24.087890       655.4648 
 799   0.0000      24.097766       655.7335 
 800   0.0000      24.099570       655.7826 
 801   0.0000      24.114535       656.1898 
 802   0.0000      24.256617       660.0561 
 803   0.0000      24.264204       660.2625 
 804   0.0000      26.606156       723.9903 
 805   0.0000      33.395066       908.7259 
 806   0.0000      40.847532      1111.5178 
 807   0.0000      43.691552      1188.9076 
 808   0.0000      45.167164      1229.0610 
 809   0.0000      59.282779      1613.1664 
 810   0.0000     361.333156      9832.3750 

                    ********************************
                    * MULLIKEN POPULATION ANALYSIS *
                    ********************************

-----------------------
MULLIKEN ATOMIC CHARGES
-----------------------
   0 Ir:    0.015309
   1 P :    0.800892
   2 C :   -0.450102
   3 C :   -0.474565
   4 H :    0.151318
   5 H :    0.151302
   6 H :    0.135475
   7 H :    0.135398
   8 H :    0.098234
   9 H :    0.076690
  10 C :   -0.474676
  11 H :    0.140795
  12 H :    0.076451
  13 H :    0.098150
  14 P :    0.800871
  15 C :   -0.450167
  16 C :   -0.474817
  17 H :    0.135323
  18 H :    0.151361
  19 H :    0.076707
  20 C :   -0.474314
  21 H :    0.135489
  22 H :    0.151269
  23 H :    0.140806
  24 H :    0.098132
  25 H :    0.076520
  26 H :    0.098313
  27 C :    0.297783
  28 O :   -0.523317
  29 Cl:   -0.720633
Sum of atomic charges:   -0.0000000

--------------------------------
MULLIKEN REDUCED ORBITAL CHARGES
--------------------------------
  0 Irs       :     3.085665  s :     3.085665
      pz      :     1.988110  p :     6.202860
      px      :     2.125936
      py      :     2.088814
      dz2     :     1.747394  d :     7.631791
      dxz     :     1.851646
      dyz     :     1.614616
      dx2y2   :     0.780934
      dxy     :     1.637202
      f0      :     0.003718  f :     0.061769
      f+1     :     0.006775
      f-1     :     0.010781
      f+2     :     0.005522
      f-2     :     0.000146
      f+3     :     0.016297
      f-3     :     0.018529
      g0      :     0.000368  g :     0.002606
      g+1     :     0.000240
      g-1     :     0.000449
      g+2     :     0.000587
      g-2     :     0.000179
      g+3     :     0.000013
      g-3     :     0.000112
      g+4     :     0.000476
      g-4     :     0.000182
  1 P s       :     5.480523  s :     5.480523
      pz      :     2.689750  p :     8.388653
      px      :     3.002452
      py      :     2.696451
      dz2     :     0.027090  d :     0.286670
      dxz     :     0.115721
      dyz     :     0.106296
      dx2y2   :    -0.027968
      dxy     :     0.065530
      f0      :     0.006703  f :     0.043262
      f+1     :     0.005895
      f-1     :     0.004764
      f+2     :     0.006760
      f-2     :     0.007102
      f+3     :     0.005402
      f-3     :     0.006635
  2 C s       :     3.012974  s :     3.012974
      pz      :     1.183652  p :     3.338149
      px      :     1.099936
      py      :     1.054561
      dz2     :     0.031003  d :     0.096460
      dxz     :     0.020167
      dyz     :     0.019254
      dx2y2   :     0.026828
      dxy     :    -0.000792
      f0      :     0.000106  f :     0.002519
      f+1     :     0.000349
      f-1     :     0.000738
      f+2     :     0.000224
      f-2     :     0.000129
      f+3     :     0.000629
      f-3     :     0.000343
  3 C s       :     3.030481  s :     3.030481
      pz      :     1.062734  p :     3.347457
      px      :     1.144024
      py      :     1.140699
      dz2     :     0.018844  d :     0.094097
      dxz     :     0.004335
      dyz     :     0.021044
      dx2y2   :     0.038584
      dxy     :     0.011290
      f0      :     0.000316  f :     0.002530
      f+1     :     0.000337
      f-1     :     0.000711
      f+2     :     0.000239
      f-2     :     0.000244
      f+3     :     0.000558
      f-3     :     0.000124
  4 H s       :     0.794529  s :     0.794529
      pz      :     0.005214  p :     0.052162
      px      :     0.029972
      py      :     0.016977
      dz2     :     0.000106  d :     0.001991
      dxz     :     0.000796
      dyz     :     0.000037
      dx2y2   :     0.000295
      dxy     :     0.000757
  5 H s       :     0.794605  s :     0.794605
      pz      :     0.005156  p :     0.052102
      px      :     0.029961
      py      :     0.016985
      dz2     :     0.000107  d :     0.001991
      dxz     :     0.000795
      dyz     :     0.000038
      dx2y2   :     0.000295
      dxy     :     0.000756
  6 H s       :     0.819022  s :     0.819022
      pz      :     0.008253  p :     0.043489
      px      :     0.006691
      py      :     0.028546
      dz2     :     0.000098  d :     0.002014
      dxz     :     0.000122
      dyz     :     0.000715
      dx2y2   :     0.000611
      dxy     :     0.000468
  7 H s       :     0.819075  s :     0.819075
      pz      :     0.008371  p :     0.043513
      px      :     0.006588
      py      :     0.028554
      dz2     :     0.000098  d :     0.002014
      dxz     :     0.000123
      dyz     :     0.000714
      dx2y2   :     0.000612
      dxy     :     0.000467
  8 H s       :     0.848595  s :     0.848595
      pz      :     0.025396  p :     0.051161
      px      :     0.008107
      py      :     0.017658
      dz2     :     0.000653  d :     0.002009
      dxz     :     0.000466
      dyz     :     0.000363
      dx2y2   :     0.000284
      dxy     :     0.000242
  9 H s       :     0.858971  s :     0.858971
      pz      :     0.031814  p :     0.062323
      px      :     0.020534
      py      :     0.009976
      dz2     :     0.000663  d :     0.002015
      dxz     :     0.000498
      dyz     :     0.000426
      dx2y2   :     0.000237
      dxy     :     0.000191
 10 C s       :     3.030513  s :     3.030513
      pz      :     1.063318  p :     3.347396
      px      :     1.143465
      py      :     1.140614
      dz2     :     0.018908  d :     0.094237
      dxz     :     0.004342
      dyz     :     0.021013
      dx2y2   :     0.038650
      dxy     :     0.011323
      f0      :     0.000316  f :     0.002530
      f+1     :     0.000335
      f-1     :     0.000711
      f+2     :     0.000241
      f-2     :     0.000244
      f+3     :     0.000557
      f-3     :     0.000125
 11 H s       :     0.808313  s :     0.808313
      pz      :     0.016833  p :     0.048890
      px      :     0.031677
      py      :     0.000380
      dz2     :     0.000103  d :     0.002002
      dxz     :     0.000684
      dyz     :     0.000049
      dx2y2   :     0.000323
      dxy     :     0.000843
 12 H s       :     0.859225  s :     0.859225
      pz      :     0.031861  p :     0.062309
      px      :     0.020501
      py      :     0.009948
      dz2     :     0.000662  d :     0.002015
      dxz     :     0.000501
      dyz     :     0.000427
      dx2y2   :     0.000235
[...]
 14 P s       :     4.649608  s :     4.649608
      pz      :     2.676977  p :     8.256473
      px      :     2.910529
      py      :     2.668967
      dz2     :     0.245640  d :     1.232990
      dxz     :     0.214283
      dyz     :     0.244606
      dx2y2   :     0.237385
      dxy     :     0.291077
      f0      :     0.020179  f :     0.128413
      f+1     :     0.017183
      f-1     :     0.015560
      f+2     :     0.019598
      f-2     :     0.020922
      f+3     :     0.015257
      f-3     :     0.019714
 15 C s       :     2.687460  s :     2.687460
      pz      :     0.947123  p :     2.837089
      px      :     0.949136
      py      :     0.940829
      dz2     :     0.084828  d :     0.479305
      dxz     :     0.030872
      dyz     :     0.123429
      dx2y2   :     0.134525
      dxy     :     0.105651
      f0      :     0.000556  f :     0.020857
      f+1     :     0.004160
      f-1     :     0.005027
      f+2     :     0.002523
      f-2     :     0.002024
      f+3     :     0.004422
      f-3     :     0.002146
 16 C s       :     2.689480  s :     2.689480
      pz      :     0.937612  p :     2.835763
      px      :     0.948038
      py      :     0.950114
      dz2     :     0.121337  d :     0.482544
      dxz     :     0.076229
      dyz     :     0.102983
      dx2y2   :     0.105560
      dxy     :     0.076435
      f0      :     0.001833  f :     0.020753
      f+1     :     0.003542
      f-1     :     0.004478
      f+2     :     0.001762
      f-2     :     0.003168
      f+3     :     0.004732
      f-3     :     0.001238
 17 H s       :     0.703645  s :     0.703645
      pz      :     0.090723  p :     0.346376
      px      :     0.119053
      py      :     0.136601
      dz2     :     0.002622  d :     0.030271
      dxz     :     0.001636
      dyz     :     0.008482
      dx2y2   :     0.009507
      dxy     :     0.008023
 18 H s       :     0.712548  s :     0.712548
      pz      :     0.084622  p :     0.305318
      px      :     0.138545
      py      :     0.082151
      dz2     :     0.002743  d :     0.029901
      dxz     :     0.009381
      dyz     :     0.000292
      dx2y2   :     0.007724
      dxy     :     0.009761
 19 H s       :     0.714211  s :     0.714211
      pz      :     0.125831  p :     0.307313
      px      :     0.085901
      py      :     0.095581
      dz2     :     0.010112  d :     0.030121
      dxz     :     0.006666
      dyz     :     0.007774
      dx2y2   :     0.003009
      dxy     :     0.002560
 20 C s       :     2.689520  s :     2.689520
      pz      :     0.937632  p :     2.835754
      px      :     0.947993
      py      :     0.950129
      dz2     :     0.121314  d :     0.482379
      dxz     :     0.076815
      dyz     :     0.103045
      dx2y2   :     0.105704
      dxy     :     0.075501
      f0      :     0.001811  f :     0.020751
      f+1     :     0.003575
      f-1     :     0.004474
      f+2     :     0.001734
      f-2     :     0.003190
      f+3     :     0.004749
      f-3     :     0.001217
 21 H s       :     0.703591  s :     0.703591
      pz      :     0.090735  p :     0.347044
      px      :     0.119806
      py      :     0.136503
      dz2     :     0.002622  d :     0.030272
      dxz     :     0.001668
      dyz     :     0.008448
      dx2y2   :     0.009521
      dxy     :     0.008013
 22 H s       :     0.712537  s :     0.712537
      pz      :     0.084665  p :     0.305307
      px      :     0.138439
      py      :     0.082203
      dz2     :     0.002761  d :     0.029903
      dxz     :     0.009352
      dyz     :     0.000311
      dx2y2   :     0.007722
      dxy     :     0.009757
 23 H s       :     0.712515  s :     0.712515
      pz      :     0.079922  p :     0.305714
      px      :     0.138922
      py      :     0.086870
      dz2     :     0.002664  d :     0.029949
      dxz     :     0.009052
      dyz     :     0.000481
      dx2y2   :     0.008247
      dxy     :     0.009506
 24 H s       :     0.708951  s :     0.708951
      pz      :     0.119853  p :     0.310351
      px      :     0.088822
      py      :     0.101676
      dz2     :     0.009176  d :     0.030199
      dxz     :     0.006122
      dyz     :     0.008185
      dx2y2   :     0.003588
      dxy     :     0.003127
 25 H s       :     0.714191  s :     0.714191
      pz      :     0.126057  p :     0.307252
      px      :     0.085685
      py      :     0.095510
      dz2     :     0.010134  d :     0.030121
      dxz     :     0.006700
      dyz     :     0.007803
      dx2y2   :     0.002956
      dxy     :     0.002529
 26 H s       :     0.708925  s :     0.708925
      pz      :     0.119698  p :     0.310360
      px      :     0.088816
      py      :     0.101846
      dz2     :     0.009164  d :     0.030199
      dxz     :     0.006098
      dyz     :     0.008173
      dx2y2   :     0.003613
      dxy     :     0.003151
 27 C s       :     2.965473  s :     2.965473
      pz      :     0.650899  p :     2.377232
      px      :     0.611321
      py      :     1.115012
      dz2     :     0.106011  d :     1.029715
      dxz     :     0.027125
      dyz     :     0.285068
      dx2y2   :     0.262140
      dxy     :     0.349371
      f0      :     0.011185  f :     0.099053
      f+1     :     0.001911
      f-1     :     0.015439
      f+2     :     0.018251
      f-2     :     0.001379
      f+3     :     0.028054
      f-3     :     0.022832
 28 O s       :     3.400328  s :     3.400328
      pz      :     1.410891  p :     4.389758
      px      :     1.387895
      py      :     1.590972
      dz2     :     0.027116  d :     0.207719
      dxz     :     0.000556
      dyz     :     0.051437
      dx2y2   :     0.087724
      dxy     :     0.040886
      f0      :     0.000512  f :     0.005674
      f+1     :     0.000076
      f-1     :     0.001183
      f+2     :     0.000841
      f-2     :     0.000002
      f+3     :     0.001115
      f-3     :     0.001945
 29 Cls       :     5.673637  s :     5.673637
      pz      :     3.812159  p :    11.267337
      px      :     3.786067
      py      :     3.669111
      dz2     :     0.020871  d :     0.200040
      dxz     :     0.024966
      dyz     :     0.024530
      dx2y2   :     0.054355
      dxy     :     0.075319
      f0      :     0.000362  f :     0.003708
      f+1     :     0.000111
      f-1     :     0.000603
      f+2     :     0.000631
      f-2     :     0.000101
      f+3     :     0.001294
      f-3     :     0.000607


                      *****************************
                      * MAYER POPULATION ANALYSIS *
                      *****************************

  NA   - Mulliken gross atomic population
  ZA   - Total nuclear charge
  QA   - Mulliken gross atomic charge
  VA   - Mayer's total valence
  BVA  - Mayer's bonded valence
  FA   - Mayer's free valence

  ATOM       NA         ZA         QA         VA         BVA        FA
  0 Ir    16.9847    17.0000     0.0153     4.1727     4.1727     0.0000
  1 P     14.1991    15.0000     0.8009     3.1921     3.1921    -0.0000
  2 C      6.4501     6.0000    -0.4501     3.9177     3.9177    -0.0000
  3 C      6.4746     6.0000    -0.4746     4.0100     4.0100     0.0000
  4 H      0.8487     1.0000     0.1513     1.0612     1.0612     0.0000
  5 H      0.8487     1.0000     0.1513     1.0611     1.0611    -0.0000
  6 H      0.8645     1.0000     0.1355     1.0694     1.0694     0.0000
  7 H      0.8646     1.0000     0.1354     1.0697     1.0697     0.0000
  8 H      0.9018     1.0000     0.0982     1.0886     1.0886    -0.0000
  9 H      0.9233     1.0000     0.0767     1.1221     1.1221     0.0000
 10 C      6.4747     6.0000    -0.4747     4.0103     4.0103     0.0000
 11 H      0.8592     1.0000     0.1408     1.0557     1.0557    -0.0000
 12 H      0.9235     1.0000     0.0765     1.1222     1.1222     0.0000
 13 H      0.9019     1.0000     0.0981     1.0888     1.0888    -0.0000
 14 P     14.1991    15.0000     0.8009     3.1916     3.1916    -0.0000
 15 C      6.4502     6.0000    -0.4502     3.9176     3.9176     0.0000
 16 C      6.4748     6.0000    -0.4748     4.0104     4.0104     0.0000
 17 H      0.8647     1.0000     0.1353     1.0696     1.0696    -0.0000
 18 H      0.8486     1.0000     0.1514     1.0611     1.0611    -0.0000
 19 H      0.9233     1.0000     0.0767     1.1220     1.1220    -0.0000
 20 C      6.4743     6.0000    -0.4743     4.0097     4.0097    -0.0000
 21 H      0.8645     1.0000     0.1355     1.0695     1.0695     0.0000
 22 H      0.8487     1.0000     0.1513     1.0612     1.0612    -0.0000
 23 H      0.8592     1.0000     0.1408     1.0557     1.0557     0.0000
 24 H      0.9019     1.0000     0.0981     1.0887     1.0887     0.0000
 25 H      0.9235     1.0000     0.0765     1.1222     1.1222    -0.0000
 26 H      0.9017     1.0000     0.0983     1.0886     1.0886     0.0000
 27 C      5.7022     6.0000     0.2978     3.6794     3.6794    -0.0000
 28 O      8.5233     8.0000    -0.5233     2.1258     2.1258    -0.0000
 29 Cl    17.7206    17.0000    -0.7206     0.6431     0.6431    -0.0000

  Mayer bond orders larger than 0.100000
B(  0-Ir,  1-P ) :   0.7817 B(  0-Ir, 14-P ) :   0.7811 B(  0-Ir, 27-C ) :   1.8281 
B(  0-Ir, 28-O ) :   0.1664 B(  0-Ir, 29-Cl) :   0.3687 B(  1-P ,  2-C ) :   0.7267 
B(  1-P ,  3-C ) :   0.8222 B(  1-P , 10-C ) :   0.8228 B(  1-P , 29-Cl) :   0.1752 
B(  2-C ,  8-H ) :   1.0146 B(  2-C , 11-H ) :   1.0099 B(  2-C , 13-H ) :   1.0147 
B(  3-C ,  4-H ) :   0.9895 B(  3-C ,  6-H ) :   0.9984 B(  3-C ,  9-H ) :   1.0313 
B(  5-H , 10-C ) :   0.9896 B(  7-H , 10-C ) :   0.9983 B( 10-C , 12-H ) :   1.0313 
B( 14-P , 15-C ) :   0.7267 B( 14-P , 16-C ) :   0.8225 B( 14-P , 20-C ) :   0.8225 
B( 14-P , 29-Cl) :   0.1757 B( 15-C , 23-H ) :   1.0098 B( 15-C , 24-H ) :   1.0147 
B( 15-C , 26-H ) :   1.0146 B( 16-C , 21-H ) :   0.9984 B( 16-C , 22-H ) :   0.9896 
B( 16-C , 25-H ) :   1.0315 B( 17-H , 20-C ) :   0.9983 B( 18-H , 20-C ) :   0.9895 
B( 19-H , 20-C ) :   1.0312 B( 27-C , 28-O ) :   1.9550 

-------
TIMINGS
-------

Total SCF time: 0 days 0 hours 1 min 31 sec 

Total time                  ....      91.461 sec
Sum of individual times     ....      90.232 sec  ( 98.7%)

Fock matrix formation       ....      81.047 sec  ( 88.6%)
  XC integration            ....       7.991 sec  (  9.9% of F)
    Basis function eval.    ....       1.344 sec  ( 16.8% of XC)
    Density eval.           ....       2.580 sec  ( 32.3% of XC)
    XC-Functional eval.     ....       0.086 sec  (  1.1% of XC)
    XC-Potential eval.      ....       2.771 sec  ( 34.7% of XC)
Diagonalization             ....       3.813 sec  (  4.2%)
Density matrix formation    ....       0.133 sec  (  0.1%)
Population analysis         ....       0.173 sec  (  0.2%)
Initial guess               ....       1.799 sec  (  2.0%)
Orbital Transformation      ....       0.000 sec  (  0.0%)
Orbital Orthonormalization  ....       0.000 sec  (  0.0%)
DIIS solution               ....       2.244 sec  (  2.5%)
Grid generation             ....       1.022 sec  (  1.1%)


           ************************************************************
           *        Program running with 24 parallel MPI-processes    *
           *              working on a common directory               *
           ************************************************************

------------------------------------------------------------------------------
                                ORCA  MP2 
------------------------------------------------------------------------------

Freezing NCore=46 chemical core electrons

-------------
RI-MP2 ENERGY
-------------
Dimension of the basis                    ...  811
Memory devoted to MP2                     ... 5000 MB   
Data format for buffers                   ... DOUBLE
Compression type for matrix containers    ... UNCOMPRESSED
Overall scaling of the MP2 energy         ...   2.700e-01
Calculating two index integrals           ... done (    0.030 sec)
Cholesky decomposition of V**-1           ... done (    0.740 sec)

-----------------
RI-TRANSFORMATION (AUX index driven)
-----------------

Dimension of the orbital-basis         ... 811
Dimension of the aux-basis             ... 2048
Transformation of internal/external MOs...   23-  65 to   66- 810
Number Format for Storage              ... Double (8 Byte)
Integral mode                          ... Direct

First Phase: integral generation and transformation of MO indices
  Aux angular momentum 0               ... done (    0.156 sec)
  Aux angular momentum 1               ... done (    0.283 sec)
  Aux angular momentum 2               ... done (    0.450 sec)
  Aux angular momentum 3               ... done (    0.408 sec)
  Aux angular momentum 4               ... done (    0.114 sec)
  Aux angular momentum 5               ... done (    0.146 sec)
  Aux angular momentum 6               ... done (    0.186 sec)
Closing buffer VIA ( 0.49 GB; CompressionRatio= 1.00)
  Phase 1 completed in     1.856 sec
Second Phase: sorting and transformation of aux index

IA-Transformation
Memory available                       ... 4916 MB 
Max. # MO pairs treated in a batch     ... 2    
# of internal orbitals                 ... 43
# batches for internal orbitals        ... 1
Closing buffer IAV ( 0.02 GB; CompressionRatio= 1.00)
(ia|v) transformation done in     0.403 sec

  Phase 2 completed in     0.874 sec
RI-Integral transformation completed in     2.743 sec
Opening buffers                              ... done

Starting loop over batches of integrals:

Operator 0  - window                       ... ( 23- 65)x( 66-810)
Operator 0  - Memory available             ...  5000 MB
Operator 0  - Memory needed per MO         ...  11.6 MB
Operator 0  - Number of orbitals per batch ... 2
Operator 0  - Number of batches            ... 1

OPERATOR  0   PASS   0:  MOs    23 ...   24 +   25 ...   26 +   27 ...   28 +   29 ...   30
                            +   31 ...   32 +   33 ...   34 +   35 ...   36 +   37 ...   38
                            +   39 ...   40 +   41 ...   42 +   43 ...   44 +   45 ...   46
                            +   47 ...   48 +   49 ...   50 +   51 ...   52 +   53 ...   54
                            +   55 ...   56 +   57 ...   58 +   59 ...   60 +   61 ...   62
                            +   63 ...   64 +   65 ...   65
  Reading integrals       ... ok
Time spent in pair loops =     0.188 sec
Deleting buffer (Ka|jb)[aa] ...done

-----------------------------------------------
 RI-MP2 CORRELATION ENERGY:     -0.882132661 Eh
-----------------------------------------------


-------
TIMINGS
-------

Total time                :    7.431 sec
Integral trafo            :    2.757 sec ( 37.1%)
I/O of integrals          :    0.023 sec (  0.3%)
K(i,j) Operators          :    0.121 sec (  1.6%)
T(i,j) pair energies      :    0.026 sec (  0.3%)
V-calculation             :    0.030 sec (  0.4%)
V**(-1/2)                 :    0.740 sec ( 10.0%)
Gamma(ia|P)               :    0.000 sec (  0.0%)
Gamma-Trafo               :    0.000 sec (  0.0%)
D(virtual)                :    0.000 sec (  0.0%)
D(internal)               :    0.000 sec (  0.0%)
W(virtual)                :    0.000 sec (  0.0%)
W(internal)               :    0.000 sec (  0.0%)
L(virtual)                :    0.000 sec (  0.0%)
L(internal)               :    0.000 sec (  0.0%)
G(D)                      :    0.000 sec (  0.0%)
G(Z)                      :    0.000 sec (  0.0%)
Z-Vector Solution         :    0.000 sec (  0.0%)
Z-Vector Solution         :    0.000 sec (  0.0%)
3-Index Derivative 
+ Separable RIJ part      :    0.000 sec (  0.0%)
2-Index Derivative 
+ Separable RIJ part      :    0.000 sec (  0.0%)
Separable Gradient (X)    :    0.000 sec (  0.0%)


---------------------------------------
MP2 TOTAL ENERGY:    -1599.670644475 Eh
---------------------------------------


-------------------------------------------------------------------------------
                          DFT DISPERSION CORRECTION                            
                                                                               
                              DFTD3 V3.1  Rev 1                                
                          USING Becke-Johnson damping                          
-------------------------------------------------------------------------------
The B2PLYP functional is recognized
Active option DFTDOPT                   ...         4   

molecular C6(AA) [au] = 13771.738814 


            DFT-D V3
 parameters
 s6 scaling factor         :     0.6400 
 a1 scaling factor         :     0.3065 
 s8 scaling factor         :     0.9147 
 a2 scaling factor         :     5.0570 
 ad hoc parameters k1-k3   :    16.0000     1.3333    -4.0000 

 Edisp/kcal,au: -23.448725358382  -0.037367918456 
 E6   /kcal   : -11.573935132 
 E8   /kcal   : -11.874790226 
 % E8         :  50.641516947 

-------------------------   ----------------
Dispersion correction           -0.037367918
-------------------------   ----------------


-------------------------   --------------------
FINAL SINGLE POINT ENERGY     -1599.708012393311
-------------------------   --------------------


                            ***************************************
                            *     ORCA property calculations      *
                            ***************************************


  WARNING: The energy has been calculated at the MP2 level but the densities
           used in the property calculations are still SCF densities
           MP2 response densities have not been calculated 
           use %mp2 Density relaxed end
           or  %mp2 Density unrelaxed end

                                    ---------------------
                                    Active property flags
                                    ---------------------
   (+) Dipole Moment


------------------------------------------------------------------------------
                       ORCA ELECTRIC PROPERTIES CALCULATION
------------------------------------------------------------------------------

Dipole Moment Calculation                       ... on
Quadrupole Moment Calculation                   ... off
Polarizability Calculation                      ... off
GBWName                                         ... MOR12_ed18.gbw
Electron density file                           ... MOR12_ed18.scfp
The origin for moment calculation is the CENTER OF MASS  = (-0.000001,  0.016343 -0.000404)

-------------
DIPOLE MOMENT
-------------
                                X             Y             Z
Electronic contribution:      0.00111      16.13119      -0.17778
Nuclear contribution   :     -0.00090     -15.69990       0.18198
                        -----------------------------------------
Total Dipole Moment    :      0.00021       0.43129       0.00420
                        -----------------------------------------
Magnitude (a.u.)       :      0.43131
Magnitude (Debye)      :      1.09630



--------------------
Rotational spectrum 
--------------------
 
Rotational constants in cm-1:     0.025294     0.012430     0.009680 
Rotational constants in MHz :   758.298673   372.651784   290.199928 

 Dipole components along the rotational axes: 
x,y,z [a.u.] :     0.000224     0.431290     0.004194 
x,y,z [Debye]:     0.000568     1.096251     0.010659 

 

Timings for individual modules:

Sum of individual times         ...      104.016 sec (=   1.734 min)
GTO integral calculation        ...        4.115 sec (=   0.069 min)   4.0 %
SCF iterations                  ...       91.860 sec (=   1.531 min)  88.3 %
MP2 module                      ...        8.041 sec (=   0.134 min)   7.7 %
                             ****ORCA TERMINATED NORMALLY****
TOTAL RUN TIME: 0 days 0 hours 1 minutes 44 seconds 615 msec
