
                                 *****************
                                 * O   R   C   A *
                                 *****************

           --- An Ab Initio, DFT and Semiempirical electronic structure package ---

                  #######################################################
                  #                        -***-                        #
                  #          Department of theory and spectroscopy      #
                  #               Directorship: Frank Neese             #
                  #        Max Planck Institute fuer Kohlenforschung    #
                  #                Kaiser Wilhelm Platz 1               #
                  #                 D-45470 Muelheim/Ruhr               #
                  #                      Germany                        #
                  #                                                     #
                  #                  All rights reserved                #
                  #                        -***-                        #
                  #######################################################


                         Program Version 4.2.0 -  RELEASE  -


 With contributions from (in alphabetic order):
   Daniel Aravena         : Magnetic Suceptibility
   Michael Atanasov       : Ab Initio Ligand Field Theory (pilot matlab implementation)
   Alexander A. Auer      : GIAO ZORA, VPT2
   Ute Becker             : Parallelization
   Giovanni Bistoni       : ED, misc. LED, open-shell LED, HFLED
   Martin Brehm           : Molecular dynamics
   Dmytro Bykov           : SCF Hessian
   Vijay G. Chilkuri      : MRCI spin determinant printing, contributions to CSF-ICE
   Dipayan Datta          : RHF DLPNO-CCSD density
   Achintya Kumar Dutta   : EOM-CC, STEOM-CC
   Dmitry Ganyushin       : Spin-Orbit,Spin-Spin,Magnetic field MRCI
   Miquel Garcia          : C-PCM Hessian, Gaussian charge scheme
   Yang Guo               : DLPNO-NEVPT2, CIM, IAO-localization
   Andreas Hansen         : Spin unrestricted coupled pair/coupled cluster methods
   Benjamin Helmich-Paris : CASSCF linear response (MC-RPA)
   Lee Huntington         : MR-EOM, pCC
   Robert Izsak           : Overlap fitted RIJCOSX, COSX-SCS-MP3, EOM
   Christian Kollmar      : KDIIS, OOCD, Brueckner-CCSD(T), CCSD density
   Simone Kossmann        : Meta GGA functionals, TD-DFT gradient, OOMP2, MP2 Hessian
   Martin Krupicka        : AUTO-CI
   Lucas Lang             : DCDCAS
   Dagmar Lenk            : GEPOL surface, SMD
   Dimitrios Liakos       : Extrapolation schemes; Compound Job, initial MDCI parallelization
   Dimitrios Manganas     : Further ROCIS development; embedding schemes
   Dimitrios Pantazis     : SARC Basis sets
   Taras Petrenko         : DFT Hessian,TD-DFT gradient, ASA, ECA, R-Raman, ABS, FL, XAS/XES, NRVS
   Peter Pinski           : DLPNO-MP2, DLPNO-MP2 Gradient
   Christoph Reimann      : Effective Core Potentials
   Marius Retegan         : Local ZFS, SOC
   Christoph Riplinger    : Optimizer, TS searches, QM/MM, DLPNO-CCSD(T), (RO)-DLPNO pert. Triples
   Tobias Risthaus        : Range-separated hybrids, TD-DFT gradient, RPA, STAB
   Michael Roemelt        : Original ROCIS implementation
   Masaaki Saitow         : Open-shell DLPNO-CCSD energy and density
   Barbara Sandhoefer     : DKH picture change effects
   Avijit Sen             : IP-ROCIS
   Kantharuban Sivalingam : CASSCF convergence, NEVPT2, FIC-MRCI
   Bernardo de Souza      : ESD, SOC TD-DFT
   Georgi Stoychev        : AutoAux, RI-MP2 NMR
   Willem Van den Heuvel  : Paramagnetic NMR
   Boris Wezisla          : Elementary symmetry handling
   Frank Wennmohs         : Technical directorship


 We gratefully acknowledge several colleagues who have allowed us to
 interface, adapt or use parts of their codes:
   Stefan Grimme, W. Hujo, H. Kruse,             : VdW corrections, initial TS optimization,
                  C. Bannwarth                     DFT functionals, gCP, sTDA/sTD-DF
   Ed Valeev, F. Pavosevic, A. Kumar             : LibInt (2-el integral package), F12 methods
   Garnet Chan, S. Sharma, J. Yang, R. Olivares  : DMRG
   Ulf Ekstrom                                   : XCFun DFT Library
   Mihaly Kallay                                 : mrcc  (arbitrary order and MRCC methods)
   Andreas Klamt, Michael Diedenhofen            : otool_cosmo (COSMO solvation model)
   Jiri Pittner, Ondrej Demel                    : Mk-CCSD
   Frank Weinhold                                : gennbo (NPA and NBO analysis)
   Christopher J. Cramer and Donald G. Truhlar   : smd solvation model
   Lars Goerigk                                  : TD-DFT with DH, B97 family of functionals
   V. Asgeirsson, H. Jonsson                     : NEB implementation
   FAccTs GmbH                                   : IRC, NEB, NEB-TS, Multilevel, MM, QM/MM, CI optimization
   S Lehtola, MJT Oliveira, MAL Marques          : LibXC Library


 Your calculation uses the libint2 library for the computation of 2-el integrals
 For citations please refer to: http://libint.valeyev.net

 Your ORCA version has been built with support for libXC version: 4.2.3
 For citations please refer to: https://tddft.org/programs/libxc/

 This ORCA versions uses:
   CBLAS   interface :  Fast vector & matrix operations
   LAPACKE interface :  Fast linear algebra routines
   SCALAPACK package :  Parallel linear algebra routines


Your calculation utilizes the atom-pairwise dispersion correction
with the Becke-Johnson damping scheme (D3BJ)
Cite in your paper:
S.Grimme, S.Ehrlich, L.Goerigk, J Comput Chem, (2011), 32, 1456–1465 
S.Grimme, J.Antony, S.Ehrlich and H.Krieg, J.Chem.Phys., 132, (2010), 154104 
   

----- Orbital basis set information -----
Your calculation utilizes the basis: def2-TZVPPD
   F. Weigend and R. Ahlrichs, Phys. Chem. Chem. Phys. 7, 3297 (2005).
   D. Rappoport and F. Furche, J. Chem. Phys. 133 134105 (2010).

----- AuxC basis set information -----
Your calculation utilizes the auxiliary basis: def2-TZVPPD/C
   A. Hellweg, C. Hattig, S. Hofener and W. Klopper, Theor. Chem. Acc. 117, 587 (2007).

----- AuxJK basis set information -----
Your calculation utilizes the auxiliary basis: def2/JK
   H-Ba, Hf-Rn: F. Weigend, J. Comput. Chem. 29, 167 (2008).

cite the ECPs for Ru [Def2-ECP] as follows:
Ce-Yb(ecp-28): M. Dolg, H. Stoll, H.Preuss, J. Chem. Phys., 1989, 90, 1730-1734.
Y-Cd(ecp-28), Hf-Hg(ecp-46): D. Andrae,U. Haeussermann, M. Dolg, H. Stoll, H. Preuss, Theor. Chim. Acta, 1990, 77, 123-141.
In-Sb(ecp-28), Tl-Bi(ecp-46): B. Metz, H. Stoll, M. Dolg, J. Chem. Phys., 2000, 113, 2563-2569.
Te-Xe(ecp-28), Po-Rn(ecp-46): K. A. Peterson, D. Figgen, E. Goll, H. Stoll, M. Dolg, J. Chem. Phys., 2003, 119, 11113-11123.
Rb(ecp-28), Cs(ecp-46): T. Leininger, A. Nicklass, W. Kuechle, H. Stoll, M. Dolg, A. Bergner, Chem. Phys. Lett., 1996, 255, 274-280.
Sr(ecp-28), Ba(ecp-46): M. Kaupp, P. V. Schleyer, H. Stoll and H. Preuss, J. Chem. Phys., 1991, 94, 1360-1366.
La(ecp-46): M. Dolg, H. Stoll, A. Savin, H. Preuss, Theor. Chim. Acta, 1989, 75, 173-194.
Lu(ecp-28): X. Cao, M. Dolg, J. Chem. Phys., 2001, 115, 7348-7355.

ECP parameters for Ru [Def2-ECP] have been obtained from:
TURBOMOLE (7.0.2)

================================================================================
                                        WARNINGS
                       Please study these warnings very carefully!
================================================================================


WARNING: No MP2 level density has been requested!
         To caclulate MP2 level properties use
         %mp2 Density relaxed end
         or
         %mp2 Density unrelaxed end
         Otherwise for double-hybrid DFT only the energy is correct!

WARNING: The frozen-core approximation is turned on by default for 
         the MP2 part of double-hybrid DFT.

INFO   : the flag for use of LIBINT has been found!

================================================================================
                                       INPUT FILE
================================================================================
NAME = MOR14_ed26.in
|  1> #
|  2> # MOR14_ed26 ri-B2PLYP-D3BJ/Def2-TZVPPD
|  3> #
|  4> ! rijk ri-b2plyp d3bj def2-tzvppd def2/jk def2-tzvppd/c grid4 nofinalgrid
|  5> 
|  6> *xyz 0 1
|  7> Ru      -0.064344   -0.175682   -0.012222 
|  8> C        1.546320    1.136494   -0.983353 
|  9> C        1.182588    1.622095    0.326342 
| 10> C        2.076803   -0.497674    0.579629 
| 11> C        2.043947   -0.183601   -0.846926 
| 12> C        1.561141    0.611266    1.297590 
| 13> C        1.492783    1.931783   -2.249249 
| 14> H        0.696535    2.680581   -2.225612 
| 15> H        1.338709    1.291322   -3.121811 
| 16> H        2.442862    2.463439   -2.390633 
| 17> C        2.565540   -1.075324   -1.928175 
| 18> H        2.249514   -0.728507   -2.915600 
| 19> H        2.192282   -2.094362   -1.786204 
| 20> H        3.663236   -1.101421   -1.912436 
| 21> C        2.692583   -1.723434    1.172166 
| 22> H        3.783501   -1.598681    1.210971 
| 23> H        2.457484   -2.606090    0.574387 
| 24> H        2.333089   -1.899010    2.188816 
| 25> C        1.552612    0.773239    2.786124 
| 26> H        2.502734    1.205302    3.127194 
| 27> H        1.421923   -0.187720    3.289969 
| 28> H        0.754394    1.442873    3.118115 
| 29> C        0.799428    3.031668    0.660505 
| 30> H        1.693878    3.613580    0.920796 
| 31> H        0.118442    3.075561    1.514596 
| 32> H        0.315927    3.528553   -0.183556 
| 33> Cl      -0.006885   -2.617235   -0.279085 
| 34> C       -1.774511   -0.580489   -1.372668 
| 35> C       -1.428717    0.775607   -1.463600 
| 36> C       -2.230150    1.901113   -0.842184 
| 37> C       -2.597560    1.596364    0.619137 
| 38> C       -1.528383    0.747182    1.301561 
| 39> C       -1.615603   -0.659023    1.435525 
| 40> C       -2.738883   -1.472042    0.832207 
| 41> C       -3.001399   -1.117797   -0.653050 
| 42> H       -3.131417    2.097786   -1.444322 
| 43> H       -3.561641    1.080890    0.673312 
| 44> H       -1.631000    2.816891   -0.882167 
| 45> H       -3.816216   -0.389170   -0.734954 
| 46> H       -1.353755   -1.240657   -2.123162 
| 47> H       -0.836828    1.063474   -2.328552 
| 48> H       -3.337183   -2.018298   -1.174989 
| 49> H       -2.460187   -2.525401    0.898608 
| 50> H       -1.127422   -1.117347    2.293712 
| 51> H       -3.660878   -1.338434    1.419672 
| 52> H       -2.720080    2.533691    1.172959 
| 53> H       -0.970929    1.269583    2.073632 
| 54> *
| 55> 
| 56> %maxcore 5000
| 57> 
| 58> %pal
| 59> nprocs = 24
| 60> end
| 61> 
| 62> 
| 63>                          ****END OF INPUT****
================================================================================

                       ****************************
                       * Single Point Calculation *
                       ****************************

---------------------------------
CARTESIAN COORDINATES (ANGSTROEM)
---------------------------------
  Ru    -0.064344   -0.175682   -0.012222
  C      1.546320    1.136494   -0.983353
  C      1.182588    1.622095    0.326342
  C      2.076803   -0.497674    0.579629
  C      2.043947   -0.183601   -0.846926
  C      1.561141    0.611266    1.297590
  C      1.492783    1.931783   -2.249249
  H      0.696535    2.680581   -2.225612
  H      1.338709    1.291322   -3.121811
  H      2.442862    2.463439   -2.390633
  C      2.565540   -1.075324   -1.928175
  H      2.249514   -0.728507   -2.915600
  H      2.192282   -2.094362   -1.786204
  H      3.663236   -1.101421   -1.912436
  C      2.692583   -1.723434    1.172166
  H      3.783501   -1.598681    1.210971
  H      2.457484   -2.606090    0.574387
  H      2.333089   -1.899010    2.188816
  C      1.552612    0.773239    2.786124
  H      2.502734    1.205302    3.127194
  H      1.421923   -0.187720    3.289969
  H      0.754394    1.442873    3.118115
  C      0.799428    3.031668    0.660505
  H      1.693878    3.613580    0.920796
  H      0.118442    3.075561    1.514596
  H      0.315927    3.528553   -0.183556
  Cl    -0.006885   -2.617235   -0.279085
  C     -1.774511   -0.580489   -1.372668
  C     -1.428717    0.775607   -1.463600
  C     -2.230150    1.901113   -0.842184
  C     -2.597560    1.596364    0.619137
  C     -1.528383    0.747182    1.301561
  C     -1.615603   -0.659023    1.435525
  C     -2.738883   -1.472042    0.832207
  C     -3.001399   -1.117797   -0.653050
  H     -3.131417    2.097786   -1.444322
  H     -3.561641    1.080890    0.673312
  H     -1.631000    2.816891   -0.882167
  H     -3.816216   -0.389170   -0.734954
  H     -1.353755   -1.240657   -2.123162
  H     -0.836828    1.063474   -2.328552
  H     -3.337183   -2.018298   -1.174989
  H     -2.460187   -2.525401    0.898608
  H     -1.127422   -1.117347    2.293712
  H     -3.660878   -1.338434    1.419672
  H     -2.720080    2.533691    1.172959
  H     -0.970929    1.269583    2.073632

----------------------------
CARTESIAN COORDINATES (A.U.)
----------------------------
  NO LB      ZA    FRAG     MASS         X           Y           Z
   0 Ru   16.0000*   0   101.070   -0.121593   -0.331991   -0.023096
   1 C     6.0000    0    12.011    2.922121    2.147662   -1.858268
   2 C     6.0000    0    12.011    2.234767    3.065315    0.616697
   3 C     6.0000    0    12.011    3.924589   -0.940468    1.095340
   4 C     6.0000    0    12.011    3.862500   -0.346956   -1.600458
   5 C     6.0000    0    12.011    2.950129    1.155125    2.452090
   6 C     6.0000    0    12.011    2.820951    3.650541   -4.250465
   7 H     1.0000    0     1.008    1.316260    5.065564   -4.205797
   8 H     1.0000    0     1.008    2.529793    2.440245   -5.899368
   9 H     1.0000    0     1.008    4.616340    4.655225   -4.517642
  10 C     6.0000    0    12.011    4.848168   -2.032068   -3.643723
  11 H     1.0000    0     1.008    4.250965   -1.376679   -5.509686
  12 H     1.0000    0     1.008    4.142813   -3.957771   -3.375436
  13 H     1.0000    0     1.008    6.922513   -2.081384   -3.613980
  14 C     6.0000    0    12.011    5.088244   -3.256818    2.215073
  15 H     1.0000    0     1.008    7.149781   -3.021069    2.288404
  16 H     1.0000    0     1.008    4.643972   -4.924796    1.085434
  17 H     1.0000    0     1.008    4.408899   -3.588609    4.136263
  18 C     6.0000    0    12.011    2.934011    1.461210    5.265011
  19 H     1.0000    0     1.008    4.729482    2.277691    5.909540
  20 H     1.0000    0     1.008    2.687045   -0.354739    6.217140
  21 H     1.0000    0     1.008    1.425598    2.726635    5.892383
  22 C     6.0000    0    12.011    1.510700    5.729022    1.248174
  23 H     1.0000    0     1.008    3.200966    6.828677    1.740052
  24 H     1.0000    0     1.008    0.223823    5.811968    2.862172
  25 H     1.0000    0     1.008    0.597016    6.667999   -0.346871
  26 Cl   17.0000    0    35.453   -0.013011   -4.945857   -0.527394
  27 C     6.0000    0    12.011   -3.353340   -1.096965   -2.593967
  28 C     6.0000    0    12.011   -2.699884    1.465685   -2.765803
  29 C     6.0000    0    12.011   -4.214373    3.592583   -1.591497
  30 C     6.0000    0    12.011   -4.908677    3.016691    1.169999
  31 C     6.0000    0    12.011   -2.888225    1.411969    2.459594
  32 C     6.0000    0    12.011   -3.053047   -1.245373    2.712749
  33 C     6.0000    0    12.011   -5.175739   -2.781756    1.572643
  34 C     6.0000    0    12.011   -5.671822   -2.112330   -1.234086
  35 H     1.0000    0     1.008   -5.917521    3.964241   -2.729373
  36 H     1.0000    0     1.008   -6.730526    2.042586    1.272375
  37 H     1.0000    0     1.008   -3.082143    5.323153   -1.667054
  38 H     1.0000    0     1.008   -7.211603   -0.735425   -1.388862
  39 H     1.0000    0     1.008   -2.558226   -2.344502   -4.012195
  40 H     1.0000    0     1.008   -1.581376    2.009675   -4.400326
  41 H     1.0000    0     1.008   -6.306362   -3.814030   -2.220407
  42 H     1.0000    0     1.008   -4.649080   -4.772316    1.698123
  43 H     1.0000    0     1.008   -2.130519   -2.111480    4.334488
  44 H     1.0000    0     1.008   -6.918057   -2.529274    2.682791
  45 H     1.0000    0     1.008   -5.140206    4.787982    2.216571
  46 H     1.0000    0     1.008   -1.834790    2.399164    3.918597
* core charge reduced due to ECP

--------------------------------
INTERNAL COORDINATES (ANGSTROEM)
--------------------------------
 Ru     0   0   0     0.000000000000     0.00000000     0.00000000
 C      1   0   0     2.293281446974     0.00000000     0.00000000
 C      2   1   0     1.443402332009    68.36272180     0.00000000
 C      1   2   3     2.244655191755    61.56130184   278.88233492
 C      2   1   3     1.417355201240    70.90767887   119.69047010
 C      4   1   2     1.418140761478    71.00206706    80.81739060
 C      2   1   3     1.495942340702   129.59831823   241.21106963
 H      7   2   1     1.093283142684   111.83206440    59.23937258
 H      7   2   1     1.093294806464   111.65275576   297.56304777
 H      7   2   1     1.097860484776   109.60033498   178.40212829
 C      5   2   1     1.495435911826   127.46244564   123.03479324
 H     11   5   2     1.093234922050   111.28814169   342.33770441
 H     11   5   2     1.094493373598   110.02627288   222.29537860
 H     11   5   2     1.098118972583   110.63807912   102.44604329
 C      4   1   2     1.494246526638   127.97579921   202.39005459
 H     15   4   1     1.098713439327   109.27116241   172.11190762
 H     15   4   1     1.091646869174   110.93917151    51.95303718
 H     15   4   1     1.092538370178   111.42180116   291.60538210
 C      6   4   1     1.497344805222   126.15342628   124.57193803
 H     19   6   4     1.098061471755   110.26841167    85.90734056
 H     19   6   4     1.092877668555   111.33856197   326.25335473
 H     19   6   4     1.093517120836   111.85213757   205.14719153
 C      3   2   1     1.498456718927   125.67984263   230.59750296
 H     23   3   2     1.098368691708   110.05902698   270.90079480
 H     23   3   2     1.093224571589   111.79421720   151.49850839
 H     23   3   2     1.092294324780   111.64028998    30.33460964
 Cl     1   2   3     2.456765851533   120.41201345   218.71916022
 C      1   2   3     2.222465566450   112.67135192   131.19623551
 C     28   1   2     1.402440187771    70.96384791   316.06890727
 C     29  28   1     1.514997179727   124.14792320   254.90401730
 C     30  29  28     1.537309704042   111.65759980    47.52342252
 C     31  30  29     1.526418043076   111.58342661    31.58478783
 C     32  31  30     1.415261878142   123.49845665   262.69114951
 C     33  32  31     1.512200536267   122.83436769     4.17033904
 C     28   1   2     1.520461810547   113.30130880   195.43993823
 H     30  29  28     1.101604577542   109.95165936   283.77216171
 H     31  30  29     1.094577795253   110.54270185   269.54793262
 H     30  29  28     1.095093013434   108.47307601   168.08212482
 H     35  28   1     1.096144294258   109.24180883   114.98822098
 H     28   1   2     1.084480817625   103.64744398    69.89814302
 H     29  28   1     1.086895560905   116.22969447   101.15209273
 H     35  28   1     1.093651345438   108.23088149   230.52178431
 H     34  33  32     1.091625272746   107.75108057   168.25504834
 H     33  32  31     1.088515734708   117.73273449   209.24569279
 H     34  33  32     1.101381407104   110.10864504   285.04910266
 H     31  30  29     1.095587451102   109.73332571   152.71459867
 H     32  31  30     1.086163613807   114.18695060   111.21594198

---------------------------
INTERNAL COORDINATES (A.U.)
---------------------------
 Ru     0   0   0     0.000000000000     0.00000000     0.00000000
 C      1   0   0     4.333673882783     0.00000000     0.00000000
 C      2   1   0     2.727635108561    68.36272180     0.00000000
 C      1   2   3     4.241783577502    61.56130184   278.88233492
 C      2   1   3     2.678413164833    70.90767887   119.69047010
 C      4   1   2     2.679897658544    71.00206706    80.81739060
 C      2   1   3     2.826921336065   129.59831823   241.21106963
 H      7   2   1     2.066005726506   111.83206440    59.23937258
 H      7   2   1     2.066027767855   111.65275576   297.56304777
 H      7   2   1     2.074655649481   109.60033498   178.40212829
 C      5   2   1     2.825964324182   127.46244564   123.03479324
 H     11   5   2     2.065914602714   111.28814169   342.33770441
 H     11   5   2     2.068292731491   110.02627288   222.29537860
 H     11   5   2     2.075144120644   110.63807912   102.44604329
 C      4   1   2     2.823716711908   127.97579921   202.39005459
 H     15   4   1     2.076267499987   109.27116241   172.11190762
 H     15   4   1     2.062913617692   110.93917151    51.95303718
 H     15   4   1     2.064598310438   111.42180116   291.60538210
 C      6   4   1     2.829571609920   126.15342628   124.57193803
 H     19   6   4     2.075035459828   110.26841167    85.90734056
 H     19   6   4     2.065239491448   111.33856197   326.25335473
 H     19   6   4     2.066447881134   111.85213757   205.14719153
 C      3   2   1     2.831672822307   125.67984263   230.59750296
 H     23   3   2     2.075616021402   110.05902698   270.90079480
 H     23   3   2     2.065895043177   111.79421720   151.49850839
 H     23   3   2     2.064137131471   111.64028998    30.33460964
 Cl     1   2   3     4.642614634567   120.41201345   218.71916022
 C      1   2   3     4.199851262660   112.67135192   131.19623551
 C     28   1   2     2.650227874093    70.96384791   316.06890727
 C     29  28   1     2.862929763347   124.14792320   254.90401730
 C     30  29  28     2.905094323659   111.65759980    47.52342252
 C     31  30  29     2.884512067290   111.58342661    31.58478783
 C     32  31  30     2.674457357467   123.49845665   262.69114951
 C     33  32  31     2.857644873113   122.83436769     4.17033904
 C     28   1   2     2.873256419020   113.30130880   195.43993823
 H     30  29  28     2.081730959429   109.95165936   283.77216171
 H     31  30  29     2.068452265300   110.54270185   269.54793262
 H     30  29  28     2.069425886562   108.47307601   168.08212482
 H     35  28   1     2.071412519408   109.24180883   114.98822098
 H     28   1   2     2.049371742802   103.64744398    69.89814302
 H     29  28   1     2.053934946284   116.22969447   101.15209273
 H     35  28   1     2.066701528872   108.23088149   230.52178431
 H     34  33  32     2.062872806357   107.75108057   168.25504834
 H     33  32  31     2.056996631061   117.73273449   209.24569279
 H     34  33  32     2.081309228419   110.10864504   285.04910266
 H     31  30  29     2.070360238344   109.73332571   152.71459867
 H     32  31  30     2.052551766725   114.18695060   111.21594198

---------------------
BASIS SET INFORMATION
---------------------
There are 4 groups of distinct atoms

 Group   1 Type Ru  : 7s7p5d2f1g contracted to 6s4p3d2f1g pattern {211111/4111/311/11/1}
 Group   2 Type C   : 12s6p3d1f contracted to 6s3p3d1f pattern {621111/411/111/1}
 Group   3 Type H   : 5s3p1d contracted to 3s3p1d pattern {311/111/1}
 Group   4 Type Cl  : 15s10p4d1f contracted to 6s6p4d1f pattern {732111/511111/1111/1}

Atom   0Ru   basis set group =>   1
Atom   1C    basis set group =>   2
Atom   2C    basis set group =>   2
Atom   3C    basis set group =>   2
Atom   4C    basis set group =>   2
Atom   5C    basis set group =>   2
Atom   6C    basis set group =>   2
Atom   7H    basis set group =>   3
Atom   8H    basis set group =>   3
Atom   9H    basis set group =>   3
Atom  10C    basis set group =>   2
Atom  11H    basis set group =>   3
Atom  12H    basis set group =>   3
Atom  13H    basis set group =>   3
Atom  14C    basis set group =>   2
Atom  15H    basis set group =>   3
Atom  16H    basis set group =>   3
Atom  17H    basis set group =>   3
Atom  18C    basis set group =>   2
Atom  19H    basis set group =>   3
Atom  20H    basis set group =>   3
Atom  21H    basis set group =>   3
Atom  22C    basis set group =>   2
Atom  23H    basis set group =>   3
Atom  24H    basis set group =>   3
Atom  25H    basis set group =>   3
Atom  26Cl   basis set group =>   4
Atom  27C    basis set group =>   2
Atom  28C    basis set group =>   2
Atom  29C    basis set group =>   2
Atom  30C    basis set group =>   2
Atom  31C    basis set group =>   2
Atom  32C    basis set group =>   2
Atom  33C    basis set group =>   2
Atom  34C    basis set group =>   2
Atom  35H    basis set group =>   3
Atom  36H    basis set group =>   3
Atom  37H    basis set group =>   3
Atom  38H    basis set group =>   3
Atom  39H    basis set group =>   3
Atom  40H    basis set group =>   3
Atom  41H    basis set group =>   3
Atom  42H    basis set group =>   3
Atom  43H    basis set group =>   3
Atom  44H    basis set group =>   3
Atom  45H    basis set group =>   3
Atom  46H    basis set group =>   3
---------------------------------
AUXILIARY/C BASIS SET INFORMATION
---------------------------------
There are 4 groups of distinct atoms

 Group   1 Type Ru  : 8s7p6d5f4g3h1i contracted to 8s7p6d5f4g3h1i pattern {11111111/1111111/111111/11111/1111/111/1}
 Group   2 Type C   : 9s7p6d4f1g contracted to 9s7p5d4f1g pattern {111111111/1111111/21111/1111/1}
 Group   3 Type H   : 5s4p3d1f contracted to 5s4p3d1f pattern {11111/1111/111/1}
 Group   4 Type Cl  : 12s9p8d6f2g contracted to 12s9p8d6f2g pattern {111111111111/111111111/11111111/111111/11}

Atom   0Ru   basis set group =>   1
Atom   1C    basis set group =>   2
Atom   2C    basis set group =>   2
Atom   3C    basis set group =>   2
Atom   4C    basis set group =>   2
Atom   5C    basis set group =>   2
Atom   6C    basis set group =>   2
Atom   7H    basis set group =>   3
Atom   8H    basis set group =>   3
Atom   9H    basis set group =>   3
Atom  10C    basis set group =>   2
Atom  11H    basis set group =>   3
Atom  12H    basis set group =>   3
Atom  13H    basis set group =>   3
Atom  14C    basis set group =>   2
Atom  15H    basis set group =>   3
Atom  16H    basis set group =>   3
Atom  17H    basis set group =>   3
Atom  18C    basis set group =>   2
Atom  19H    basis set group =>   3
Atom  20H    basis set group =>   3
Atom  21H    basis set group =>   3
Atom  22C    basis set group =>   2
Atom  23H    basis set group =>   3
Atom  24H    basis set group =>   3
Atom  25H    basis set group =>   3
Atom  26Cl   basis set group =>   4
Atom  27C    basis set group =>   2
Atom  28C    basis set group =>   2
Atom  29C    basis set group =>   2
Atom  30C    basis set group =>   2
Atom  31C    basis set group =>   2
Atom  32C    basis set group =>   2
Atom  33C    basis set group =>   2
Atom  34C    basis set group =>   2
Atom  35H    basis set group =>   3
Atom  36H    basis set group =>   3
Atom  37H    basis set group =>   3
Atom  38H    basis set group =>   3
Atom  39H    basis set group =>   3
Atom  40H    basis set group =>   3
Atom  41H    basis set group =>   3
Atom  42H    basis set group =>   3
Atom  43H    basis set group =>   3
Atom  44H    basis set group =>   3
Atom  45H    basis set group =>   3
Atom  46H    basis set group =>   3
----------------------------------
AUXILIARY/JK BASIS SET INFORMATION
----------------------------------
There are 4 groups of distinct atoms

 Group   1 Type Ru  : 13s12p10d9f6g3h2i contracted to 11s10p9d8f6g3h2i pattern {31111111111/3111111111/211111111/21111111/111111/111/11}
 Group   2 Type C   : 14s10p6d2f1g contracted to 10s8p5d1f1g pattern {5111111111/31111111/21111/2/1}
 Group   3 Type H   : 4s2p2d contracted to 2s2p2d pattern {31/11/11}
 Group   4 Type Cl  : 16s12p10d4f1g contracted to 13s11p9d4f1g pattern {4111111111111/21111111111/211111111/1111/1}

Atom   0Ru   basis set group =>   1
Atom   1C    basis set group =>   2
Atom   2C    basis set group =>   2
Atom   3C    basis set group =>   2
Atom   4C    basis set group =>   2
Atom   5C    basis set group =>   2
Atom   6C    basis set group =>   2
Atom   7H    basis set group =>   3
Atom   8H    basis set group =>   3
Atom   9H    basis set group =>   3
Atom  10C    basis set group =>   2
Atom  11H    basis set group =>   3
Atom  12H    basis set group =>   3
Atom  13H    basis set group =>   3
Atom  14C    basis set group =>   2
Atom  15H    basis set group =>   3
Atom  16H    basis set group =>   3
Atom  17H    basis set group =>   3
Atom  18C    basis set group =>   2
Atom  19H    basis set group =>   3
Atom  20H    basis set group =>   3
Atom  21H    basis set group =>   3
Atom  22C    basis set group =>   2
Atom  23H    basis set group =>   3
Atom  24H    basis set group =>   3
Atom  25H    basis set group =>   3
Atom  26Cl   basis set group =>   4
Atom  27C    basis set group =>   2
Atom  28C    basis set group =>   2
Atom  29C    basis set group =>   2
Atom  30C    basis set group =>   2
Atom  31C    basis set group =>   2
Atom  32C    basis set group =>   2
Atom  33C    basis set group =>   2
Atom  34C    basis set group =>   2
Atom  35H    basis set group =>   3
Atom  36H    basis set group =>   3
Atom  37H    basis set group =>   3
Atom  38H    basis set group =>   3
Atom  39H    basis set group =>   3
Atom  40H    basis set group =>   3
Atom  41H    basis set group =>   3
Atom  42H    basis set group =>   3
Atom  43H    basis set group =>   3
Atom  44H    basis set group =>   3
Atom  45H    basis set group =>   3
Atom  46H    basis set group =>   3
-------------------------
ECP PARAMETER INFORMATION
-------------------------

 Group 1, Type Ru ECP Def2-ECP (replacing 28 core electrons, lmax=3)

Atom   0Ru   ECP group =>   1



           ************************************************************
           *        Program running with 24 parallel MPI-processes    *
           *              working on a common directory               *
           ************************************************************
------------------------------------------------------------------------------
                           ORCA GTO INTEGRAL CALCULATION
                           -- RI-GTO INTEGRALS CHOSEN --
------------------------------------------------------------------------------

                         BASIS SET STATISTICS AND STARTUP INFO

Gaussian basis set:
 # of primitive gaussian shells          ...  691
 # of primitive gaussian functions       ... 1597
 # of contracted shells                  ...  456
 # of contracted basis functions         ... 1232
 Highest angular momentum                ...    4
 Maximum contraction depth               ...    7
Auxiliary gaussian basis set:
 # of primitive gaussian shells          ...  908
 # of primitive gaussian functions       ... 2700
 # of contracted shells                  ...  699
 # of contracted aux-basis functions     ... 2219
 Highest angular momentum                ...    6
 Maximum contraction depth               ...    5
Ratio of auxiliary to basis functions    ...  1.80
Integral package used                  ... LIBINT
 One Electron integrals                  
   ECP integrals                         ... done
 Ordering auxiliary basis shells         ... done
 Integral threshhold             Thresh  ...  1.000e-10
 Primitive cut-off               TCut    ...  1.000e-11
 Pre-screening matrix                    ... done
 Shell pair data                         ... 
 Ordering of the shell pairs             ... done (   0.018 sec) 87816 of 104196 pairs
 Determination of significant pairs      ... done (   0.001 sec)
 Creation of shell pair data             ... done (   0.010 sec)
 Storage of shell pair data              ... done (   0.015 sec)
 Shell pair data done in (   0.043 sec)
 Computing two index integrals           ... done
 Cholesky decomposition of the V-matrix  ... done


Timings:
 Total evaluation time                   ...   7.451 sec (  0.124 min)
 One electron matrix time                ...   6.305 sec (  0.105 min) = 84.6%
 Schwartz matrix evaluation time         ...   0.626 sec (  0.010 min) =  8.4%
 Two index repulsion integral time       ...   0.216 sec (  0.004 min) =  2.9%
 Cholesky decomposition of V             ...   0.232 sec (  0.004 min) =  3.1%
 Three index repulsion integral time     ...   0.000 sec (  0.000 min) =  0.0%



           ************************************************************
           *        Program running with 24 parallel MPI-processes    *
           *              working on a common directory               *
           ************************************************************
-------------------------------------------------------------------------------
                                 ORCA SCF
-------------------------------------------------------------------------------

------------
SCF SETTINGS
------------
Hamiltonian:
 Density Functional     Method          .... DFT(GTOs)
 Exchange Functional    Exchange        .... B88
   X-Alpha parameter    XAlpha          ....  0.666667
   Becke's b parameter  XBeta           ....  0.004200
 Correlation Functional Correlation     .... LYP
 LDA part of GGA corr.  LDAOpt          .... VWN-3
 Gradients option       PostSCFGGA      .... off
 Hybrid DFT is turned on
   Fraction HF Exchange ScalHFX         ....  0.530000
   Scaling of DF-GGA-X  ScalDFX         ....  0.470000
   Scaling of DF-GGA-C  ScalDFC         ....  0.730000
   Scaling of DF-LDA-C  ScalLDAC        ....  0.730000
   Perturbative correction              ....  0.270000
   Density functional embedding theory  .... OFF
 RI-approximation to the Coulomb term is turned on
   Number of auxiliary basis functions  .... 2219
   RI-JK (J+K treated both via RI)      .... on


General Settings:
 Integral files         IntName         .... MOR14_ed26
 Hartree-Fock type      HFTyp           .... RHF
 Total Charge           Charge          ....    0
 Multiplicity           Mult            ....    1
 Number of Electrons    NEL             ....  168
 Basis Dimension        Dim             .... 1232
 Nuclear Repulsion      ENuc            ....   2177.8911490975 Eh

Convergence Acceleration:
 DIIS                   CNVDIIS         .... on
   Start iteration      DIISMaxIt       ....    12
   Startup error        DIISStart       ....  0.200000
   # of expansion vecs  DIISMaxEq       ....     5
   Bias factor          DIISBfac        ....   1.050
   Max. coefficient     DIISMaxC        ....  10.000
 Newton-Raphson         CNVNR           .... off
 SOSCF                  CNVSOSCF        .... off
 Level Shifting         CNVShift        .... on
   Level shift para.    LevelShift      ....    0.2500
   Turn off err/grad.   ShiftErr        ....    0.0010
 Zerner damping         CNVZerner       .... off
 Static damping         CNVDamp         .... on
   Fraction old density DampFac         ....    0.7000
   Max. Damping (<1)    DampMax         ....    0.9800
   Min. Damping (>=0)   DampMin         ....    0.0000
   Turn off err/grad.   DampErr         ....    0.1000
 Fernandez-Rico         CNVRico         .... off

SCF Procedure:
 Maximum # iterations   MaxIter         ....   125
 SCF integral mode      SCFMode         .... Direct
   Integral package                     .... LIBINT
 Reset frequency        DirectResetFreq ....    20
 Integral Threshold     Thresh          ....  1.000e-10 Eh
 Primitive CutOff       TCut            ....  1.000e-11 Eh

Convergence Tolerance:
 Convergence Check Mode ConvCheckMode   .... Total+1el-Energy
 Convergence forced     ConvForced      .... 0
 Energy Change          TolE            ....  1.000e-06 Eh
 1-El. energy change                    ....  1.000e-03 Eh
 DIIS Error             TolErr          ....  1.000e-06


Diagonalization of the overlap matrix:
Smallest eigenvalue                        ... 1.424e-07
Time for diagonalization                   ...    0.219 sec
Threshold for overlap eigenvalues          ... 1.000e-08
Number of eigenvalues below threshold      ... 0
Time for construction of square roots      ...    0.163 sec
Total time needed                          ...    0.386 sec

-------------------
DFT GRID GENERATION
-------------------

General Integration Accuracy     IntAcc      ...  4.670
Radial Grid Type                 RadialGrid  ... Gauss-Chebyshev
Angular Grid (max. acc.)         AngularGrid ... Lebedev-302
Angular grid pruning method      GridPruning ... 3 (G Style)
Weight generation scheme         WeightScheme... Becke
Basis function cutoff            BFCut       ...    1.0000e-10
Integration weight cutoff        WCut        ...    1.0000e-14
Grids for H and He will be reduced by one unit

# of grid points (after initial pruning)     ... 220706 (   0.0 sec)
# of grid points (after weights+screening)   ... 185140 (   0.2 sec)
nearest neighbour list constructed           ...    0.0 sec
Grid point re-assignment to atoms done       ...    0.0 sec
Grid point division into batches done        ...    0.5 sec
Reduced shell lists constructed in    1.6 sec

Total number of grid points                  ...   185140
Total number of batches                      ...     2918
Average number of points per batch           ...       63
Average number of grid points per atom       ...     3939
Average number of shells per batch           ...   312.32 (68.49%)
Average number of basis functions per batch  ...   855.75 (69.46%)
Average number of large shells per batch     ...   238.80 (76.46%)
Average number of large basis fcns per batch ...   649.18 (75.86%)
Average number of aux-shells per batch       ...   312.32 (44.68%)
Average number of aux functions per batch    ...   855.75 (38.56%)
Maximum spatial batch extension              ...   1.98,  2.08,  1.84 au
Average spatial batch extension              ...   0.04,  0.04,  0.04 au

Time for grid setup =    1.887 sec

------------------------------
INITIAL GUESS: MODEL POTENTIAL
------------------------------
Loading Hartree-Fock densities                     ... done
  calling /sw/apps/orca/orca_4_2_0_linux_x86-64_openmpi314/orca MOR14_ed26_atom44.inp > MOR14_ed26_atom44.out in order to generate an atomic fitting density for atom 0 (Ru with ECP) on-the-fly... 
    atom 0 (Ru), assumed electronic state with S=5: 1s2 2s2 2p6 3s2 3p6 4s2 3d10 4p6 5s2 4d6           ... done
Calculating cut-offs                               ... done
Setting up the integral package                    ... done
Initializing the effective Hamiltonian             ... done
Starting the Coulomb interaction                   ... done (   0.3 sec)
Reading the grid                                   ... done
Mapping shells                                     ... done
Starting the XC term evaluation                    ... done (   1.1 sec)
  promolecular density results
     # of electrons  =    195.985915939
     EX              =   -257.569373033
     EC              =     -2.592671755
     EX+EC           =   -260.162044788
Transforming the Hamiltonian                       ... done (   0.1 sec)
Diagonalizing the Hamiltonian                      ... done (   0.2 sec)
Back transforming the eigenvectors                 ... done (   0.1 sec)
Now organizing SCF variables                       ... done
                      ------------------
                      INITIAL GUESS DONE (   4.8 sec)
                      ------------------
--------------
SCF ITERATIONS
--------------
ITER       Energy         Delta-E        Max-DP      RMS-DP      [F,P]     Damp
  0  -1254.4229961822   0.000000000000 4.73497001  0.01096776  0.3568475 0.7000
  1  -1254.5973358782  -0.174339695981 2.34239177  0.00616453  0.3121928 0.7000
  2  -1254.7120046374  -0.114668759179 1.60240118  0.00480176  0.2488088 0.7000
                               ***Turning on DIIS***
  3  -1254.8887802567  -0.176775619305 2.04657218  0.00518570  0.1690093 0.7000
  4  -1255.0865873143  -0.197807057597 4.43824664  0.01090555  0.0988359 0.0000
  5  -1255.3794947976  -0.292907483373 0.63955155  0.00145588  0.1567357 0.7000
  6  -1255.4331276976  -0.053632899910 0.56680127  0.00129275  0.1288589 0.7000
  7  -1255.4577526722  -0.024624974607 1.18920537  0.00266431  0.0883714 0.0000
  8  -1255.4445185399   0.013234132259 0.73069131  0.00208339  0.0301806 0.0000
  9  -1255.4486357029  -0.004117163017 0.96241561  0.00301671  0.0096234 0.0000
 10  -1255.4491376653  -0.000501962346 0.36392934  0.00119611  0.0037023 0.0000
 11  -1255.4492477097  -0.000110044434 1.02859876  0.00270927  0.0014910 0.0000
 12  -1255.4492858396  -0.000038129856 0.54279121  0.00230449  0.0008336 0.0000
 13  -1255.4493026308  -0.000016791271 0.54289478  0.00144613  0.0004961 0.0000
 14  -1255.4493066245  -0.000003993654 0.34226589  0.00073505  0.0002380 0.0000
 15  -1255.4493074383  -0.000000813870 0.93122664  0.00277777  0.0001528 0.0000
                 **** Energy Check signals convergence ****

               *****************************************************
               *                     SUCCESS                       *
               *           SCF CONVERGED AFTER  16 CYCLES          *
               *****************************************************


----------------
TOTAL SCF ENERGY
----------------

Total Energy       :        -1255.44930761 Eh          -34162.51245 eV

Components:
Nuclear Repulsion  :         2177.89114910 Eh           59263.43106 eV
Electronic Energy  :        -3433.34045671 Eh          -93425.94351 eV
One Electron Energy:        -6083.57319907 Eh         -165542.44276 eV
Two Electron Energy:         2650.23274236 Eh           72116.49925 eV

Virial components:
Potential Energy   :        -2447.12366831 Eh          -66589.62037 eV
Kinetic Energy     :         1191.67436070 Eh           32427.10792 eV
Virial Ratio       :            2.05351709


DFT components:
N(Alpha)           :       83.999790627379 electrons
N(Beta)            :       83.999790627379 electrons
N(Total)           :      167.999581254757 electrons
E(X)               :      -65.931859391596 Eh       
E(C)               :       -4.209242002713 Eh       
E(XC)              :      -70.141101394309 Eh       
DFET-embed. en.    :        0.000000000000 Eh       

---------------
SCF CONVERGENCE
---------------

  Last Energy change         ...   -1.7168e-07  Tolerance :   1.0000e-06
  Last MAX-Density change    ...    6.4752e-01  Tolerance :   1.0000e-05
  Last RMS-Density change    ...    1.7413e-03  Tolerance :   1.0000e-06
  Last DIIS Error            ...    6.6596e-05  Tolerance :   1.0000e-06

             **** THE GBW FILE WAS UPDATED (MOR14_ed26.gbw) ****
             **** DENSITY FILE WAS UPDATED (MOR14_ed26.scfp) ****
             **** ENERGY FILE WAS UPDATED (MOR14_ed26.en.tmp) ****
             **** THE GBW FILE WAS UPDATED (MOR14_ed26.gbw) ****
             **** DENSITY FILE WAS UPDATED (MOR14_ed26.scfp) ****
----------------
ORBITAL ENERGIES
----------------

  NO   OCC          E(Eh)            E(eV) 
   0   2.0000    -102.802502     -2797.3983 
   1   2.0000     -10.646994      -289.7194 
   2   2.0000     -10.640521      -289.5433 
   3   2.0000     -10.639592      -289.5180 
   4   2.0000     -10.638327      -289.4836 
   5   2.0000     -10.632975      -289.3380 
   6   2.0000     -10.625921      -289.1460 
   7   2.0000     -10.625781      -289.1422 
   8   2.0000     -10.623537      -289.0811 
   9   2.0000     -10.621913      -289.0369 
  10   2.0000     -10.621747      -289.0324 
  11   2.0000     -10.617006      -288.9034 
  12   2.0000     -10.616196      -288.8814 
  13   2.0000     -10.614095      -288.8242 
  14   2.0000     -10.611623      -288.7569 
  15   2.0000     -10.604831      -288.5721 
  16   2.0000     -10.603953      -288.5482 
  17   2.0000     -10.602167      -288.4996 
  18   2.0000     -10.597811      -288.3811 
  19   2.0000      -9.808566      -266.9047 
  20   2.0000      -7.446422      -202.6274 
  21   2.0000      -7.443605      -202.5508 
  22   2.0000      -7.443513      -202.5483 
  23   2.0000      -3.235963       -88.0550 
  24   2.0000      -2.027596       -55.1737 
  25   2.0000      -2.012035       -54.7503 
  26   2.0000      -2.006165       -54.5905 
  27   2.0000      -1.024484       -27.8776 
  28   2.0000      -0.953361       -25.9423 
  29   2.0000      -0.905725       -24.6460 
  30   2.0000      -0.898568       -24.4513 
  31   2.0000      -0.888614       -24.1804 
  32   2.0000      -0.881529       -23.9876 
  33   2.0000      -0.838831       -22.8257 
  34   2.0000      -0.827689       -22.5226 
  35   2.0000      -0.824556       -22.4373 
  36   2.0000      -0.816915       -22.2294 
  37   2.0000      -0.792657       -21.5693 
  38   2.0000      -0.765194       -20.8220 
  39   2.0000      -0.730912       -19.8891 
  40   2.0000      -0.720382       -19.6026 
  41   2.0000      -0.685160       -18.6442 
  42   2.0000      -0.636797       -17.3281 
  43   2.0000      -0.606101       -16.4928 
  44   2.0000      -0.604440       -16.4477 
  45   2.0000      -0.592339       -16.1184 
  46   2.0000      -0.571647       -15.5553 
  47   2.0000      -0.546947       -14.8832 
  48   2.0000      -0.534990       -14.5578 
  49   2.0000      -0.532029       -14.4773 
  50   2.0000      -0.525538       -14.3006 
  51   2.0000      -0.507412       -13.8074 
  52   2.0000      -0.504268       -13.7218 
  53   2.0000      -0.496982       -13.5236 
  54   2.0000      -0.491533       -13.3753 
  55   2.0000      -0.491256       -13.3678 
  56   2.0000      -0.483373       -13.1532 
  57   2.0000      -0.476973       -12.9791 
  58   2.0000      -0.475754       -12.9459 
  59   2.0000      -0.470823       -12.8117 
  60   2.0000      -0.466718       -12.7000 
  61   2.0000      -0.464816       -12.6483 
  62   2.0000      -0.453686       -12.3454 
  63   2.0000      -0.443751       -12.0751 
  64   2.0000      -0.442901       -12.0520 
  65   2.0000      -0.429417       -11.6850 
  66   2.0000      -0.427176       -11.6240 
  67   2.0000      -0.413282       -11.2460 
  68   2.0000      -0.408930       -11.1276 
  69   2.0000      -0.407901       -11.0995 
  70   2.0000      -0.404588       -11.0094 
  71   2.0000      -0.401697       -10.9307 
  72   2.0000      -0.379737       -10.3332 
  73   2.0000      -0.374876       -10.2009 
  74   2.0000      -0.347156        -9.4466 
  75   2.0000      -0.330334        -8.9888 
  76   2.0000      -0.322973        -8.7885 
  77   2.0000      -0.316452        -8.6111 
  78   2.0000      -0.313025        -8.5178 
  79   2.0000      -0.293725        -7.9927 
  80   2.0000      -0.292076        -7.9478 
  81   2.0000      -0.265762        -7.2318 
  82   2.0000      -0.259259        -7.0548 
  83   2.0000      -0.237304        -6.4574 
  84   0.0000       0.019161         0.5214 
  85   0.0000       0.023781         0.6471 
  86   0.0000       0.032324         0.8796 
  87   0.0000       0.036229         0.9858 
  88   0.0000       0.041861         1.1391 
  89   0.0000       0.045630         1.2417 
  90   0.0000       0.053539         1.4569 
  91   0.0000       0.056704         1.5430 
  92   0.0000       0.058463         1.5909 
  93   0.0000       0.060693         1.6515 
  94   0.0000       0.063107         1.7172 
  95   0.0000       0.070943         1.9305 
  96   0.0000       0.076750         2.0885 
  97   0.0000       0.079414         2.1610 
  98   0.0000       0.080814         2.1991 
  99   0.0000       0.082310         2.2398 
 100   0.0000       0.089537         2.4364 
 101   0.0000       0.091436         2.4881 
 102   0.0000       0.096494         2.6257 
 103   0.0000       0.098816         2.6889 
 104   0.0000       0.102569         2.7910 
 105   0.0000       0.107687         2.9303 
 106   0.0000       0.110005         2.9934 
 107   0.0000       0.112767         3.0685 
 108   0.0000       0.117839         3.2066 
 109   0.0000       0.119866         3.2617 
 110   0.0000       0.121269         3.2999 
 111   0.0000       0.127302         3.4641 
 112   0.0000       0.129924         3.5354 
 113   0.0000       0.132717         3.6114 
 114   0.0000       0.135895         3.6979 
 115   0.0000       0.144493         3.9318 
 116   0.0000       0.150092         4.0842 
 117   0.0000       0.153116         4.1665 
 118   0.0000       0.158696         4.3183 
 119   0.0000       0.162032         4.4091 
 120   0.0000       0.166545         4.5319 
 121   0.0000       0.168418         4.5829 
 122   0.0000       0.172364         4.6903 
 123   0.0000       0.175705         4.7812 
 124   0.0000       0.177947         4.8422 
 125   0.0000       0.185522         5.0483 
 126   0.0000       0.187651         5.1062 
 127   0.0000       0.193633         5.2690 
 128   0.0000       0.197419         5.3720 
 129   0.0000       0.200216         5.4481 
 130   0.0000       0.203358         5.5337 
 131   0.0000       0.206749         5.6259 
 132   0.0000       0.207553         5.6478 
 133   0.0000       0.211741         5.7618 
 134   0.0000       0.219122         5.9626 
 135   0.0000       0.220257         5.9935 
 136   0.0000       0.224046         6.0966 
 137   0.0000       0.227631         6.1942 
 138   0.0000       0.231147         6.2898 
 139   0.0000       0.235803         6.4165 
 140   0.0000       0.237072         6.4511 
 141   0.0000       0.238354         6.4859 
 142   0.0000       0.240120         6.5340 
 143   0.0000       0.240860         6.5541 
 144   0.0000       0.245557         6.6819 
 145   0.0000       0.248262         6.7556 
 146   0.0000       0.251833         6.8527 
 147   0.0000       0.252059         6.8589 
 148   0.0000       0.253935         6.9099 
 149   0.0000       0.256426         6.9777 
 150   0.0000       0.261275         7.1096 
 151   0.0000       0.264345         7.1932 
 152   0.0000       0.268150         7.2967 
 153   0.0000       0.269566         7.3353 
 154   0.0000       0.271572         7.3898 
 155   0.0000       0.274178         7.4608 
 156   0.0000       0.278097         7.5674 
 157   0.0000       0.279222         7.5980 
 158   0.0000       0.282080         7.6758 
 159   0.0000       0.283770         7.7218 
 160   0.0000       0.287336         7.8188 
 161   0.0000       0.291862         7.9420 
 162   0.0000       0.294525         8.0144 
 163   0.0000       0.295598         8.0436 
 164   0.0000       0.297294         8.0898 
 165   0.0000       0.299102         8.1390 
 166   0.0000       0.299943         8.1619 
 167   0.0000       0.301753         8.2111 
 168   0.0000       0.303963         8.2712 
 169   0.0000       0.307404         8.3649 
 170   0.0000       0.308761         8.4018 
 171   0.0000       0.312686         8.5086 
 172   0.0000       0.314368         8.5544 
 173   0.0000       0.315626         8.5886 
 174   0.0000       0.318020         8.6538 
 175   0.0000       0.320992         8.7346 
 176   0.0000       0.324677         8.8349 
 177   0.0000       0.325300         8.8519 
 178   0.0000       0.330449         8.9920 
 179   0.0000       0.330748         9.0001 
 180   0.0000       0.332753         9.0547 
 181   0.0000       0.335177         9.1206 
 182   0.0000       0.338768         9.2184 
 183   0.0000       0.339575         9.2403 
 184   0.0000       0.343240         9.3400 
 185   0.0000       0.345808         9.4099 
 186   0.0000       0.347919         9.4674 
 187   0.0000       0.353401         9.6165 
 188   0.0000       0.355951         9.6859 
 189   0.0000       0.358074         9.7437 
 190   0.0000       0.361335         9.8324 
 191   0.0000       0.362506         9.8643 
 192   0.0000       0.364111         9.9080 
 193   0.0000       0.366541         9.9741 
 194   0.0000       0.369474        10.0539 
 195   0.0000       0.370151        10.0723 
 196   0.0000       0.375757        10.2249 
 197   0.0000       0.377524        10.2729 
 198   0.0000       0.381459        10.3800 
 199   0.0000       0.382930        10.4200 
 200   0.0000       0.387953        10.5567 
 201   0.0000       0.388875        10.5818 
 202   0.0000       0.394642        10.7387 
 203   0.0000       0.394678        10.7397 
 204   0.0000       0.397561        10.8182 
 205   0.0000       0.399361        10.8672 
 206   0.0000       0.400561        10.8998 
 207   0.0000       0.403565        10.9816 
 208   0.0000       0.406819        11.0701 
 209   0.0000       0.407246        11.0817 
 210   0.0000       0.411339        11.1931 
 211   0.0000       0.412045        11.2123 
 212   0.0000       0.414058        11.2671 
 213   0.0000       0.417768        11.3680 
 214   0.0000       0.419679        11.4200 
 215   0.0000       0.421519        11.4701 
 216   0.0000       0.423101        11.5132 
 217   0.0000       0.426701        11.6111 
 218   0.0000       0.428849        11.6696 
 219   0.0000       0.432451        11.7676 
 220   0.0000       0.432663        11.7734 
 221   0.0000       0.437674        11.9097 
 222   0.0000       0.440790        11.9945 
 223   0.0000       0.443298        12.0627 
 224   0.0000       0.446270        12.1436 
 225   0.0000       0.448472        12.2035 
 226   0.0000       0.451359        12.2821 
 227   0.0000       0.455674        12.3995 
 228   0.0000       0.457526        12.4499 
 229   0.0000       0.460899        12.5417 
 230   0.0000       0.462969        12.5980 
 231   0.0000       0.464747        12.6464 
 232   0.0000       0.467197        12.7131 
 233   0.0000       0.471554        12.8316 
 234   0.0000       0.473429        12.8826 
 235   0.0000       0.476932        12.9780 
 236   0.0000       0.477803        13.0017 
 237   0.0000       0.481566        13.1041 
 238   0.0000       0.483273        13.1505 
 239   0.0000       0.488792        13.3007 
 240   0.0000       0.489391        13.3170 
 241   0.0000       0.491453        13.3731 
 242   0.0000       0.492329        13.3970 
 243   0.0000       0.494611        13.4590 
 244   0.0000       0.498625        13.5683 
 245   0.0000       0.501985        13.6597 
 246   0.0000       0.502111        13.6631 
 247   0.0000       0.504700        13.7336 
 248   0.0000       0.507823        13.8186 
 249   0.0000       0.509442        13.8626 
 250   0.0000       0.513966        13.9857 
 251   0.0000       0.518638        14.1129 
 252   0.0000       0.519365        14.1327 
 253   0.0000       0.521229        14.1834 
 254   0.0000       0.524782        14.2800 
 255   0.0000       0.527127        14.3439 
 256   0.0000       0.530317        14.4306 
 257   0.0000       0.531774        14.4703 
 258   0.0000       0.535674        14.5764 
 259   0.0000       0.541560        14.7366 
 260   0.0000       0.543019        14.7763 
 261   0.0000       0.547616        14.9014 
 262   0.0000       0.550121        14.9695 
 263   0.0000       0.551571        15.0090 
 264   0.0000       0.553469        15.0607 
 265   0.0000       0.553565        15.0633 
 266   0.0000       0.557614        15.1735 
 267   0.0000       0.561837        15.2884 
 268   0.0000       0.564334        15.3563 
 269   0.0000       0.569082        15.4855 
 270   0.0000       0.571856        15.5610 
 271   0.0000       0.573518        15.6062 
 272   0.0000       0.577079        15.7031 
 273   0.0000       0.580358        15.7923 
 274   0.0000       0.582266        15.8443 
 275   0.0000       0.585925        15.9438 
 276   0.0000       0.588596        16.0165 
 277   0.0000       0.592182        16.1141 
 278   0.0000       0.595059        16.1924 
 279   0.0000       0.599338        16.3088 
 280   0.0000       0.601254        16.3609 
 281   0.0000       0.604802        16.4575 
 282   0.0000       0.606023        16.4907 
 283   0.0000       0.610079        16.6011 
 284   0.0000       0.612427        16.6650 
 285   0.0000       0.614445        16.7199 
 286   0.0000       0.615829        16.7576 
 287   0.0000       0.619159        16.8482 
 288   0.0000       0.625664        17.0252 
 289   0.0000       0.629191        17.1212 
 290   0.0000       0.635277        17.2868 
 291   0.0000       0.635970        17.3056 
 292   0.0000       0.637344        17.3430 
 293   0.0000       0.642291        17.4776 
 294   0.0000       0.644830        17.5467 
 295   0.0000       0.648671        17.6512 
 296   0.0000       0.651005        17.7148 
 297   0.0000       0.651449        17.7268 
 298   0.0000       0.654885        17.8203 
 299   0.0000       0.661852        18.0099 
 300   0.0000       0.663522        18.0554 
 301   0.0000       0.666963        18.1490 
 302   0.0000       0.671462        18.2714 
 303   0.0000       0.671800        18.2806 
 304   0.0000       0.676985        18.4217 
 305   0.0000       0.677256        18.4291 
 306   0.0000       0.681093        18.5335 
 307   0.0000       0.685981        18.6665 
 308   0.0000       0.689145        18.7526 
 309   0.0000       0.691476        18.8160 
 310   0.0000       0.694818        18.9069 
 311   0.0000       0.696004        18.9392 
 312   0.0000       0.699328        19.0297 
 313   0.0000       0.702666        19.1205 
 314   0.0000       0.705132        19.1876 
 315   0.0000       0.706127        19.2147 
 316   0.0000       0.708593        19.2818 
 317   0.0000       0.711212        19.3531 
 318   0.0000       0.713408        19.4128 
 319   0.0000       0.716517        19.4974 
 320   0.0000       0.717774        19.5316 
 321   0.0000       0.719683        19.5836 
 322   0.0000       0.722314        19.6552 
 323   0.0000       0.723984        19.7006 
 324   0.0000       0.726361        19.7653 
 325   0.0000       0.728270        19.8172 
 326   0.0000       0.728959        19.8360 
 327   0.0000       0.731613        19.9082 
 328   0.0000       0.734587        19.9891 
 329   0.0000       0.736459        20.0401 
 330   0.0000       0.738974        20.1085 
 331   0.0000       0.745543        20.2873 
 332   0.0000       0.748604        20.3706 
 333   0.0000       0.749154        20.3855 
 334   0.0000       0.756087        20.5742 
 335   0.0000       0.756618        20.5886 
 336   0.0000       0.758369        20.6363 
 337   0.0000       0.760555        20.6958 
 338   0.0000       0.762232        20.7414 
 339   0.0000       0.765413        20.8279 
 340   0.0000       0.768232        20.9047 
 341   0.0000       0.772883        21.0312 
 342   0.0000       0.773984        21.0612 
 343   0.0000       0.776700        21.1351 
 344   0.0000       0.778092        21.1729 
 345   0.0000       0.781365        21.2620 
 346   0.0000       0.784906        21.3584 
 347   0.0000       0.786676        21.4066 
 348   0.0000       0.790117        21.5002 
 349   0.0000       0.792506        21.5652 
 350   0.0000       0.793501        21.5923 
 351   0.0000       0.796368        21.6703 
 352   0.0000       0.799953        21.7678 
 353   0.0000       0.801782        21.8176 
 354   0.0000       0.802900        21.8480 
 355   0.0000       0.803933        21.8761 
 356   0.0000       0.805046        21.9064 
 357   0.0000       0.808980        22.0135 
 358   0.0000       0.812094        22.0982 
 359   0.0000       0.817647        22.2493 
 360   0.0000       0.819063        22.2878 
 361   0.0000       0.822205        22.3733 
 362   0.0000       0.823322        22.4037 
 363   0.0000       0.825861        22.4728 
 364   0.0000       0.829619        22.5751 
 365   0.0000       0.831877        22.6365 
 366   0.0000       0.834169        22.6989 
 367   0.0000       0.841235        22.8912 
 368   0.0000       0.841352        22.8943 
 369   0.0000       0.844088        22.9688 
 370   0.0000       0.846906        23.0455 
 371   0.0000       0.852162        23.1885 
 372   0.0000       0.854679        23.2570 
 373   0.0000       0.859392        23.3852 
 374   0.0000       0.862136        23.4599 
 375   0.0000       0.866772        23.5861 
 376   0.0000       0.870028        23.6747 
 377   0.0000       0.872451        23.7406 
 378   0.0000       0.873597        23.7718 
 379   0.0000       0.874662        23.8008 
 380   0.0000       0.879702        23.9379 
 381   0.0000       0.881020        23.9738 
 382   0.0000       0.883984        24.0544 
 383   0.0000       0.886981        24.1360 
 384   0.0000       0.891661        24.2633 
 385   0.0000       0.896218        24.3873 
 386   0.0000       0.899009        24.4633 
 387   0.0000       0.900214        24.4961 
 388   0.0000       0.904179        24.6040 
 389   0.0000       0.904967        24.6254 
 390   0.0000       0.909187        24.7402 
 391   0.0000       0.913947        24.8698 
 392   0.0000       0.916726        24.9454 
 393   0.0000       0.923594        25.1323 
 394   0.0000       0.924395        25.1541 
 395   0.0000       0.932940        25.3866 
 396   0.0000       0.934333        25.4245 
 397   0.0000       0.937531        25.5115 
 398   0.0000       0.940761        25.5994 
 399   0.0000       0.944527        25.7019 
 400   0.0000       0.947390        25.7798 
 401   0.0000       0.951611        25.8947 
 402   0.0000       0.954251        25.9665 
 403   0.0000       0.955140        25.9907 
 404   0.0000       0.957018        26.0418 
 405   0.0000       0.965350        26.2685 
 406   0.0000       0.967140        26.3172 
 407   0.0000       0.972625        26.4665 
 408   0.0000       0.976925        26.5835 
 409   0.0000       0.979074        26.6420 
 410   0.0000       0.981828        26.7169 
 411   0.0000       0.984384        26.7865 
 412   0.0000       0.989888        26.9362 
 413   0.0000       0.997391        27.1404 
 414   0.0000       1.000803        27.2332 
 415   0.0000       1.003541        27.3077 
 416   0.0000       1.009812        27.4784 
 417   0.0000       1.011613        27.5274 
 418   0.0000       1.017507        27.6878 
 419   0.0000       1.023835        27.8600 
 420   0.0000       1.027496        27.9596 
 421   0.0000       1.028543        27.9881 
 422   0.0000       1.035144        28.1677 
 423   0.0000       1.039382        28.2830 
 424   0.0000       1.043410        28.3926 
 425   0.0000       1.048734        28.5375 
 426   0.0000       1.051514        28.6131 
 427   0.0000       1.055864        28.7315 
 428   0.0000       1.061334        28.8804 
 429   0.0000       1.065571        28.9957 
 430   0.0000       1.073156        29.2020 
 431   0.0000       1.077014        29.3071 
 432   0.0000       1.079378        29.3714 
 433   0.0000       1.085656        29.5422 
 434   0.0000       1.090007        29.6606 
 435   0.0000       1.100074        29.9345 
 436   0.0000       1.100918        29.9575 
 437   0.0000       1.108833        30.1729 
 438   0.0000       1.116842        30.3908 
 439   0.0000       1.120914        30.5016 
 440   0.0000       1.126954        30.6660 
 441   0.0000       1.131641        30.7935 
 442   0.0000       1.138833        30.9892 
 443   0.0000       1.147140        31.2153 
 444   0.0000       1.151770        31.3413 
 445   0.0000       1.162133        31.6232 
 446   0.0000       1.165676        31.7197 
 447   0.0000       1.170331        31.8463 
 448   0.0000       1.174579        31.9619 
 449   0.0000       1.181495        32.1501 
 450   0.0000       1.185728        32.2653 
 451   0.0000       1.192676        32.4544 
 452   0.0000       1.204824        32.7849 
 453   0.0000       1.206565        32.8323 
 454   0.0000       1.211362        32.9628 
 455   0.0000       1.215403        33.0728 
 456   0.0000       1.222761        33.2730 
 457   0.0000       1.228867        33.4392 
 458   0.0000       1.232330        33.5334 
 459   0.0000       1.237047        33.6618 
 460   0.0000       1.243332        33.8328 
 461   0.0000       1.244474        33.8639 
 462   0.0000       1.256654        34.1953 
 463   0.0000       1.261839        34.3364 
 464   0.0000       1.265730        34.4423 
 465   0.0000       1.266868        34.4732 
 466   0.0000       1.274309        34.6757 
 467   0.0000       1.279734        34.8233 
 468   0.0000       1.290787        35.1241 
 469   0.0000       1.293321        35.1930 
 470   0.0000       1.300451        35.3871 
 471   0.0000       1.306427        35.5497 
 472   0.0000       1.311621        35.6910 
 473   0.0000       1.314973        35.7822 
 474   0.0000       1.319318        35.9005 
 475   0.0000       1.324487        36.0411 
 476   0.0000       1.330869        36.2148 
 477   0.0000       1.335347        36.3366 
 478   0.0000       1.346829        36.6491 
 479   0.0000       1.349069        36.7100 
 480   0.0000       1.351929        36.7879 
 481   0.0000       1.355751        36.8918 
 482   0.0000       1.363040        37.0902 
 483   0.0000       1.365195        37.1488 
 484   0.0000       1.371850        37.3299 
 485   0.0000       1.375125        37.4190 
 486   0.0000       1.378805        37.5192 
 487   0.0000       1.382058        37.6077 
 488   0.0000       1.389463        37.8092 
 489   0.0000       1.391065        37.8528 
 490   0.0000       1.394714        37.9521 
 491   0.0000       1.400342        38.1052 
 492   0.0000       1.408995        38.3407 
 493   0.0000       1.415538        38.5188 
 494   0.0000       1.420591        38.6563 
 495   0.0000       1.422462        38.7072 
 496   0.0000       1.425135        38.7799 
 497   0.0000       1.427920        38.8557 
 498   0.0000       1.435604        39.0648 
 499   0.0000       1.442710        39.2581 
 500   0.0000       1.444590        39.3093 
 501   0.0000       1.449935        39.4547 
 502   0.0000       1.453087        39.5405 
 503   0.0000       1.456897        39.6442 
 504   0.0000       1.462920        39.8081 
 505   0.0000       1.469597        39.9898 
 506   0.0000       1.472268        40.0624 
 507   0.0000       1.473055        40.0839 
 508   0.0000       1.477664        40.2093 
 509   0.0000       1.478983        40.2452 
 510   0.0000       1.488614        40.5072 
 511   0.0000       1.490645        40.5625 
 512   0.0000       1.494953        40.6797 
 513   0.0000       1.503851        40.9219 
 514   0.0000       1.506361        40.9902 
 515   0.0000       1.509370        41.0721 
 516   0.0000       1.511454        41.1288 
 517   0.0000       1.515651        41.2430 
 518   0.0000       1.521016        41.3890 
 519   0.0000       1.524867        41.4937 
 520   0.0000       1.527482        41.5649 
 521   0.0000       1.529824        41.6286 
 522   0.0000       1.539065        41.8801 
 523   0.0000       1.542170        41.9646 
 524   0.0000       1.542901        41.9845 
 525   0.0000       1.549567        42.1659 
 526   0.0000       1.553619        42.2761 
 527   0.0000       1.555048        42.3150 
 528   0.0000       1.560146        42.4537 
 529   0.0000       1.565824        42.6082 
 530   0.0000       1.568688        42.6862 
 531   0.0000       1.572554        42.7914 
 532   0.0000       1.577146        42.9163 
 533   0.0000       1.581958        43.0473 
 534   0.0000       1.585218        43.1360 
 535   0.0000       1.587347        43.1939 
 536   0.0000       1.593522        43.3619 
 537   0.0000       1.598035        43.4848 
 538   0.0000       1.602173        43.5973 
 539   0.0000       1.607752        43.7492 
 540   0.0000       1.610882        43.8343 
 541   0.0000       1.620221        44.0884 
 542   0.0000       1.626239        44.2522 
 543   0.0000       1.631791        44.4033 
 544   0.0000       1.633044        44.4374 
 545   0.0000       1.635738        44.5107 
 546   0.0000       1.640634        44.6439 
 547   0.0000       1.647046        44.8184 
 548   0.0000       1.648804        44.8662 
 549   0.0000       1.657596        45.1055 
 550   0.0000       1.663927        45.2778 
 551   0.0000       1.667584        45.3773 
 552   0.0000       1.668691        45.4074 
 553   0.0000       1.674928        45.5771 
 554   0.0000       1.678851        45.6838 
 555   0.0000       1.683702        45.8159 
 556   0.0000       1.685647        45.8688 
 557   0.0000       1.692898        46.0661 
 558   0.0000       1.699792        46.2537 
 559   0.0000       1.702364        46.3237 
 560   0.0000       1.705974        46.4219 
 561   0.0000       1.709894        46.5286 
 562   0.0000       1.719640        46.7938 
 563   0.0000       1.724602        46.9288 
 564   0.0000       1.727251        47.0009 
 565   0.0000       1.733315        47.1659 
 566   0.0000       1.742472        47.4151 
 567   0.0000       1.743772        47.4504 
 568   0.0000       1.749681        47.6112 
 569   0.0000       1.760975        47.9186 
 570   0.0000       1.763590        47.9897 
 571   0.0000       1.764453        48.0132 
 572   0.0000       1.773854        48.2690 
 573   0.0000       1.775990        48.3272 
 574   0.0000       1.784411        48.5563 
 575   0.0000       1.786980        48.6262 
 576   0.0000       1.797707        48.9181 
 577   0.0000       1.802838        49.0577 
 578   0.0000       1.807313        49.1795 
 579   0.0000       1.813461        49.3468 
 580   0.0000       1.814444        49.3735 
 581   0.0000       1.818589        49.4863 
 582   0.0000       1.823352        49.6159 
 583   0.0000       1.832039        49.8523 
 584   0.0000       1.837101        49.9901 
 585   0.0000       1.842093        50.1259 
 586   0.0000       1.848599        50.3029 
 587   0.0000       1.854316        50.4585 
 588   0.0000       1.859018        50.5864 
 589   0.0000       1.863107        50.6977 
 590   0.0000       1.870531        50.8997 
 591   0.0000       1.872644        50.9572 
 592   0.0000       1.875342        51.0307 
 593   0.0000       1.887890        51.3721 
 594   0.0000       1.892156        51.4882 
 595   0.0000       1.895406        51.5766 
 596   0.0000       1.905782        51.8590 
 597   0.0000       1.910552        51.9888 
 598   0.0000       1.912986        52.0550 
 599   0.0000       1.916530        52.1514 
 600   0.0000       1.922598        52.3166 
 601   0.0000       1.925621        52.3988 
 602   0.0000       1.935867        52.6776 
 603   0.0000       1.938080        52.7378 
 604   0.0000       1.940018        52.7906 
 605   0.0000       1.948968        53.0341 
 606   0.0000       1.960616        53.3511 
 607   0.0000       1.964310        53.4516 
 608   0.0000       1.971440        53.6456 
 609   0.0000       1.974251        53.7221 
 610   0.0000       1.985173        54.0193 
 611   0.0000       1.991738        54.1980 
 612   0.0000       2.001407        54.4611 
 613   0.0000       2.003350        54.5139 
 614   0.0000       2.008765        54.6613 
 615   0.0000       2.016272        54.8656 
 616   0.0000       2.035872        55.3989 
 617   0.0000       2.038176        55.4616 
 618   0.0000       2.045875        55.6711 
 619   0.0000       2.051273        55.8180 
 620   0.0000       2.058998        56.0282 
 621   0.0000       2.061687        56.1014 
 622   0.0000       2.072838        56.4048 
 623   0.0000       2.077874        56.5418 
 624   0.0000       2.080694        56.6186 
 625   0.0000       2.085689        56.7545 
 626   0.0000       2.092829        56.9488 
 627   0.0000       2.105670        57.2982 
 628   0.0000       2.106810        57.3292 
 629   0.0000       2.116256        57.5863 
 630   0.0000       2.122808        57.7645 
 631   0.0000       2.135886        58.1204 
 632   0.0000       2.147235        58.4292 
 633   0.0000       2.151192        58.5369 
 634   0.0000       2.161811        58.8259 
 635   0.0000       2.174285        59.1653 
 636   0.0000       2.180895        59.3452 
 637   0.0000       2.187710        59.5306 
 638   0.0000       2.195318        59.7376 
 639   0.0000       2.209240        60.1165 
 640   0.0000       2.234631        60.8074 
 641   0.0000       2.238081        60.9013 
 642   0.0000       2.239223        60.9324 
 643   0.0000       2.253670        61.3255 
 644   0.0000       2.261297        61.5330 
 645   0.0000       2.276704        61.9523 
 646   0.0000       2.277870        61.9840 
 647   0.0000       2.304055        62.6965 
 648   0.0000       2.308898        62.8283 
 649   0.0000       2.309716        62.8506 
 650   0.0000       2.317552        63.0638 
 651   0.0000       2.328028        63.3489 
 652   0.0000       2.340536        63.6892 
 653   0.0000       2.344539        63.7982 
 654   0.0000       2.346780        63.8591 
 655   0.0000       2.350739        63.9669 
 656   0.0000       2.360808        64.2409 
 657   0.0000       2.366270        64.3895 
 658   0.0000       2.378032        64.7095 
 659   0.0000       2.383497        64.8582 
 660   0.0000       2.394073        65.1460 
 661   0.0000       2.401773        65.3556 
 662   0.0000       2.407878        65.5217 
 663   0.0000       2.418288        65.8050 
 664   0.0000       2.426513        66.0288 
 665   0.0000       2.435008        66.2599 
 666   0.0000       2.451528        66.7095 
 667   0.0000       2.458854        66.9088 
 668   0.0000       2.468212        67.1635 
 669   0.0000       2.470953        67.2380 
 670   0.0000       2.472676        67.2849 
 671   0.0000       2.500834        68.0511 
 672   0.0000       2.507822        68.2413 
 673   0.0000       2.509665        68.2914 
 674   0.0000       2.518364        68.5282 
 675   0.0000       2.530264        68.8520 
 676   0.0000       2.544385        69.2362 
 677   0.0000       2.552844        69.4664 
 678   0.0000       2.557502        69.5932 
 679   0.0000       2.568553        69.8939 
 680   0.0000       2.582409        70.2709 
 681   0.0000       2.589311        70.4587 
 682   0.0000       2.598621        70.7121 
 683   0.0000       2.608584        70.9832 
 684   0.0000       2.614162        71.1350 
 685   0.0000       2.622016        71.3487 
 686   0.0000       2.635461        71.7145 
 687   0.0000       2.640319        71.8467 
 688   0.0000       2.653437        72.2037 
 689   0.0000       2.655418        72.2576 
 690   0.0000       2.663873        72.4877 
 691   0.0000       2.677678        72.8633 
 692   0.0000       2.689264        73.1786 
 693   0.0000       2.693565        73.2956 
 694   0.0000       2.701129        73.5015 
 695   0.0000       2.710193        73.7481 
 696   0.0000       2.715808        73.9009 
 697   0.0000       2.728129        74.2362 
 698   0.0000       2.736212        74.4561 
 699   0.0000       2.739536        74.5466 
 700   0.0000       2.743365        74.6507 
 701   0.0000       2.763392        75.1957 
 702   0.0000       2.771746        75.4230 
 703   0.0000       2.773654        75.4750 
 704   0.0000       2.787151        75.8422 
 705   0.0000       2.795755        76.0763 
 706   0.0000       2.802528        76.2607 
 707   0.0000       2.804778        76.3219 
 708   0.0000       2.815119        76.6033 
 709   0.0000       2.827695        76.9455 
 710   0.0000       2.838381        77.2363 
 711   0.0000       2.845894        77.4407 
 712   0.0000       2.858999        77.7973 
 713   0.0000       2.865686        77.9793 
 714   0.0000       2.871232        78.1302 
 715   0.0000       2.882411        78.4344 
 716   0.0000       2.892843        78.7182 
 717   0.0000       2.901110        78.9432 
 718   0.0000       2.910265        79.1923 
 719   0.0000       2.917742        79.3958 
 720   0.0000       2.927279        79.6553 
 721   0.0000       2.937600        79.9362 
 722   0.0000       2.938492        79.9604 
 723   0.0000       2.944898        80.1347 
 724   0.0000       2.952249        80.3348 
 725   0.0000       2.958914        80.5162 
 726   0.0000       2.966424        80.7205 
 727   0.0000       2.969754        80.8111 
 728   0.0000       2.976157        80.9853 
 729   0.0000       2.991296        81.3973 
 730   0.0000       2.998223        81.5858 
 731   0.0000       3.000793        81.6557 
 732   0.0000       3.011059        81.9351 
 733   0.0000       3.014026        82.0158 
 734   0.0000       3.026507        82.3554 
 735   0.0000       3.031967        82.5040 
 736   0.0000       3.033360        82.5419 
 737   0.0000       3.040598        82.7389 
 738   0.0000       3.047521        82.9273 
 739   0.0000       3.049851        82.9907 
 740   0.0000       3.052455        83.0615 
 741   0.0000       3.060444        83.2789 
 742   0.0000       3.069111        83.5148 
 743   0.0000       3.070852        83.5621 
 744   0.0000       3.076577        83.7179 
 745   0.0000       3.078765        83.7774 
 746   0.0000       3.086561        83.9896 
 747   0.0000       3.092510        84.1515 
 748   0.0000       3.097693        84.2925 
 749   0.0000       3.102137        84.4134 
 750   0.0000       3.109637        84.6175 
 751   0.0000       3.117173        84.8226 
 752   0.0000       3.123476        84.9941 
 753   0.0000       3.126323        85.0716 
 754   0.0000       3.130002        85.1717 
 755   0.0000       3.136488        85.3482 
 756   0.0000       3.138140        85.3931 
 757   0.0000       3.145588        85.5958 
 758   0.0000       3.150036        85.7168 
 759   0.0000       3.158117        85.9367 
 760   0.0000       3.166911        86.1760 
 761   0.0000       3.171795        86.3089 
 762   0.0000       3.179228        86.5112 
 763   0.0000       3.183808        86.6358 
 764   0.0000       3.189329        86.7861 
 765   0.0000       3.198325        87.0308 
 766   0.0000       3.203642        87.1755 
 767   0.0000       3.209137        87.3251 
 768   0.0000       3.216348        87.5213 
 769   0.0000       3.222990        87.7020 
 770   0.0000       3.231556        87.9351 
 771   0.0000       3.236431        88.0678 
 772   0.0000       3.239216        88.1436 
 773   0.0000       3.245158        88.3052 
 774   0.0000       3.249185        88.4148 
 775   0.0000       3.256417        88.6116 
 776   0.0000       3.266803        88.8942 
 777   0.0000       3.271654        89.0262 
 778   0.0000       3.273262        89.0700 
 779   0.0000       3.285074        89.3914 
 780   0.0000       3.294566        89.6497 
 781   0.0000       3.299276        89.7779 
 782   0.0000       3.302018        89.8525 
 783   0.0000       3.305446        89.9458 
 784   0.0000       3.316892        90.2572 
 785   0.0000       3.320332        90.3508 
 786   0.0000       3.327129        90.5358 
 787   0.0000       3.332295        90.6763 
 788   0.0000       3.338789        90.8531 
 789   0.0000       3.347037        91.0775 
 790   0.0000       3.348607        91.1202 
 791   0.0000       3.351916        91.2103 
 792   0.0000       3.354742        91.2872 
 793   0.0000       3.363143        91.5158 
 794   0.0000       3.369544        91.6899 
 795   0.0000       3.374751        91.8316 
 796   0.0000       3.379101        91.9500 
 797   0.0000       3.388421        92.2036 
 798   0.0000       3.390881        92.2706 
 799   0.0000       3.394454        92.3678 
 800   0.0000       3.397520        92.4512 
 801   0.0000       3.402256        92.5801 
 802   0.0000       3.408427        92.7480 
 803   0.0000       3.418074        93.0105 
 804   0.0000       3.422105        93.1202 
 805   0.0000       3.428554        93.2957 
 806   0.0000       3.432851        93.4126 
 807   0.0000       3.440611        93.6238 
 808   0.0000       3.443497        93.7023 
 809   0.0000       3.450435        93.8911 
 810   0.0000       3.457212        94.0755 
 811   0.0000       3.460045        94.1526 
 812   0.0000       3.463765        94.2538 
 813   0.0000       3.465995        94.3145 
 814   0.0000       3.474918        94.5573 
 815   0.0000       3.484201        94.8099 
 816   0.0000       3.493434        95.0612 
 817   0.0000       3.495109        95.1068 
 818   0.0000       3.499373        95.2228 
 819   0.0000       3.506145        95.4070 
 820   0.0000       3.512594        95.5826 
[...]
      py      :     0.116209
      dz2     :     0.002886  d :     0.029891
      dxz     :     0.005200
      dyz     :     0.004226
      dx2y2   :     0.009599
      dxy     :     0.007979
 39 H s       :     0.690413  s :     0.690413
      pz      :     0.111768  p :     0.315387
      px      :     0.093637
      py      :     0.109981
      dz2     :     0.007657  d :     0.030752
      dxz     :     0.005846
      dyz     :     0.007860
      dx2y2   :     0.004779
      dxy     :     0.004610
 40 H s       :     0.676205  s :     0.676205
      pz      :     0.113200  p :     0.314082
      px      :     0.117886
      py      :     0.082996
      dz2     :     0.009236  d :     0.030046
      dxz     :     0.008044
      dyz     :     0.006118
      dx2y2   :     0.002816
      dxy     :     0.003831
 41 H s       :     0.686907  s :     0.686907
      pz      :     0.082487  p :     0.268520
      px      :     0.077530
      py      :     0.108503
      dz2     :     0.005479  d :     0.029792
      dxz     :     0.002806
      dyz     :     0.007561
      dx2y2   :     0.006404
      dxy     :     0.007542
 42 H s       :     0.681043  s :     0.681043
      pz      :     0.079050  p :     0.316878
      px      :     0.110604
      py      :     0.127224
      dz2     :     0.002940  d :     0.030288
      dxz     :     0.000786
      dyz     :     0.008544
      dx2y2   :     0.008983
      dxy     :     0.009034
 43 H s       :     0.695010  s :     0.695010
      pz      :     0.113814  p :     0.282945
      px      :     0.088370
      py      :     0.080761
      dz2     :     0.009002  d :     0.029876
      dxz     :     0.007257
      dyz     :     0.006793
      dx2y2   :     0.003316
      dxy     :     0.003507
 44 H s       :     0.688465  s :     0.688465
      pz      :     0.081679  p :     0.264604
      px      :     0.107661
      py      :     0.075264
      dz2     :     0.005800  d :     0.028892
      dxz     :     0.007913
      dyz     :     0.002406
      dx2y2   :     0.005913
      dxy     :     0.006859
 45 H s       :     0.690341  s :     0.690341
      pz      :     0.082412  p :     0.264789
      px      :     0.073126
      py      :     0.109251
      dz2     :     0.005708  d :     0.029501
      dxz     :     0.002325
      dyz     :     0.008084
      dx2y2   :     0.005844
      dxy     :     0.007540
 46 H s       :     0.674497  s :     0.674497
      pz      :     0.114393  p :     0.333352
      px      :     0.121615
      py      :     0.097343
      dz2     :     0.008269  d :     0.030506
      dxz     :     0.006832
      dyz     :     0.006490
      dx2y2   :     0.004151
      dxy     :     0.004764


                      *****************************
                      * MAYER POPULATION ANALYSIS *
                      *****************************

  NA   - Mulliken gross atomic population
  ZA   - Total nuclear charge
  QA   - Mulliken gross atomic charge
  VA   - Mayer's total valence
  BVA  - Mayer's bonded valence
  FA   - Mayer's free valence

  ATOM       NA         ZA         QA         VA         BVA        FA
  0 Ru    18.1083    16.0000    -2.1083     6.9278     6.9278    -0.0000
  1 C      5.5405     6.0000     0.4595     1.1076     1.1076    -0.0000
  2 C      4.5643     6.0000     1.4357    -0.5896    -0.5896     0.0000
  3 C      5.3098     6.0000     0.6902     1.6091     1.6091    -0.0000
  4 C      5.5349     6.0000     0.4651     0.4712     0.4712     0.0000
  5 C      5.2685     6.0000     0.7315     1.6420     1.6420     0.0000
  6 C      6.9271     6.0000    -0.9271     3.8248     3.8248    -0.0000
  7 H      0.8627     1.0000     0.1373     1.0227     1.0227    -0.0000
  8 H      0.8748     1.0000     0.1252     1.0004     1.0004    -0.0000
  9 H      0.8509     1.0000     0.1491     0.9572     0.9572    -0.0000
 10 C      7.0744     6.0000    -1.0744     4.2589     4.2589     0.0000
 11 H      0.8766     1.0000     0.1234     0.9435     0.9435     0.0000
 12 H      0.8552     1.0000     0.1448     1.0455     1.0455     0.0000
 13 H      0.8373     1.0000     0.1627     0.9823     0.9823    -0.0000
 14 C      7.0010     6.0000    -1.0010     4.1633     4.1633     0.0000
 15 H      0.8354     1.0000     0.1646     0.9529     0.9529     0.0000
 16 H      0.8797     1.0000     0.1203     1.0786     1.0786     0.0000
 17 H      0.8989     1.0000     0.1011     0.9662     0.9662     0.0000
 18 C      6.8273     6.0000    -0.8273     3.9059     3.9059     0.0000
 19 H      0.8560     1.0000     0.1440     1.0005     1.0005     0.0000
 20 H      0.8937     1.0000     0.1063     1.0260     1.0260     0.0000
 21 H      0.8850     1.0000     0.1150     1.0198     1.0198     0.0000
 22 C      6.8148     6.0000    -0.8148     3.8365     3.8365     0.0000
 23 H      0.8380     1.0000     0.1620     0.9328     0.9328     0.0000
 24 H      0.9174     1.0000     0.0826     1.0300     1.0300    -0.0000
 25 H      0.8924     1.0000     0.1076     1.0231     1.0231     0.0000
 26 Cl    17.6145    17.0000    -0.6145     0.6688     0.6688    -0.0000
 27 C      6.8179     6.0000    -0.8179     3.0051     3.0051     0.0000
 28 C      4.7599     6.0000     1.2401     0.9830     0.9830     0.0000
 29 C      6.3204     6.0000    -0.3204     4.4312     4.4312     0.0000
 30 C      6.5487     6.0000    -0.5487     4.3800     4.3800     0.0000
 31 C      5.7488     6.0000     0.2512     3.0158     3.0158    -0.0000
 32 C      5.4050     6.0000     0.5950     3.5543     3.5543    -0.0000
 33 C      6.2782     6.0000    -0.2782     4.0626     4.0626     0.0000
 34 C      6.0101     6.0000    -0.0101     3.9230     3.9230     0.0000
 35 H      0.8143     1.0000     0.1857     0.8956     0.8956     0.0000
 36 H      0.8806     1.0000     0.1194     0.8883     0.8883     0.0000
 37 H      0.9583     1.0000     0.0417     0.9819     0.9819     0.0000
 38 H      0.9221     1.0000     0.0779     0.9514     0.9514     0.0000
 39 H      1.0651     1.0000    -0.0651     1.3098     1.3098     0.0000
 40 H      0.5776     1.0000     0.4224     0.5234     0.5234    -0.0000
 41 H      0.9169     1.0000     0.0831     0.9452     0.9452     0.0000
 42 H      0.8340     1.0000     0.1660     0.9985     0.9985    -0.0000
 43 H      1.1448     1.0000    -0.1448     1.0569     1.0569    -0.0000
 44 H      0.8043     1.0000     0.1957     0.9069     0.9069    -0.0000
 45 H      0.8650     1.0000     0.1350     0.9097     0.9097    -0.0000
 46 H      0.6887     1.0000     0.3113     0.5670     0.5670     0.0000

  Mayer bond orders larger than 0.100000
B(  0-Ru,  1-C ) :   0.8030 B(  0-Ru,  2-C ) :   0.2230 B(  0-Ru,  3-C ) :   0.2581 
B(  0-Ru,  4-C ) :   0.4468 B(  0-Ru,  5-C ) :   0.4765 B(  0-Ru,  6-C ) :   0.1664 
B(  0-Ru, 10-C ) :   0.2371 B(  0-Ru, 14-C ) :   0.1479 B(  0-Ru, 26-Cl) :   0.8249 
B(  0-Ru, 27-C ) :   1.4469 B(  0-Ru, 28-C ) :  -0.4455 B(  0-Ru, 29-C ) :   0.4633 
B(  0-Ru, 30-C ) :   0.1655 B(  0-Ru, 31-C ) :   0.6541 B(  0-Ru, 32-C ) :   0.5219 
B(  0-Ru, 33-C ) :   0.1844 B(  0-Ru, 34-C ) :   0.1528 B(  0-Ru, 39-H ) :   0.1308 
B(  1-C ,  3-C ) :  -0.3833 B(  1-C ,  4-C ) :   0.5317 B(  1-C ,  5-C ) :  -0.5777 
B(  1-C ,  6-C ) :   0.9397 B(  1-C ,  7-H ) :  -0.1101 B(  1-C ,  8-H ) :  -0.1441 
B(  1-C , 10-C ) :  -0.1986 B(  1-C , 26-Cl) :   0.1284 B(  1-C , 28-C ) :  -0.1652 
B(  2-C ,  3-C ) :  -0.1824 B(  2-C ,  4-C ) :  -0.3681 B(  2-C ,  5-C ) :   0.2985 
B(  2-C ,  6-C ) :  -0.4316 B(  2-C , 10-C ) :   0.1107 B(  2-C , 18-C ) :  -0.2115 
B(  2-C , 22-C ) :   0.5134 B(  2-C , 23-H ) :  -0.1009 B(  2-C , 24-H ) :  -0.1074 
B(  2-C , 27-C ) :  -0.6774 B(  2-C , 28-C ) :   0.3158 B(  2-C , 29-C ) :  -0.1310 
B(  2-C , 31-C ) :  -0.1735 B(  2-C , 40-H ) :   0.1155 B(  3-C ,  4-C ) :   0.5041 
B(  3-C ,  5-C ) :   0.9089 B(  3-C , 12-H ) :   0.1259 B(  3-C , 14-C ) :   0.8429 
B(  3-C , 16-H ) :  -0.1361 B(  3-C , 17-H ) :  -0.1607 B(  3-C , 27-C ) :  -0.4170 
B(  3-C , 28-C ) :   0.1190 B(  4-C ,  5-C ) :  -0.6305 B(  4-C , 10-C ) :   0.6667 
B(  4-C , 11-H ) :  -0.1604 B(  4-C , 12-H ) :  -0.1673 B(  4-C , 14-C ) :  -0.2037 
B(  4-C , 26-Cl) :  -0.4367 B(  4-C , 27-C ) :   0.4184 B(  4-C , 32-C ) :  -0.1874 
B(  5-C , 10-C ) :   0.1004 B(  5-C , 18-C ) :   0.7987 B(  5-C , 20-H ) :  -0.1450 
B(  5-C , 21-H ) :  -0.1040 B(  5-C , 26-Cl) :   0.1825 B(  5-C , 27-C ) :   0.4423 
B(  5-C , 32-C ) :   0.2408 B(  6-C ,  7-H ) :   1.0349 B(  6-C ,  8-H ) :   1.0541 
B(  6-C ,  9-H ) :   0.9352 B(  6-C , 10-C ) :   0.1060 B(  6-C , 27-C ) :   0.2099 
B(  6-C , 28-C ) :  -0.1275 B(  6-C , 32-C ) :   0.1015 B(  6-C , 40-H ) :  -0.1243 
B( 10-C , 11-H ) :   1.0251 B( 10-C , 12-H ) :   1.0160 B( 10-C , 13-H ) :   0.9809 
B( 10-C , 14-C ) :   0.1867 B( 14-C , 15-H ) :   0.9446 B( 14-C , 16-H ) :   1.0119 
B( 14-C , 17-H ) :   1.0358 B( 14-C , 18-C ) :   0.1536 B( 18-C , 19-H ) :   0.9783 
B( 18-C , 20-H ) :   1.0444 B( 18-C , 21-H ) :   1.0296 B( 22-C , 23-H ) :   0.9511 
B( 22-C , 24-H ) :   1.0718 B( 22-C , 25-H ) :   1.0542 B( 26-Cl, 32-C ) :  -0.2264 
B( 26-Cl, 33-C ) :   0.1049 B( 26-Cl, 34-C ) :  -0.1970 B( 26-Cl, 39-H ) :   0.1566 
B( 27-C , 28-C ) :  -0.4055 B( 27-C , 29-C ) :   0.1008 B( 27-C , 32-C ) :  -0.3048 
B( 27-C , 34-C ) :   1.0035 B( 27-C , 39-H ) :   1.5474 B( 27-C , 40-H ) :  -0.3679 
B( 27-C , 43-H ) :   0.1328 B( 28-C , 29-C ) :   1.0452 B( 28-C , 32-C ) :   0.2231 
B( 28-C , 37-H ) :   0.1449 B( 28-C , 39-H ) :  -0.4533 B( 28-C , 40-H ) :   1.0542 
B( 28-C , 43-H ) :  -0.1362 B( 29-C , 30-C ) :   0.9746 B( 29-C , 31-C ) :  -0.1391 
B( 29-C , 35-H ) :   0.9326 B( 29-C , 37-H ) :   0.8686 B( 29-C , 46-H ) :   0.1245 
B( 30-C , 31-C ) :   1.1043 B( 30-C , 34-C ) :   0.1202 B( 30-C , 36-H ) :   0.9947 
B( 30-C , 45-H ) :   0.9978 B( 31-C , 32-C ) :   1.0079 B( 31-C , 33-C ) :  -0.1401 
B( 31-C , 46-H ) :   0.8064 B( 32-C , 33-C ) :   1.0812 B( 32-C , 43-H ) :   1.1946 
B( 32-C , 46-H ) :  -0.2666 B( 33-C , 34-C ) :   0.9657 B( 33-C , 39-H ) :   0.1393 
B( 33-C , 42-H ) :   0.8986 B( 33-C , 44-H ) :   0.9363 B( 34-C , 38-H ) :   0.9845 
B( 34-C , 39-H ) :  -0.1051 B( 34-C , 41-H ) :   0.9438 

-------
TIMINGS
-------

Total SCF time: 0 days 0 hours 4 min 5 sec 

Total time                  ....     245.075 sec
Sum of individual times     ....     242.722 sec  ( 99.0%)

Fock matrix formation       ....     227.868 sec  ( 93.0%)
  XC integration            ....      21.432 sec  (  9.4% of F)
    Basis function eval.    ....       3.281 sec  ( 15.3% of XC)
    Density eval.           ....       8.727 sec  ( 40.7% of XC)
    XC-Functional eval.     ....       0.107 sec  (  0.5% of XC)
    XC-Potential eval.      ....       7.228 sec  ( 33.7% of XC)
Diagonalization             ....       4.435 sec  (  1.8%)
Density matrix formation    ....       0.243 sec  (  0.1%)
Population analysis         ....       0.401 sec  (  0.2%)
Initial guess               ....       2.915 sec  (  1.2%)
Orbital Transformation      ....       0.000 sec  (  0.0%)
Orbital Orthonormalization  ....       0.000 sec  (  0.0%)
DIIS solution               ....       4.973 sec  (  2.0%)
Grid generation             ....       1.887 sec  (  0.8%)


           ************************************************************
           *        Program running with 24 parallel MPI-processes    *
           *              working on a common directory               *
           ************************************************************

------------------------------------------------------------------------------
                                ORCA  MP2 
------------------------------------------------------------------------------

Freezing NCore=46 chemical core electrons

-------------
RI-MP2 ENERGY
-------------
Dimension of the basis                    ... 1232
Memory devoted to MP2                     ... 5000 MB   
Data format for buffers                   ... DOUBLE
Compression type for matrix containers    ... UNCOMPRESSED
Overall scaling of the MP2 energy         ...   2.700e-01
Calculating two index integrals           ... done (    0.067 sec)
Cholesky decomposition of V**-1           ... done (    0.883 sec)

-----------------
RI-TRANSFORMATION (AUX index driven)
-----------------

Dimension of the orbital-basis         ... 1232
Dimension of the aux-basis             ... 3024
Transformation of internal/external MOs...   23-  83 to   84-1231
Number Format for Storage              ... Double (8 Byte)
Integral mode                          ... Direct

First Phase: integral generation and transformation of MO indices
  Aux angular momentum 0               ... done (    0.635 sec)
  Aux angular momentum 1               ... done (    1.226 sec)
  Aux angular momentum 2               ... done (    1.512 sec)
  Aux angular momentum 3               ... done (    1.354 sec)
  Aux angular momentum 4               ... done (    0.325 sec)
  Aux angular momentum 5               ... done (    0.398 sec)
  Aux angular momentum 6               ... done (    0.506 sec)
Closing buffer VIA ( 1.58 GB; CompressionRatio= 1.00)
  Phase 1 completed in     6.160 sec
Second Phase: sorting and transformation of aux index

IA-Transformation
Memory available                       ... 4808 MB 
Max. # MO pairs treated in a batch     ... 3    
# of internal orbitals                 ... 61
# batches for internal orbitals        ... 1
Closing buffer IAV ( 0.08 GB; CompressionRatio= 1.00)
(ia|v) transformation done in     1.543 sec

  Phase 2 completed in     3.210 sec
RI-Integral transformation completed in     9.416 sec
Opening buffers                              ... done

Starting loop over batches of integrals:

Operator 0  - window                       ... ( 23- 83)x( 84-1231)
Operator 0  - Memory available             ...  5000 MB
Operator 0  - Memory needed per MO         ...  26.5 MB
Operator 0  - Number of orbitals per batch ... 3
Operator 0  - Number of batches            ... 1

OPERATOR  0   PASS   0:  MOs    23 ...   25 +   26 ...   28 +   29 ...   31 +   32 ...   34
                            +   35 ...   37 +   38 ...   40 +   41 ...   43 +   44 ...   46
                            +   47 ...   49 +   50 ...   52 +   53 ...   55 +   56 ...   58
                            +   59 ...   61 +   62 ...   64 +   65 ...   67 +   68 ...   70
                            +   71 ...   73 +   74 ...   76 +   77 ...   79 +   80 ...   82
                            +   83 ...   83
  Reading integrals       ... ok
  Internal MO  25
Time spent in pair loops =     1.025 sec
Deleting buffer (Ka|jb)[aa] ...done

-----------------------------------------------
 RI-MP2 CORRELATION ENERGY:     -1.339559150 Eh
-----------------------------------------------


-------
TIMINGS
-------

Total time                :   34.117 sec
Integral trafo            :    9.438 sec ( 27.7%)
I/O of integrals          :    0.083 sec (  0.2%)
K(i,j) Operators          :    0.770 sec (  2.3%)
T(i,j) pair energies      :    0.098 sec (  0.3%)
V-calculation             :    0.067 sec (  0.2%)
V**(-1/2)                 :    0.883 sec (  2.6%)
Gamma(ia|P)               :    0.000 sec (  0.0%)
Gamma-Trafo               :    0.000 sec (  0.0%)
D(virtual)                :    0.000 sec (  0.0%)
D(internal)               :    0.000 sec (  0.0%)
W(virtual)                :    0.000 sec (  0.0%)
W(internal)               :    0.000 sec (  0.0%)
L(virtual)                :    0.000 sec (  0.0%)
L(internal)               :    0.000 sec (  0.0%)
G(D)                      :    0.000 sec (  0.0%)
G(Z)                      :    0.000 sec (  0.0%)
Z-Vector Solution         :    0.000 sec (  0.0%)
Z-Vector Solution         :    0.000 sec (  0.0%)
3-Index Derivative 
+ Separable RIJ part      :    0.000 sec (  0.0%)
2-Index Derivative 
+ Separable RIJ part      :    0.000 sec (  0.0%)
Separable Gradient (X)    :    0.000 sec (  0.0%)


---------------------------------------
MP2 TOTAL ENERGY:    -1256.788866760 Eh
---------------------------------------


-------------------------------------------------------------------------------
                          DFT DISPERSION CORRECTION                            
                                                                               
                              DFTD3 V3.1  Rev 1                                
                          USING Becke-Johnson damping                          
-------------------------------------------------------------------------------
The B2PLYP functional is recognized
Active option DFTDOPT                   ...         4   

molecular C6(AA) [au] = 22222.899569 


            DFT-D V3
 parameters
 s6 scaling factor         :     0.6400 
 a1 scaling factor         :     0.3065 
 s8 scaling factor         :     0.9147 
 a2 scaling factor         :     5.0570 
 ad hoc parameters k1-k3   :    16.0000     1.3333    -4.0000 

 Edisp/kcal,au: -38.923199049269  -0.062028059346 
 E6   /kcal   : -20.858696148 
 E8   /kcal   : -18.064502901 
 % E8         :  46.410632586 

-------------------------   ----------------
Dispersion correction           -0.062028059
-------------------------   ----------------


-------------------------   --------------------
FINAL SINGLE POINT ENERGY     -1256.850894818954
-------------------------   --------------------


                            ***************************************
                            *     ORCA property calculations      *
                            ***************************************


  WARNING: The energy has been calculated at the MP2 level but the densities
           used in the property calculations are still SCF densities
           MP2 response densities have not been calculated 
           use %mp2 Density relaxed end
           or  %mp2 Density unrelaxed end

                                    ---------------------
                                    Active property flags
                                    ---------------------
   (+) Dipole Moment


------------------------------------------------------------------------------
                       ORCA ELECTRIC PROPERTIES CALCULATION
------------------------------------------------------------------------------

Dipole Moment Calculation                       ... on
Quadrupole Moment Calculation                   ... off
Polarizability Calculation                      ... off
GBWName                                         ... MOR14_ed26.gbw
Electron density file                           ... MOR14_ed26.scfp
The origin for moment calculation is the CENTER OF MASS  = (-0.001027, -0.085807 -0.008956)

-------------
DIPOLE MOMENT
-------------
                                X             Y             Z
Electronic contribution:     -3.17909     -21.55532      -2.00588
Nuclear contribution   :      3.57716      23.71136       2.15126
                        -----------------------------------------
Total Dipole Moment    :      0.39807       2.15604       0.14538
                        -----------------------------------------
Magnitude (a.u.)       :      2.19729
Magnitude (Debye)      :      5.58507



--------------------
Rotational spectrum 
--------------------
 
Rotational constants in cm-1:     0.013422     0.011126     0.009459 
Rotational constants in MHz :   402.378908   333.556426   283.583792 

 Dipole components along the rotational axes: 
x,y,z [a.u.] :     0.464740     2.144888     0.107553 
x,y,z [Debye]:     1.181274     5.451873     0.273377 

 

Timings for individual modules:

Sum of individual times         ...      288.303 sec (=   4.805 min)
GTO integral calculation        ...        7.818 sec (=   0.130 min)   2.7 %
SCF iterations                  ...      245.510 sec (=   4.092 min)  85.2 %
MP2 module                      ...       34.974 sec (=   0.583 min)  12.1 %
                             ****ORCA TERMINATED NORMALLY****
TOTAL RUN TIME: 0 days 0 hours 4 minutes 49 seconds 46 msec
