
                                 *****************
                                 * O   R   C   A *
                                 *****************

           --- An Ab Initio, DFT and Semiempirical electronic structure package ---

                  #######################################################
                  #                        -***-                        #
                  #          Department of theory and spectroscopy      #
                  #               Directorship: Frank Neese             #
                  #        Max Planck Institute fuer Kohlenforschung    #
                  #                Kaiser Wilhelm Platz 1               #
                  #                 D-45470 Muelheim/Ruhr               #
                  #                      Germany                        #
                  #                                                     #
                  #                  All rights reserved                #
                  #                        -***-                        #
                  #######################################################


                         Program Version 4.2.0 -  RELEASE  -


 With contributions from (in alphabetic order):
   Daniel Aravena         : Magnetic Suceptibility
   Michael Atanasov       : Ab Initio Ligand Field Theory (pilot matlab implementation)
   Alexander A. Auer      : GIAO ZORA, VPT2
   Ute Becker             : Parallelization
   Giovanni Bistoni       : ED, misc. LED, open-shell LED, HFLED
   Martin Brehm           : Molecular dynamics
   Dmytro Bykov           : SCF Hessian
   Vijay G. Chilkuri      : MRCI spin determinant printing, contributions to CSF-ICE
   Dipayan Datta          : RHF DLPNO-CCSD density
   Achintya Kumar Dutta   : EOM-CC, STEOM-CC
   Dmitry Ganyushin       : Spin-Orbit,Spin-Spin,Magnetic field MRCI
   Miquel Garcia          : C-PCM Hessian, Gaussian charge scheme
   Yang Guo               : DLPNO-NEVPT2, CIM, IAO-localization
   Andreas Hansen         : Spin unrestricted coupled pair/coupled cluster methods
   Benjamin Helmich-Paris : CASSCF linear response (MC-RPA)
   Lee Huntington         : MR-EOM, pCC
   Robert Izsak           : Overlap fitted RIJCOSX, COSX-SCS-MP3, EOM
   Christian Kollmar      : KDIIS, OOCD, Brueckner-CCSD(T), CCSD density
   Simone Kossmann        : Meta GGA functionals, TD-DFT gradient, OOMP2, MP2 Hessian
   Martin Krupicka        : AUTO-CI
   Lucas Lang             : DCDCAS
   Dagmar Lenk            : GEPOL surface, SMD
   Dimitrios Liakos       : Extrapolation schemes; Compound Job, initial MDCI parallelization
   Dimitrios Manganas     : Further ROCIS development; embedding schemes
   Dimitrios Pantazis     : SARC Basis sets
   Taras Petrenko         : DFT Hessian,TD-DFT gradient, ASA, ECA, R-Raman, ABS, FL, XAS/XES, NRVS
   Peter Pinski           : DLPNO-MP2, DLPNO-MP2 Gradient
   Christoph Reimann      : Effective Core Potentials
   Marius Retegan         : Local ZFS, SOC
   Christoph Riplinger    : Optimizer, TS searches, QM/MM, DLPNO-CCSD(T), (RO)-DLPNO pert. Triples
   Tobias Risthaus        : Range-separated hybrids, TD-DFT gradient, RPA, STAB
   Michael Roemelt        : Original ROCIS implementation
   Masaaki Saitow         : Open-shell DLPNO-CCSD energy and density
   Barbara Sandhoefer     : DKH picture change effects
   Avijit Sen             : IP-ROCIS
   Kantharuban Sivalingam : CASSCF convergence, NEVPT2, FIC-MRCI
   Bernardo de Souza      : ESD, SOC TD-DFT
   Georgi Stoychev        : AutoAux, RI-MP2 NMR
   Willem Van den Heuvel  : Paramagnetic NMR
   Boris Wezisla          : Elementary symmetry handling
   Frank Wennmohs         : Technical directorship


 We gratefully acknowledge several colleagues who have allowed us to
 interface, adapt or use parts of their codes:
   Stefan Grimme, W. Hujo, H. Kruse,             : VdW corrections, initial TS optimization,
                  C. Bannwarth                     DFT functionals, gCP, sTDA/sTD-DF
   Ed Valeev, F. Pavosevic, A. Kumar             : LibInt (2-el integral package), F12 methods
   Garnet Chan, S. Sharma, J. Yang, R. Olivares  : DMRG
   Ulf Ekstrom                                   : XCFun DFT Library
   Mihaly Kallay                                 : mrcc  (arbitrary order and MRCC methods)
   Andreas Klamt, Michael Diedenhofen            : otool_cosmo (COSMO solvation model)
   Jiri Pittner, Ondrej Demel                    : Mk-CCSD
   Frank Weinhold                                : gennbo (NPA and NBO analysis)
   Christopher J. Cramer and Donald G. Truhlar   : smd solvation model
   Lars Goerigk                                  : TD-DFT with DH, B97 family of functionals
   V. Asgeirsson, H. Jonsson                     : NEB implementation
   FAccTs GmbH                                   : IRC, NEB, NEB-TS, Multilevel, MM, QM/MM, CI optimization
   S Lehtola, MJT Oliveira, MAL Marques          : LibXC Library


 Your calculation uses the libint2 library for the computation of 2-el integrals
 For citations please refer to: http://libint.valeyev.net

 Your ORCA version has been built with support for libXC version: 4.2.3
 For citations please refer to: https://tddft.org/programs/libxc/

 This ORCA versions uses:
   CBLAS   interface :  Fast vector & matrix operations
   LAPACKE interface :  Fast linear algebra routines
   SCALAPACK package :  Parallel linear algebra routines


Your calculation utilizes the atom-pairwise dispersion correction
with the Becke-Johnson damping scheme (D3BJ)
Cite in your paper:
S.Grimme, S.Ehrlich, L.Goerigk, J Comput Chem, (2011), 32, 1456–1465 
S.Grimme, J.Antony, S.Ehrlich and H.Krieg, J.Chem.Phys., 132, (2010), 154104 
   

----- Orbital basis set information -----
Your calculation utilizes the basis: def2-TZVPPD
   F. Weigend and R. Ahlrichs, Phys. Chem. Chem. Phys. 7, 3297 (2005).
   D. Rappoport and F. Furche, J. Chem. Phys. 133 134105 (2010).

----- AuxC basis set information -----
Your calculation utilizes the auxiliary basis: def2-TZVPPD/C
   A. Hellweg, C. Hattig, S. Hofener and W. Klopper, Theor. Chem. Acc. 117, 587 (2007).

----- AuxJK basis set information -----
Your calculation utilizes the auxiliary basis: def2/JK
   H-Ba, Hf-Rn: F. Weigend, J. Comput. Chem. 29, 167 (2008).

cite the ECPs for Mo [Def2-ECP] as follows:
Ce-Yb(ecp-28): M. Dolg, H. Stoll, H.Preuss, J. Chem. Phys., 1989, 90, 1730-1734.
Y-Cd(ecp-28), Hf-Hg(ecp-46): D. Andrae,U. Haeussermann, M. Dolg, H. Stoll, H. Preuss, Theor. Chim. Acta, 1990, 77, 123-141.
In-Sb(ecp-28), Tl-Bi(ecp-46): B. Metz, H. Stoll, M. Dolg, J. Chem. Phys., 2000, 113, 2563-2569.
Te-Xe(ecp-28), Po-Rn(ecp-46): K. A. Peterson, D. Figgen, E. Goll, H. Stoll, M. Dolg, J. Chem. Phys., 2003, 119, 11113-11123.
Rb(ecp-28), Cs(ecp-46): T. Leininger, A. Nicklass, W. Kuechle, H. Stoll, M. Dolg, A. Bergner, Chem. Phys. Lett., 1996, 255, 274-280.
Sr(ecp-28), Ba(ecp-46): M. Kaupp, P. V. Schleyer, H. Stoll and H. Preuss, J. Chem. Phys., 1991, 94, 1360-1366.
La(ecp-46): M. Dolg, H. Stoll, A. Savin, H. Preuss, Theor. Chim. Acta, 1989, 75, 173-194.
Lu(ecp-28): X. Cao, M. Dolg, J. Chem. Phys., 2001, 115, 7348-7355.

ECP parameters for Mo [Def2-ECP] have been obtained from:
TURBOMOLE (7.0.2)

================================================================================
                                        WARNINGS
                       Please study these warnings very carefully!
================================================================================


WARNING: No MP2 level density has been requested!
         To caclulate MP2 level properties use
         %mp2 Density relaxed end
         or
         %mp2 Density unrelaxed end
         Otherwise for double-hybrid DFT only the energy is correct!

WARNING: The frozen-core approximation is turned on by default for 
         the MP2 part of double-hybrid DFT.

INFO   : the flag for use of LIBINT has been found!

================================================================================
                                       INPUT FILE
================================================================================
NAME = MOR18_ed37.in
|  1> #
|  2> # MOR18_ed37 ri-B2PLYP-D3BJ/Def2-TZVPPD
|  3> #
|  4> ! rijk ri-b2plyp d3bj def2-tzvppd def2/jk def2-tzvppd/c grid4 nofinalgrid
|  5> 
|  6> *xyz 0 1
|  7> Mo      -0.098072   -0.000113   -0.000040 
|  8> O       -1.958568   -1.162297    2.254949 
|  9> C       -1.292076   -0.726548    1.409379 
| 10> C       -1.290510    1.584735   -0.075353 
| 11> O       -1.955816    2.535729   -0.120716 
| 12> C       -1.292074   -0.856985   -1.334180 
| 13> O       -1.958517   -1.371361   -2.134397 
| 14> C        1.772262   -1.255233   -0.664863 
| 15> C        1.773533   -1.210923    0.743855 
| 16> C        1.772126    0.051067    1.419259 
| 17> C        1.773764    1.248901    0.676519 
| 18> C        1.772513    1.202801   -0.754108 
| 19> C        1.773865   -0.039338   -1.420099 
| 20> H        1.752441   -2.209415   -1.178166 
| 21> H        1.754475   -2.130485    1.316775 
| 22> H        1.752160    0.083668    2.502258 
| 23> H        1.754801    2.204840    1.186440 
| 24> H        1.752821    2.124408   -1.323840 
| 25> H        1.755108   -0.075692   -2.502938 
| 26> *
| 27> 
| 28> %maxcore 5000
| 29> 
| 30> %pal
| 31> nprocs = 24
| 32> end
| 33> 
| 34> 
| 35>                          ****END OF INPUT****
================================================================================

                       ****************************
                       * Single Point Calculation *
                       ****************************

---------------------------------
CARTESIAN COORDINATES (ANGSTROEM)
---------------------------------
  Mo    -0.098072   -0.000113   -0.000040
  O     -1.958568   -1.162297    2.254949
  C     -1.292076   -0.726548    1.409379
  C     -1.290510    1.584735   -0.075353
  O     -1.955816    2.535729   -0.120716
  C     -1.292074   -0.856985   -1.334180
  O     -1.958517   -1.371361   -2.134397
  C      1.772262   -1.255233   -0.664863
  C      1.773533   -1.210923    0.743855
  C      1.772126    0.051067    1.419259
  C      1.773764    1.248901    0.676519
  C      1.772513    1.202801   -0.754108
  C      1.773865   -0.039338   -1.420099
  H      1.752441   -2.209415   -1.178166
  H      1.754475   -2.130485    1.316775
  H      1.752160    0.083668    2.502258
  H      1.754801    2.204840    1.186440
  H      1.752821    2.124408   -1.323840
  H      1.755108   -0.075692   -2.502938

----------------------------
CARTESIAN COORDINATES (A.U.)
----------------------------
  NO LB      ZA    FRAG     MASS         X           Y           Z
   0 Mo   14.0000*   0    95.940   -0.185329   -0.000214   -0.000076
   1 O     8.0000    0    15.999   -3.701157   -2.196423    4.261236
   2 C     6.0000    0    12.011   -2.441670   -1.372977    2.663340
   3 C     6.0000    0    12.011   -2.438710    2.994715   -0.142397
   4 O     8.0000    0    15.999   -3.695957    4.791833   -0.228120
   5 C     6.0000    0    12.011   -2.441666   -1.619467   -2.521235
   6 O     8.0000    0    15.999   -3.701061   -2.591497   -4.033426
   7 C     6.0000    0    12.011    3.349090   -2.372047   -1.256409
   8 C     6.0000    0    12.011    3.351492   -2.288313    1.405682
   9 C     6.0000    0    12.011    3.348833    0.096503    2.682011
  10 C     6.0000    0    12.011    3.351928    2.360081    1.278436
  11 C     6.0000    0    12.011    3.349564    2.272964   -1.425058
  12 C     6.0000    0    12.011    3.352119   -0.074338   -2.683598
  13 H     1.0000    0     1.008    3.311634   -4.175189   -2.226411
  14 H     1.0000    0     1.008    3.315477   -4.026033    2.488344
  15 H     1.0000    0     1.008    3.311103    0.158110    4.728582
  16 H     1.0000    0     1.008    3.316093    4.166544    2.242047
  17 H     1.0000    0     1.008    3.312352    4.014549   -2.501695
  18 H     1.0000    0     1.008    3.316673   -0.143037   -4.729867
* core charge reduced due to ECP

--------------------------------
INTERNAL COORDINATES (ANGSTROEM)
--------------------------------
 Mo     0   0   0     0.000000000000     0.00000000     0.00000000
 O      1   0   0     3.145964463562     0.00000000     0.00000000
 C      2   1   0     1.161497913027     1.23868826     0.00000000
 C      1   2   3     1.984772937874    88.10193366    43.93927960
 O      4   1   2     1.161498800448   178.01893710   135.91090635
 C      1   2   3     1.984892929099    88.08371754   316.29683443
 O      6   1   2     1.161497390748   178.03348865   224.82629337
 C      1   2   3     2.348502737338   118.45449497   223.54759822
 C      8   1   2     1.409415267075    72.60080526   312.03971579
 C      9   8   1     1.431359948778   119.95673606   303.49312701
 C     10   9   8     1.409422464061   120.04287915   359.79840826
 C     11  10   9     1.431370108718   119.95603609     0.19974633
 C     12  11  10     1.409416593952   120.04419158   359.80182932
 H      8   1   2     1.083667906221   126.16393490    66.96579729
 H      9   8   1     1.083602697306   120.11658095   122.20332518
 H     10   9   8     1.083673521111   119.87504897   178.72275538
 H     11  10   9     1.083604352765   120.11522199   178.90572724
 H     12  11  10     1.083670516872   119.87407376   178.72226627
 H     13  12  11     1.083611433257   120.11540082   178.91113676

---------------------------
INTERNAL COORDINATES (A.U.)
---------------------------
 Mo     0   0   0     0.000000000000     0.00000000     0.00000000
 O      1   0   0     5.945011263180     0.00000000     0.00000000
 C      2   1   0     2.194912960741     1.23868826     0.00000000
 C      1   2   3     3.750677290600    88.10193366    43.93927960
 O      4   1   2     2.194914637724   178.01893710   135.91090635
 C      1   2   3     3.750904041154    88.08371754   316.29683443
 O      6   1   2     2.194911973778   178.03348865   224.82629337
 C      1   2   3     4.438026998334   118.45449497   223.54759822
 C      8   1   2     2.663408863740    72.60080526   312.03971579
 C      9   8   1     2.704878302253   119.95673606   303.49312701
 C     10   9   8     2.663422464072   120.04287915   359.79840826
 C     11  10   9     2.704897501757   119.95603609     0.19974633
 C     12  11  10     2.663411371173   120.04419158   359.80182932
 H      8   1   2     2.047835562878   126.16393490    66.96579729
 H      9   8   1     2.047712335886   120.11658095   122.20332518
 H     10   9   8     2.047846173483   119.87504897   178.72275538
 H     11  10   9     2.047715464251   120.11522199   178.90572724
 H     12  11  10     2.047840496292   119.87407376   178.72226627
 H     13  12  11     2.047728844442   120.11540082   178.91113676

---------------------
BASIS SET INFORMATION
---------------------
There are 4 groups of distinct atoms

 Group   1 Type Mo  : 7s7p5d2f1g contracted to 6s4p3d2f1g pattern {211111/4111/311/11/1}
 Group   2 Type O   : 12s7p3d1f contracted to 6s4p3d1f pattern {621111/4111/111/1}
 Group   3 Type C   : 12s6p3d1f contracted to 6s3p3d1f pattern {621111/411/111/1}
 Group   4 Type H   : 5s3p1d contracted to 3s3p1d pattern {311/111/1}

Atom   0Mo   basis set group =>   1
Atom   1O    basis set group =>   2
Atom   2C    basis set group =>   3
Atom   3C    basis set group =>   3
Atom   4O    basis set group =>   2
Atom   5C    basis set group =>   3
Atom   6O    basis set group =>   2
Atom   7C    basis set group =>   3
Atom   8C    basis set group =>   3
Atom   9C    basis set group =>   3
Atom  10C    basis set group =>   3
Atom  11C    basis set group =>   3
Atom  12C    basis set group =>   3
Atom  13H    basis set group =>   4
Atom  14H    basis set group =>   4
Atom  15H    basis set group =>   4
Atom  16H    basis set group =>   4
Atom  17H    basis set group =>   4
Atom  18H    basis set group =>   4
---------------------------------
AUXILIARY/C BASIS SET INFORMATION
---------------------------------
There are 4 groups of distinct atoms

 Group   1 Type Mo  : 8s7p6d5f4g3h1i contracted to 8s7p6d5f4g3h1i pattern {11111111/1111111/111111/11111/1111/111/1}
 Group   2 Type O   : 9s7p6d4f1g contracted to 9s7p5d4f1g pattern {111111111/1111111/21111/1111/1}
 Group   3 Type C   : 9s7p6d4f1g contracted to 9s7p5d4f1g pattern {111111111/1111111/21111/1111/1}
 Group   4 Type H   : 5s4p3d1f contracted to 5s4p3d1f pattern {11111/1111/111/1}

Atom   0Mo   basis set group =>   1
Atom   1O    basis set group =>   2
Atom   2C    basis set group =>   3
Atom   3C    basis set group =>   3
Atom   4O    basis set group =>   2
Atom   5C    basis set group =>   3
Atom   6O    basis set group =>   2
Atom   7C    basis set group =>   3
Atom   8C    basis set group =>   3
Atom   9C    basis set group =>   3
Atom  10C    basis set group =>   3
Atom  11C    basis set group =>   3
Atom  12C    basis set group =>   3
Atom  13H    basis set group =>   4
Atom  14H    basis set group =>   4
Atom  15H    basis set group =>   4
Atom  16H    basis set group =>   4
Atom  17H    basis set group =>   4
Atom  18H    basis set group =>   4
----------------------------------
AUXILIARY/JK BASIS SET INFORMATION
----------------------------------
There are 4 groups of distinct atoms

 Group   1 Type Mo  : 13s12p10d9f6g3h2i contracted to 11s10p9d8f6g3h2i pattern {31111111111/3111111111/211111111/21111111/111111/111/11}
 Group   2 Type O   : 14s10p6d2f1g contracted to 10s8p4d2f1g pattern {5111111111/31111111/3111/11/1}
 Group   3 Type C   : 14s10p6d2f1g contracted to 10s8p5d1f1g pattern {5111111111/31111111/21111/2/1}
 Group   4 Type H   : 4s2p2d contracted to 2s2p2d pattern {31/11/11}

Atom   0Mo   basis set group =>   1
Atom   1O    basis set group =>   2
Atom   2C    basis set group =>   3
Atom   3C    basis set group =>   3
Atom   4O    basis set group =>   2
Atom   5C    basis set group =>   3
Atom   6O    basis set group =>   2
Atom   7C    basis set group =>   3
Atom   8C    basis set group =>   3
Atom   9C    basis set group =>   3
Atom  10C    basis set group =>   3
Atom  11C    basis set group =>   3
Atom  12C    basis set group =>   3
Atom  13H    basis set group =>   4
Atom  14H    basis set group =>   4
Atom  15H    basis set group =>   4
Atom  16H    basis set group =>   4
Atom  17H    basis set group =>   4
Atom  18H    basis set group =>   4
-------------------------
ECP PARAMETER INFORMATION
-------------------------

 Group 1, Type Mo ECP Def2-ECP (replacing 28 core electrons, lmax=3)

Atom   0Mo   ECP group =>   1



           ************************************************************
           *        Program running with 24 parallel MPI-processes    *
           *              working on a common directory               *
           ************************************************************
------------------------------------------------------------------------------
                           ORCA GTO INTEGRAL CALCULATION
                           -- RI-GTO INTEGRALS CHOSEN --
------------------------------------------------------------------------------

                         BASIS SET STATISTICS AND STARTUP INFO

Gaussian basis set:
 # of primitive gaussian shells          ...  343
 # of primitive gaussian functions       ...  823
 # of contracted shells                  ...  217
 # of contracted basis functions         ...  611
 Highest angular momentum                ...    4
 Maximum contraction depth               ...    6
Auxiliary gaussian basis set:
 # of primitive gaussian shells          ...  499
 # of primitive gaussian functions       ... 1559
 # of contracted shells                  ...  385
 # of contracted aux-basis functions     ... 1269
 Highest angular momentum                ...    6
 Maximum contraction depth               ...    5
Ratio of auxiliary to basis functions    ...  2.08
Integral package used                  ... LIBINT
 One Electron integrals                  
   ECP integrals                         ... done
 Ordering auxiliary basis shells         ... done
 Integral threshhold             Thresh  ...  1.000e-10
 Primitive cut-off               TCut    ...  1.000e-11
 Pre-screening matrix                    ... done
 Shell pair data                         ... 
 Ordering of the shell pairs             ... done (   0.004 sec) 21290 of 23653 pairs
 Determination of significant pairs      ... done (   0.000 sec)
 Creation of shell pair data             ... done (   0.002 sec)
 Storage of shell pair data              ... done (   0.032 sec)
 Shell pair data done in (   0.038 sec)
 Computing two index integrals           ... done
 Cholesky decomposition of the V-matrix  ... done


Timings:
 Total evaluation time                   ...   2.184 sec (  0.036 min)
 One electron matrix time                ...   1.692 sec (  0.028 min) = 77.5%
 Schwartz matrix evaluation time         ...   0.261 sec (  0.004 min) = 11.9%
 Two index repulsion integral time       ...   0.091 sec (  0.002 min) =  4.2%
 Cholesky decomposition of V             ...   0.072 sec (  0.001 min) =  3.3%
 Three index repulsion integral time     ...   0.000 sec (  0.000 min) =  0.0%



           ************************************************************
           *        Program running with 24 parallel MPI-processes    *
           *              working on a common directory               *
           ************************************************************
-------------------------------------------------------------------------------
                                 ORCA SCF
-------------------------------------------------------------------------------

------------
SCF SETTINGS
------------
Hamiltonian:
 Density Functional     Method          .... DFT(GTOs)
 Exchange Functional    Exchange        .... B88
   X-Alpha parameter    XAlpha          ....  0.666667
   Becke's b parameter  XBeta           ....  0.004200
 Correlation Functional Correlation     .... LYP
 LDA part of GGA corr.  LDAOpt          .... VWN-3
 Gradients option       PostSCFGGA      .... off
 Hybrid DFT is turned on
   Fraction HF Exchange ScalHFX         ....  0.530000
   Scaling of DF-GGA-X  ScalDFX         ....  0.470000
   Scaling of DF-GGA-C  ScalDFC         ....  0.730000
   Scaling of DF-LDA-C  ScalLDAC        ....  0.730000
   Perturbative correction              ....  0.270000
   Density functional embedding theory  .... OFF
 RI-approximation to the Coulomb term is turned on
   Number of auxiliary basis functions  .... 1269
   RI-JK (J+K treated both via RI)      .... on


General Settings:
 Integral files         IntName         .... MOR18_ed37
 Hartree-Fock type      HFTyp           .... RHF
 Total Charge           Charge          ....    0
 Multiplicity           Mult            ....    1
 Number of Electrons    NEL             ....   98
 Basis Dimension        Dim             ....  611
 Nuclear Repulsion      ENuc            ....    825.0254848324 Eh

Convergence Acceleration:
 DIIS                   CNVDIIS         .... on
   Start iteration      DIISMaxIt       ....    12
   Startup error        DIISStart       ....  0.200000
   # of expansion vecs  DIISMaxEq       ....     5
   Bias factor          DIISBfac        ....   1.050
   Max. coefficient     DIISMaxC        ....  10.000
 Newton-Raphson         CNVNR           .... off
 SOSCF                  CNVSOSCF        .... off
 Level Shifting         CNVShift        .... on
   Level shift para.    LevelShift      ....    0.2500
   Turn off err/grad.   ShiftErr        ....    0.0010
 Zerner damping         CNVZerner       .... off
 Static damping         CNVDamp         .... on
   Fraction old density DampFac         ....    0.7000
   Max. Damping (<1)    DampMax         ....    0.9800
   Min. Damping (>=0)   DampMin         ....    0.0000
   Turn off err/grad.   DampErr         ....    0.1000
 Fernandez-Rico         CNVRico         .... off

SCF Procedure:
 Maximum # iterations   MaxIter         ....   125
 SCF integral mode      SCFMode         .... Direct
   Integral package                     .... LIBINT
 Reset frequency        DirectResetFreq ....    20
 Integral Threshold     Thresh          ....  1.000e-10 Eh
 Primitive CutOff       TCut            ....  1.000e-11 Eh

Convergence Tolerance:
 Convergence Check Mode ConvCheckMode   .... Total+1el-Energy
 Convergence forced     ConvForced      .... 0
 Energy Change          TolE            ....  1.000e-06 Eh
 1-El. energy change                    ....  1.000e-03 Eh
 DIIS Error             TolErr          ....  1.000e-06


Diagonalization of the overlap matrix:
Smallest eigenvalue                        ... 5.320e-07
Time for diagonalization                   ...    0.053 sec
Threshold for overlap eigenvalues          ... 1.000e-08
Number of eigenvalues below threshold      ... 0
Time for construction of square roots      ...    0.058 sec
Total time needed                          ...    0.112 sec

-------------------
DFT GRID GENERATION
-------------------

General Integration Accuracy     IntAcc      ...  4.670
Radial Grid Type                 RadialGrid  ... Gauss-Chebyshev
Angular Grid (max. acc.)         AngularGrid ... Lebedev-302
Angular grid pruning method      GridPruning ... 3 (G Style)
Weight generation scheme         WeightScheme... Becke
Basis function cutoff            BFCut       ...    1.0000e-10
Integration weight cutoff        WCut        ...    1.0000e-14
Grids for H and He will be reduced by one unit

# of grid points (after initial pruning)     ... 105506 (   0.0 sec)
# of grid points (after weights+screening)   ...  95094 (   0.0 sec)
nearest neighbour list constructed           ...    0.0 sec
Grid point re-assignment to atoms done       ...    0.0 sec
Grid point division into batches done        ...    0.4 sec
Reduced shell lists constructed in    0.7 sec

Total number of grid points                  ...    95094
Total number of batches                      ...     1495
Average number of points per batch           ...       63
Average number of grid points per atom       ...     5005
Average number of shells per batch           ...   166.88 (76.90%)
Average number of basis functions per batch  ...   493.62 (80.79%)
Average number of large shells per batch     ...   138.78 (83.16%)
Average number of large basis fcns per batch ...   406.22 (82.29%)
Average number of aux-shells per batch       ...   166.88 (43.34%)
Average number of aux functions per batch    ...   493.62 (38.90%)
Maximum spatial batch extension              ...   1.75,  2.08,  1.82 au
Average spatial batch extension              ...   0.05,  0.05,  0.05 au

Time for grid setup =    0.740 sec

------------------------------
INITIAL GUESS: MODEL POTENTIAL
------------------------------
Loading Hartree-Fock densities                     ... done
  calling /sw/apps/orca/orca_4_2_0_linux_x86-64_openmpi314/orca MOR18_ed37_atom42.inp > MOR18_ed37_atom42.out in order to generate an atomic fitting density for atom 0 (Mo with ECP) on-the-fly... 
    atom 0 (Mo), assumed electronic state with S=5: 1s2 2s2 2p6 3s2 3p6 4s2 3d10 4p6 5s2 4d4           ... done
Calculating cut-offs                               ... done
Setting up the integral package                    ... done
Initializing the effective Hamiltonian             ... done
Starting the Coulomb interaction                   ... done (   0.0 sec)
Reading the grid                                   ... done
Mapping shells                                     ... done
Starting the XC term evaluation                    ... done (   0.2 sec)
  promolecular density results
     # of electrons  =    125.997283646
     EX              =   -192.443307998
     EC              =     -1.768021127
     EX+EC           =   -194.211329125
Transforming the Hamiltonian                       ... done (   0.0 sec)
Diagonalizing the Hamiltonian                      ... done (   0.1 sec)
Back transforming the eigenvectors                 ... done (   0.0 sec)
Now organizing SCF variables                       ... done
                      ------------------
                      INITIAL GUESS DONE (   2.8 sec)
                      ------------------
--------------
SCF ITERATIONS
--------------
ITER       Energy         Delta-E        Max-DP      RMS-DP      [F,P]     Damp
  0   -639.0378970364   0.000000000000 0.16370424  0.00149233  0.4043752 0.7000
  1   -638.8700890486   0.167807987830 0.12536835  0.00116937  0.2802077 0.7000
                               ***Turning on DIIS***
  2   -638.9697855432  -0.099696494601 0.07112478  0.00074918  0.1839244 0.7000
  3   -639.1453974084  -0.175611865196 0.05355622  0.00047213  0.1255621 0.7000
  4   -639.2986270736  -0.153229665189 0.15524650  0.00119369  0.0917207 0.0000
  5   -639.3752969835  -0.076669909889 0.02964526  0.00023328  0.0300061 0.0000
  6   -639.3809404692  -0.005643485722 0.00765072  0.00010778  0.0042506 0.0000
  7   -639.3811227825  -0.000182313287 0.00486585  0.00004372  0.0018862 0.0000
  8   -639.3811577998  -0.000035017333 0.00608732  0.00004726  0.0012255 0.0000
  9   -639.3811720547  -0.000014254902 0.00657361  0.00005207  0.0006653 0.0000
 10   -639.3811760625  -0.000004007779 0.00994273  0.00009445  0.0002578 0.0000
                 **** Energy Check signals convergence ****

               *****************************************************
               *                     SUCCESS                       *
               *           SCF CONVERGED AFTER  11 CYCLES          *
               *****************************************************


----------------
TOTAL SCF ENERGY
----------------

Total Energy       :         -639.38117660 Eh          -17398.44634 eV

Components:
Nuclear Repulsion  :          825.02548483 Eh           22450.08478 eV
Electronic Energy  :        -1464.40666143 Eh          -39848.53112 eV
One Electron Energy:        -2532.29010221 Eh          -68907.11685 eV
Two Electron Energy:         1067.88344079 Eh           29058.58573 eV

Virial components:
Potential Energy   :        -1232.01043037 Eh          -33524.70817 eV
Kinetic Energy     :          592.62925378 Eh           16126.26184 eV
Virial Ratio       :            2.07888899


DFT components:
N(Alpha)           :       48.999908936586 electrons
N(Beta)            :       48.999908936586 electrons
N(Total)           :       97.999817873173 electrons
E(X)               :      -38.075160060690 Eh       
E(C)               :       -2.473311162850 Eh       
E(XC)              :      -40.548471223540 Eh       
DFET-embed. en.    :        0.000000000000 Eh       

---------------
SCF CONVERGENCE
---------------

  Last Energy change         ...   -5.3286e-07  Tolerance :   1.0000e-06
  Last MAX-Density change    ...    2.8133e-03  Tolerance :   1.0000e-05
  Last RMS-Density change    ...    2.0768e-05  Tolerance :   1.0000e-06
  Last DIIS Error            ...    1.4707e-04  Tolerance :   1.0000e-06

             **** THE GBW FILE WAS UPDATED (MOR18_ed37.gbw) ****
             **** DENSITY FILE WAS UPDATED (MOR18_ed37.scfp) ****
             **** ENERGY FILE WAS UPDATED (MOR18_ed37.en.tmp) ****
             **** THE GBW FILE WAS UPDATED (MOR18_ed37.gbw) ****
             **** DENSITY FILE WAS UPDATED (MOR18_ed37.scfp) ****
----------------
ORBITAL ENERGIES
----------------

  NO   OCC          E(Eh)            E(eV) 
   0   2.0000     -19.779112      -538.2170 
   1   2.0000     -19.779109      -538.2169 
   2   2.0000     -19.779106      -538.2168 
   3   2.0000     -10.721834      -291.7559 
   4   2.0000     -10.721829      -291.7558 
   5   2.0000     -10.721824      -291.7557 
   6   2.0000     -10.677189      -290.5411 
   7   2.0000     -10.676878      -290.5326 
   8   2.0000     -10.676875      -290.5325 
   9   2.0000     -10.676011      -290.5090 
  10   2.0000     -10.676010      -290.5090 
  11   2.0000     -10.675677      -290.4999 
  12   2.0000      -2.745087       -74.6976 
  13   2.0000      -1.695815       -46.1455 
  14   2.0000      -1.681615       -45.7591 
  15   2.0000      -1.681603       -45.7588 
  16   2.0000      -1.251064       -34.0432 
  17   2.0000      -1.250374       -34.0244 
  18   2.0000      -1.250372       -34.0244 
  19   2.0000      -1.031181       -28.0599 
  20   2.0000      -0.913617       -24.8608 
  21   2.0000      -0.913615       -24.8607 
  22   2.0000      -0.745560       -20.2877 
  23   2.0000      -0.745558       -20.2877 
  24   2.0000      -0.654464       -17.8089 
  25   2.0000      -0.650161       -17.6918 
  26   2.0000      -0.635615       -17.2960 
  27   2.0000      -0.635608       -17.2958 
  28   2.0000      -0.586101       -15.9486 
  29   2.0000      -0.564015       -15.3476 
  30   2.0000      -0.550765       -14.9871 
  31   2.0000      -0.550762       -14.9870 
  32   2.0000      -0.535266       -14.5653 
  33   2.0000      -0.512532       -13.9467 
  34   2.0000      -0.509956       -13.8766 
  35   2.0000      -0.509945       -13.8763 
  36   2.0000      -0.500908       -13.6304 
  37   2.0000      -0.500902       -13.6302 
  38   2.0000      -0.493242       -13.4218 
  39   2.0000      -0.483337       -13.1523 
  40   2.0000      -0.483321       -13.1518 
  41   2.0000      -0.459036       -12.4910 
  42   2.0000      -0.457888       -12.4598 
  43   2.0000      -0.457883       -12.4596 
  44   2.0000      -0.376065       -10.2333 
  45   2.0000      -0.376054       -10.2330 
  46   2.0000      -0.253387        -6.8950 
  47   2.0000      -0.246203        -6.6995 
  48   2.0000      -0.246186        -6.6991 
  49   0.0000      -0.008582        -0.2335 
  50   0.0000      -0.008571        -0.2332 
  51   0.0000       0.017007         0.4628 
  52   0.0000       0.027293         0.7427 
  53   0.0000       0.027302         0.7429 
  54   0.0000       0.043879         1.1940 
  55   0.0000       0.055144         1.5006 
  56   0.0000       0.055162         1.5010 
  57   0.0000       0.057656         1.5689 
  58   0.0000       0.057670         1.5693 
  59   0.0000       0.068959         1.8765 
  60   0.0000       0.070526         1.9191 
  61   0.0000       0.070530         1.9192 
  62   0.0000       0.072335         1.9683 
  63   0.0000       0.088916         2.4195 
  64   0.0000       0.091619         2.4931 
  65   0.0000       0.093997         2.5578 
  66   0.0000       0.094009         2.5581 
  67   0.0000       0.102707         2.7948 
  68   0.0000       0.104074         2.8320 
  69   0.0000       0.104092         2.8325 
  70   0.0000       0.116973         3.1830 
  71   0.0000       0.116987         3.1834 
  72   0.0000       0.127196         3.4612 
  73   0.0000       0.127553         3.4709 
  74   0.0000       0.127567         3.4713 
  75   0.0000       0.133732         3.6390 
  76   0.0000       0.135876         3.6974 
  77   0.0000       0.157363         4.2821 
  78   0.0000       0.157381         4.2826 
  79   0.0000       0.167019         4.5448 
  80   0.0000       0.171326         4.6620 
  81   0.0000       0.171349         4.6626 
  82   0.0000       0.176245         4.7959 
  83   0.0000       0.176268         4.7965 
  84   0.0000       0.192724         5.2443 
  85   0.0000       0.199230         5.4213 
  86   0.0000       0.199263         5.4222 
  87   0.0000       0.201507         5.4833 
  88   0.0000       0.212985         5.7956 
  89   0.0000       0.213015         5.7964 
  90   0.0000       0.217922         5.9300 
  91   0.0000       0.226123         6.1531 
  92   0.0000       0.226609         6.1664 
  93   0.0000       0.234090         6.3699 
  94   0.0000       0.234150         6.3715 
  95   0.0000       0.256428         6.9778 
  96   0.0000       0.256441         6.9781 
  97   0.0000       0.260345         7.0844 
  98   0.0000       0.260388         7.0855 
  99   0.0000       0.267769         7.2864 
 100   0.0000       0.267836         7.2882 
 101   0.0000       0.278475         7.5777 
 102   0.0000       0.283530         7.7152 
 103   0.0000       0.283534         7.7153 
 104   0.0000       0.289097         7.8667 
 105   0.0000       0.295808         8.0493 
 106   0.0000       0.295833         8.0500 
 107   0.0000       0.295978         8.0540 
 108   0.0000       0.308268         8.3884 
 109   0.0000       0.316984         8.6256 
 110   0.0000       0.318606         8.6697 
 111   0.0000       0.324101         8.8192 
 112   0.0000       0.324169         8.8211 
 113   0.0000       0.333635         9.0787 
 114   0.0000       0.333652         9.0791 
 115   0.0000       0.344472         9.3735 
 116   0.0000       0.344489         9.3740 
 117   0.0000       0.346109         9.4181 
 118   0.0000       0.353648         9.6232 
 119   0.0000       0.362610         9.8671 
 120   0.0000       0.362729         9.8704 
 121   0.0000       0.370267        10.0755 
 122   0.0000       0.370290        10.0761 
 123   0.0000       0.377880        10.2826 
 124   0.0000       0.391051        10.6411 
 125   0.0000       0.393441        10.7061 
 126   0.0000       0.393471        10.7069 
 127   0.0000       0.398278        10.8377 
 128   0.0000       0.400924        10.9097 
 129   0.0000       0.400938        10.9101 
 130   0.0000       0.402296        10.9470 
 131   0.0000       0.402321        10.9477 
 132   0.0000       0.407356        11.0847 
 133   0.0000       0.407450        11.0873 
 134   0.0000       0.422237        11.4897 
 135   0.0000       0.426424        11.6036 
 136   0.0000       0.426438        11.6040 
 137   0.0000       0.427070        11.6212 
 138   0.0000       0.443094        12.0572 
 139   0.0000       0.452921        12.3246 
 140   0.0000       0.462951        12.5975 
 141   0.0000       0.463092        12.6014 
 142   0.0000       0.472064        12.8455 
 143   0.0000       0.485585        13.2134 
 144   0.0000       0.485632        13.2147 
 145   0.0000       0.487909        13.2767 
 146   0.0000       0.507289        13.8040 
 147   0.0000       0.507834        13.8189 
 148   0.0000       0.519776        14.1438 
 149   0.0000       0.519858        14.1461 
 150   0.0000       0.528371        14.3777 
 151   0.0000       0.547413        14.8959 
 152   0.0000       0.550464        14.9789 
 153   0.0000       0.550556        14.9814 
 154   0.0000       0.557780        15.1780 
 155   0.0000       0.557899        15.1812 
 156   0.0000       0.563003        15.3201 
 157   0.0000       0.563062        15.3217 
 158   0.0000       0.569922        15.5084 
 159   0.0000       0.569984        15.5100 
 160   0.0000       0.571975        15.5642 
 161   0.0000       0.572227        15.5711 
 162   0.0000       0.572620        15.5818 
 163   0.0000       0.574571        15.6349 
 164   0.0000       0.582557        15.8522 
 165   0.0000       0.588459        16.0128 
 166   0.0000       0.605423        16.4744 
 167   0.0000       0.615162        16.7394 
 168   0.0000       0.615198        16.7404 
 169   0.0000       0.622355        16.9351 
 170   0.0000       0.628652        17.1065 
 171   0.0000       0.628742        17.1089 
 172   0.0000       0.630935        17.1686 
 173   0.0000       0.638567        17.3763 
 174   0.0000       0.650866        17.7110 
 175   0.0000       0.651007        17.7148 
 176   0.0000       0.656233        17.8570 
 177   0.0000       0.664999        18.0955 
 178   0.0000       0.674607        18.3570 
 179   0.0000       0.675222        18.3737 
 180   0.0000       0.677461        18.4346 
 181   0.0000       0.677663        18.4401 
 182   0.0000       0.686818        18.6893 
 183   0.0000       0.686946        18.6927 
 184   0.0000       0.699468        19.0335 
 185   0.0000       0.702634        19.1197 
 186   0.0000       0.702670        19.1206 
 187   0.0000       0.702724        19.1221 
 188   0.0000       0.721045        19.6206 
 189   0.0000       0.724304        19.7093 
 190   0.0000       0.724514        19.7150 
 191   0.0000       0.724895        19.7254 
 192   0.0000       0.736454        20.0399 
 193   0.0000       0.736486        20.0408 
 194   0.0000       0.740792        20.1580 
 195   0.0000       0.744888        20.2694 
 196   0.0000       0.744925        20.2704 
 197   0.0000       0.760647        20.6983 
 198   0.0000       0.768601        20.9147 
 199   0.0000       0.768820        20.9207 
 200   0.0000       0.782495        21.2928 
 201   0.0000       0.785507        21.3747 
 202   0.0000       0.785570        21.3764 
 203   0.0000       0.790498        21.5105 
 204   0.0000       0.790882        21.5210 
 205   0.0000       0.793904        21.6032 
 206   0.0000       0.814913        22.1749 
 207   0.0000       0.816101        22.2072 
 208   0.0000       0.816238        22.2110 
 209   0.0000       0.821452        22.3529 
 210   0.0000       0.821901        22.3651 
 211   0.0000       0.847477        23.0610 
 212   0.0000       0.847558        23.0632 
 213   0.0000       0.856085        23.2952 
 214   0.0000       0.864639        23.5280 
 215   0.0000       0.864752        23.5311 
 216   0.0000       0.868153        23.6236 
 217   0.0000       0.900932        24.5156 
 218   0.0000       0.905701        24.6454 
 219   0.0000       0.906677        24.6719 
 220   0.0000       0.906708        24.6728 
 221   0.0000       0.922570        25.1044 
 222   0.0000       0.923124        25.1195 
 223   0.0000       0.923172        25.1208 
 224   0.0000       0.929329        25.2883 
 225   0.0000       0.956297        26.0222 
 226   0.0000       0.956545        26.0289 
 227   0.0000       0.965687        26.2777 
 228   0.0000       0.975517        26.5452 
 229   0.0000       0.975599        26.5474 
 230   0.0000       0.988781        26.9061 
 231   0.0000       0.989282        26.9197 
 232   0.0000       0.990040        26.9404 
 233   0.0000       1.032305        28.0904 
 234   0.0000       1.034270        28.1439 
 235   0.0000       1.034392        28.1472 
 236   0.0000       1.037612        28.2349 
 237   0.0000       1.038247        28.2521 
 238   0.0000       1.049913        28.5696 
 239   0.0000       1.055426        28.7196 
 240   0.0000       1.066578        29.0231 
 241   0.0000       1.078408        29.3450 
 242   0.0000       1.078611        29.3505 
 243   0.0000       1.086648        29.5692 
 244   0.0000       1.086804        29.5734 
 245   0.0000       1.113778        30.3074 
 246   0.0000       1.126851        30.6632 
 247   0.0000       1.127163        30.6717 
 248   0.0000       1.150524        31.3074 
 249   0.0000       1.175281        31.9810 
 250   0.0000       1.180497        32.1230 
 251   0.0000       1.180597        32.1257 
 252   0.0000       1.215733        33.0818 
 253   0.0000       1.222063        33.2540 
 254   0.0000       1.245716        33.8977 
 255   0.0000       1.245811        33.9002 
 256   0.0000       1.264772        34.4162 
 257   0.0000       1.264821        34.4175 
 258   0.0000       1.275945        34.7202 
 259   0.0000       1.276209        34.7274 
 260   0.0000       1.280589        34.8466 
 261   0.0000       1.294419        35.2229 
 262   0.0000       1.322721        35.9931 
 263   0.0000       1.322829        35.9960 
 264   0.0000       1.329409        36.1751 
 265   0.0000       1.352364        36.7997 
 266   0.0000       1.352486        36.8030 
 267   0.0000       1.354537        36.8588 
 268   0.0000       1.374227        37.3946 
 269   0.0000       1.374524        37.4027 
 270   0.0000       1.396112        37.9901 
 271   0.0000       1.396375        37.9973 
 272   0.0000       1.423717        38.7413 
 273   0.0000       1.423856        38.7451 
 274   0.0000       1.424879        38.7729 
 275   0.0000       1.434490        39.0345 
 276   0.0000       1.434597        39.0374 
 277   0.0000       1.437360        39.1126 
 278   0.0000       1.463734        39.8302 
 279   0.0000       1.463746        39.8306 
 280   0.0000       1.484382        40.3921 
 281   0.0000       1.484399        40.3926 
 282   0.0000       1.493489        40.6399 
 283   0.0000       1.518100        41.3096 
 284   0.0000       1.525370        41.5074 
 285   0.0000       1.525527        41.5117 
 286   0.0000       1.550018        42.1781 
 287   0.0000       1.555362        42.3236 
 288   0.0000       1.561715        42.4964 
 289   0.0000       1.561799        42.4987 
 290   0.0000       1.589256        43.2458 
 291   0.0000       1.589266        43.2461 
 292   0.0000       1.627550        44.2879 
 293   0.0000       1.627806        44.2948 
 294   0.0000       1.659604        45.1601 
 295   0.0000       1.687794        45.9272 
 296   0.0000       1.687801        45.9274 
 297   0.0000       1.691526        46.0288 
 298   0.0000       1.704032        46.3691 
 299   0.0000       1.766601        48.0717 
 300   0.0000       1.782766        48.5115 
 301   0.0000       1.782798        48.5124 
 302   0.0000       1.822646        49.5967 
 303   0.0000       1.822710        49.5985 
 304   0.0000       1.840612        50.0856 
 305   0.0000       1.847138        50.2632 
 306   0.0000       1.847604        50.2759 
 307   0.0000       1.868082        50.8331 
 308   0.0000       1.889158        51.4066 
 309   0.0000       1.889196        51.4076 
 310   0.0000       1.899456        51.6868 
 311   0.0000       1.903968        51.8096 
 312   0.0000       1.904543        51.8252 
 313   0.0000       1.927382        52.4467 
 314   0.0000       1.927551        52.4513 
 315   0.0000       1.931595        52.5614 
 316   0.0000       1.931724        52.5649 
 317   0.0000       1.953148        53.1479 
 318   0.0000       1.953209        53.1495 
 319   0.0000       1.957340        53.2619 
 320   0.0000       1.972513        53.6748 
 321   0.0000       1.972566        53.6762 
 322   0.0000       1.982187        53.9381 
 323   0.0000       1.983247        53.9669 
 324   0.0000       2.016865        54.8817 
 325   0.0000       2.021022        54.9948 
 326   0.0000       2.034708        55.3672 
 327   0.0000       2.034766        55.3688 
 328   0.0000       2.044274        55.6275 
 329   0.0000       2.066399        56.2296 
 330   0.0000       2.075994        56.4907 
 331   0.0000       2.114752        57.5453 
 332   0.0000       2.114772        57.5459 
 333   0.0000       2.128134        57.9095 
 334   0.0000       2.128172        57.9105 
 335   0.0000       2.173993        59.1574 
 336   0.0000       2.174122        59.1609 
 337   0.0000       2.215182        60.2782 
 338   0.0000       2.215229        60.2795 
 339   0.0000       2.230634        60.6986 
 340   0.0000       2.233851        60.7862 
 341   0.0000       2.253330        61.3162 
 342   0.0000       2.253490        61.3206 
 343   0.0000       2.299617        62.5757 
 344   0.0000       2.299696        62.5779 
 345   0.0000       2.316419        63.0330 
 346   0.0000       2.354552        64.0706 
 347   0.0000       2.354764        64.0764 
 348   0.0000       2.365022        64.3555 
 349   0.0000       2.394926        65.1692 
 350   0.0000       2.394995        65.1711 
 351   0.0000       2.415617        65.7323 
 352   0.0000       2.436101        66.2897 
 353   0.0000       2.454925        66.8019 
 354   0.0000       2.455089        66.8064 
 355   0.0000       2.461769        66.9881 
 356   0.0000       2.484527        67.6074 
 357   0.0000       2.498451        67.9863 
 358   0.0000       2.498507        67.9878 
 359   0.0000       2.525124        68.7121 
 360   0.0000       2.556801        69.5741 
 361   0.0000       2.556894        69.5766 
 362   0.0000       2.594585        70.6023 
 363   0.0000       2.607372        70.9502 
 364   0.0000       2.607404        70.9511 
 365   0.0000       2.620269        71.3011 
 366   0.0000       2.620295        71.3019 
 367   0.0000       2.654306        72.2273 
 368   0.0000       2.717476        73.9463 
 369   0.0000       2.753219        74.9189 
 370   0.0000       2.756535        75.0091 
 371   0.0000       2.756762        75.0153 
 372   0.0000       2.788976        75.8919 
 373   0.0000       2.788994        75.8924 
 374   0.0000       2.799007        76.1649 
 375   0.0000       2.799099        76.1673 
 376   0.0000       2.802432        76.2581 
 377   0.0000       2.830300        77.0164 
 378   0.0000       2.832631        77.0798 
 379   0.0000       2.832675        77.0810 
 380   0.0000       2.864425        77.9450 
 381   0.0000       2.901284        78.9479 
 382   0.0000       2.901316        78.9488 
 383   0.0000       2.915424        79.3327 
 384   0.0000       2.933579        79.8267 
 385   0.0000       2.933603        79.8274 
 386   0.0000       2.945105        80.1404 
 387   0.0000       2.945119        80.1408 
 388   0.0000       2.955162        80.4141 
 389   0.0000       2.962402        80.6111 
 390   0.0000       2.962437        80.6120 
 391   0.0000       2.967922        80.7613 
 392   0.0000       3.024017        82.2877 
 393   0.0000       3.024092        82.2897 
 394   0.0000       3.044814        82.8536 
 395   0.0000       3.052175        83.0539 
 396   0.0000       3.052227        83.0553 
 397   0.0000       3.059517        83.2537 
 398   0.0000       3.108109        84.5759 
 399   0.0000       3.108168        84.5775 
 400   0.0000       3.117492        84.8313 
 401   0.0000       3.129860        85.1678 
 402   0.0000       3.157065        85.9081 
 403   0.0000       3.157100        85.9090 
 404   0.0000       3.165279        86.1316 
 405   0.0000       3.190867        86.8279 
 406   0.0000       3.190943        86.8300 
 407   0.0000       3.193619        86.9028 
 408   0.0000       3.207254        87.2738 
 409   0.0000       3.207298        87.2750 
 410   0.0000       3.247610        88.3720 
 411   0.0000       3.247665        88.3735 
 412   0.0000       3.253563        88.5340 
 413   0.0000       3.253584        88.5345 
 414   0.0000       3.275420        89.1287 
 415   0.0000       3.298729        89.7630 
 416   0.0000       3.298738        89.7632 
 417   0.0000       3.308552        90.0303 
 418   0.0000       3.312970        90.1505 
 419   0.0000       3.345459        91.0346 
 420   0.0000       3.352933        91.2380 
 421   0.0000       3.352986        91.2394 
 422   0.0000       3.362141        91.4885 
 423   0.0000       3.362246        91.4914 
 424   0.0000       3.382611        92.0455 
 425   0.0000       3.382664        92.0470 
 426   0.0000       3.392452        92.3133 
 427   0.0000       3.404451        92.6398 
 428   0.0000       3.404502        92.6412 
 429   0.0000       3.412181        92.8502 
 430   0.0000       3.412274        92.8527 
 431   0.0000       3.420086        93.0653 
 432   0.0000       3.435036        93.4721 
 433   0.0000       3.448292        93.8328 
 434   0.0000       3.455539        94.0300 
 435   0.0000       3.455547        94.0302 
 436   0.0000       3.472297        94.4860 
 437   0.0000       3.497122        95.1615 
 438   0.0000       3.497186        95.1633 
 439   0.0000       3.502599        95.3106 
 440   0.0000       3.502650        95.3120 
 441   0.0000       3.514120        95.6241 
 442   0.0000       3.516806        95.6972 
 443   0.0000       3.531561        96.0987 
 444   0.0000       3.533898        96.1623 
 445   0.0000       3.533973        96.1643 
 446   0.0000       3.567398        97.0738 
 447   0.0000       3.567491        97.0764 
 448   0.0000       3.577515        97.3491 
 449   0.0000       3.600758        97.9816 
 450   0.0000       3.600803        97.9828 
 451   0.0000       3.603406        98.0537 
 452   0.0000       3.619109        98.4810 
 453   0.0000       3.648497        99.2806 
 454   0.0000       3.652471        99.3888 
 455   0.0000       3.652534        99.3905 
 456   0.0000       3.655335        99.4667 
 457   0.0000       3.655384        99.4681 
 458   0.0000       3.665831        99.7523 
 459   0.0000       3.665874        99.7535 
 460   0.0000       3.684816       100.2690 
 461   0.0000       3.734318       101.6160 
 462   0.0000       3.734463       101.6199 
 463   0.0000       3.764263       102.4308 
 464   0.0000       3.787295       103.0575 
 465   0.0000       3.788299       103.0849 
 466   0.0000       3.811596       103.7188 
 467   0.0000       3.814744       103.8045 
 468   0.0000       3.814795       103.8059 
 469   0.0000       3.839254       104.4714 
 470   0.0000       3.861496       105.0767 
 471   0.0000       3.887798       105.7924 
 472   0.0000       3.887825       105.7931 
 473   0.0000       3.894635       105.9784 
 474   0.0000       3.894677       105.9795 
 475   0.0000       3.915292       106.5405 
 476   0.0000       3.962244       107.8181 
 477   0.0000       3.969089       108.0044 
 478   0.0000       3.969105       108.0048 
 479   0.0000       4.021857       109.4403 
 480   0.0000       4.022022       109.4448 
 481   0.0000       4.026173       109.5577 
 482   0.0000       4.039358       109.9165 
 483   0.0000       4.039427       109.9184 
 484   0.0000       4.052218       110.2665 
 485   0.0000       4.052285       110.2683 
 486   0.0000       4.116483       112.0152 
 487   0.0000       4.140268       112.6624 
 488   0.0000       4.140334       112.6642 
 489   0.0000       4.154599       113.0524 
 490   0.0000       4.154618       113.0529 
 491   0.0000       4.193587       114.1133 
 492   0.0000       4.240620       115.3931 
 493   0.0000       4.242006       115.4309 
 494   0.0000       4.242064       115.4324 
 495   0.0000       4.293521       116.8326 
 496   0.0000       4.298483       116.9677 
 497   0.0000       4.300971       117.0354 
 498   0.0000       4.301050       117.0375 
 499   0.0000       4.319570       117.5415 
 500   0.0000       4.319625       117.5430 
 501   0.0000       4.339752       118.0906 
 502   0.0000       4.339915       118.0951 
 503   0.0000       4.374973       119.0491 
 504   0.0000       4.375011       119.0501 
 505   0.0000       4.377792       119.1258 
 506   0.0000       4.406356       119.9030 
 507   0.0000       4.406414       119.9046 
 508   0.0000       4.422631       120.3459 
 509   0.0000       4.434086       120.6576 
 510   0.0000       4.434180       120.6602 
 511   0.0000       4.434571       120.6708 
 512   0.0000       4.475367       121.7809 
 513   0.0000       4.506049       122.6158 
 514   0.0000       4.506091       122.6170 
 515   0.0000       4.522344       123.0592 
 516   0.0000       4.522524       123.0641 
 517   0.0000       4.595824       125.0587 
 518   0.0000       4.651355       126.5698 
 519   0.0000       4.651364       126.5701 
 520   0.0000       4.713625       128.2642 
 521   0.0000       4.736204       128.8787 
 522   0.0000       4.736241       128.8797 
 523   0.0000       4.831349       131.4677 
 524   0.0000       4.831384       131.4686 
 525   0.0000       4.856125       132.1419 
 526   0.0000       4.894853       133.1957 
 527   0.0000       4.895871       133.2234 
 528   0.0000       4.913948       133.7153 
 529   0.0000       4.913978       133.7161 
 530   0.0000       4.967244       135.1656 
 531   0.0000       4.997461       135.9878 
 532   0.0000       4.997544       135.9901 
 533   0.0000       5.045658       137.2993 
 534   0.0000       5.045752       137.3019 
 535   0.0000       5.094422       138.6263 
 536   0.0000       5.108251       139.0026 
 537   0.0000       5.114987       139.1859 
 538   0.0000       5.114999       139.1862 
 539   0.0000       5.303114       144.3051 
 540   0.0000       5.303118       144.3052 
 541   0.0000       5.304284       144.3369 
 542   0.0000       5.306624       144.4006 
 543   0.0000       5.306628       144.4007 
 544   0.0000       5.306738       144.4037 
 545   0.0000       5.316873       144.6795 
 546   0.0000       5.316900       144.6802 
 547   0.0000       5.357889       145.7956 
 548   0.0000       5.357920       145.7964 
 549   0.0000       5.402325       147.0047 
 550   0.0000       5.402675       147.0143 
 551   0.0000       5.406156       147.1090 
 552   0.0000       5.498194       149.6135 
 553   0.0000       5.541229       150.7845 
 554   0.0000       5.555536       151.1738 
 555   0.0000       5.555605       151.1757 
 556   0.0000       5.610844       152.6788 
 557   0.0000       5.696266       155.0033 
 558   0.0000       5.696281       155.0037 
 559   0.0000       5.712534       155.4459 
 560   0.0000       5.721573       155.6919 
 561   0.0000       5.721654       155.6941 
 562   0.0000       5.726856       155.8357 
 563   0.0000       5.726860       155.8358 
 564   0.0000       5.732653       155.9934 
 565   0.0000       5.780884       157.3059 
 566   0.0000       5.928328       161.3180 
 567   0.0000       5.928376       161.3193 
 568   0.0000       5.959387       162.1632 
 569   0.0000       6.208392       168.9389 
 570   0.0000       6.208430       168.9400 
 571   0.0000       6.412641       174.4968 
 572   0.0000       6.580572       179.0665 
 573   0.0000       6.580593       179.0670 
 574   0.0000       6.603637       179.6941 
 575   0.0000       6.616250       180.0373 
 576   0.0000       6.634929       180.5456 
 577   0.0000       6.634982       180.5470 
 578   0.0000       6.658614       181.1901 
 579   0.0000       6.669250       181.4795 
 580   0.0000       6.669289       181.4806 
 581   0.0000       6.683935       181.8791 
 582   0.0000       6.683964       181.8799 
 583   0.0000       6.707466       182.5194 
 584   0.0000       6.863138       186.7555 
 585   0.0000       6.873810       187.0459 
 586   0.0000       6.873879       187.0478 
 587   0.0000       6.916761       188.2146 
 588   0.0000       7.094764       193.0583 
 589   0.0000       7.094774       193.0586 
 590   0.0000       7.103530       193.2969 
 591   0.0000       7.111487       193.5134 
 592   0.0000       7.124188       193.8590 
 593   0.0000       7.124246       193.8606 
 594   0.0000       7.416062       201.8013 
 595   0.0000       7.428162       202.1306 
 596   0.0000       7.428181       202.1311 
 597   0.0000      23.647420       643.4790 
 598   0.0000      23.684683       644.4930 
 599   0.0000      23.684704       644.4936 
 600   0.0000      23.764684       646.6699 
 601   0.0000      23.764879       646.6752 
 602   0.0000      23.821639       648.2197 
 603   0.0000      23.927077       651.0889 
 604   0.0000      23.927154       651.0910 
 605   0.0000      24.468938       665.8337 
 606   0.0000      25.505632       694.0435 
 607   0.0000      44.729804      1217.1598 
 608   0.0000      44.938948      1222.8510 
 609   0.0000      44.939032      1222.8532 
 610   0.0000      84.742847      2305.9701 

                    ********************************
                    * MULLIKEN POPULATION ANALYSIS *
                    ********************************

-----------------------
MULLIKEN ATOMIC CHARGES
-----------------------
   0 Mo:   -0.291160
   1 O :   -0.318802
   2 C :    0.314190
   3 C :    0.314204
   4 O :   -0.318738
   5 C :    0.314453
   6 O :   -0.318889
   7 C :    0.077870
   8 C :    0.032117
   9 C :    0.076545
  10 C :    0.032671
  11 C :    0.077521
  12 C :    0.032306
  13 H :   -0.000757
  14 H :   -0.007185
  15 H :   -0.000736
  16 H :   -0.007472
  17 H :   -0.001154
  18 H :   -0.006985
Sum of atomic charges:    0.0000000

--------------------------------
MULLIKEN REDUCED ORBITAL CHARGES
--------------------------------
  0 Mos       :     2.518983  s :     2.518983
      pz      :     2.235618  p :     6.815931
      px      :     2.344553
      py      :     2.235760
      dz2     :     1.210902  d :     4.879105
      dxz     :     0.593700
      dyz     :     1.152368
      dx2y2   :     1.328114
      dxy     :     0.594020
      f0      :     0.006895  f :     0.072852
      f+1     :     0.011439
      f-1     :     0.006829
      f+2     :     0.009965
      f-2     :     0.013823
      f+3     :     0.009855
      f-3     :     0.014046
      g0      :     0.000469  g :     0.004289
      g+1     :     0.000362
      g-1     :     0.000182
      g+2     :     0.000330
      g-2     :     0.000719
      g+3     :     0.000319
      g-3     :     0.000817
      g+4     :     0.000548
      g-4     :     0.000543
  1 O s       :     3.887389  s :     3.887389
      pz      :     1.418509  p :     4.376545
      px      :     1.460181
      py      :     1.497854
      dz2     :     0.014675  d :     0.053102
      dxz     :     0.011635
      dyz     :     0.009845
      dx2y2   :     0.009140
      dxy     :     0.007806
      f0      :     0.000325  f :     0.001766
      f+1     :     0.000323
      f-1     :     0.000204
      f+2     :     0.000389
      f-2     :     0.000285
      f+3     :     0.000137
      f-3     :     0.000103
  2 C s       :     3.416570  s :     3.416570
      pz      :     0.749151  p :     2.099179
      px      :     0.688803
      py      :     0.661225
      dz2     :     0.049027  d :     0.151982
      dxz     :     0.018388
      dyz     :     0.029654
      dx2y2   :     0.032692
      dxy     :     0.022221
      f0      :     0.003061  f :     0.018079
      f+1     :     0.003497
      f-1     :     0.002150
      f+2     :     0.003746
      f-2     :     0.003176
      f+3     :     0.001331
      f-3     :     0.001117
  3 C s       :     3.416697  s :     3.416697
      pz      :     0.629730  p :     2.099062
      px      :     0.688273
      py      :     0.781060
      dz2     :     0.010010  d :     0.151957
      dxz     :     0.023350
      dyz     :     0.050013
      dx2y2   :     0.051329
      dxy     :     0.017256
      f0      :     0.002296  f :     0.018080
      f+1     :     0.001020
      f-1     :     0.001641
      f+2     :     0.000523
      f-2     :     0.003352
      f+3     :     0.003620
      f-3     :     0.005628
  4 O s       :     3.887334  s :     3.887334
      pz      :     1.526310  p :     4.376548
      px      :     1.460404
      py      :     1.389834
      dz2     :     0.004126  d :     0.053090
      dxz     :     0.006376
      dyz     :     0.012220
      dx2y2   :     0.017323
      dxy     :     0.013046
      f0      :     0.000249  f :     0.001766
      f+1     :     0.000085
      f-1     :     0.000128
      f+2     :     0.000050
      f-2     :     0.000365
      f+3     :     0.000294
      f-3     :     0.000595
  5 C s       :     3.416311  s :     3.416311
      pz      :     0.736733  p :     2.099152
      px      :     0.688864
      py      :     0.673555
      dz2     :     0.050414  d :     0.152006
      dxz     :     0.019117
      dyz     :     0.024285
      dx2y2   :     0.036682
      dxy     :     0.021508
      f0      :     0.002580  f :     0.018078
      f+1     :     0.003278
      f-1     :     0.002297
      f+2     :     0.003809
      f-2     :     0.003130
      f+3     :     0.001595
      f-3     :     0.001388
  6 O s       :     3.887480  s :     3.887480
      pz      :     1.429763  p :     4.376547
      px      :     1.460214
      py      :     1.486570
      dz2     :     0.014255  d :     0.053095
      dxz     :     0.011125
      dyz     :     0.009210
      dx2y2   :     0.010198
      dxy     :     0.008308
      f0      :     0.000266  f :     0.001766
      f+1     :     0.000316
      f-1     :     0.000221
      f+2     :     0.000404
      f-2     :     0.000265
      f+3     :     0.000165
      f-3     :     0.000129
  7 C s       :     3.205314  s :     3.205314
      pz      :     0.873743  p :     2.689321
      px      :     0.935711
      py      :     0.879868
      dz2     :    -0.001058  d :     0.019455
      dxz     :     0.030997
      dyz     :    -0.003185
      dx2y2   :    -0.010044
      dxy     :     0.002744
      f0      :     0.001195  f :     0.008039
      f+1     :     0.001434
      f-1     :     0.002119
      f+2     :     0.000947
      f-2     :     0.000598
      f+3     :     0.000943
      f-3     :     0.000803
  8 C s       :     3.235622  s :     3.235622
      pz      :     0.880328  p :     2.706473
      px      :     0.940997
      py      :     0.885148
      dz2     :    -0.003712  d :     0.017762
      dxz     :     0.029710
      dyz     :    -0.002616
      dx2y2   :    -0.008446
      dxy     :     0.002825
      f0      :     0.001162  f :     0.008027
      f+1     :     0.001441
      f-1     :     0.002116
      f+2     :     0.000987
      f-2     :     0.000511
      f+3     :     0.001011
      f-3     :     0.000799
  9 C s       :     3.207139  s :     3.207139
      pz      :     0.913171  p :     2.688253
      px      :     0.935762
      py      :     0.839320
      dz2     :    -0.016442  d :     0.020021
      dxz     :     0.003009
      dyz     :    -0.019842
      dx2y2   :     0.022427
      dxy     :     0.030869
      f0      :     0.001178  f :     0.008042
      f+1     :     0.000354
      f-1     :     0.001900
      f+2     :     0.001117
      f-2     :     0.001245
      f+3     :     0.001378
      f-3     :     0.000868
 10 C s       :     3.235271  s :     3.235271
      pz      :     0.844548  p :     2.706304
      px      :     0.940823
      py      :     0.920933
      dz2     :     0.001252  d :     0.017728
      dxz     :     0.017800
      dyz     :    -0.016314
      dx2y2   :     0.000268
      dxy     :     0.014722
      f0      :     0.001300  f :     0.008026
      f+1     :     0.001232
      f-1     :     0.002083
      f+2     :     0.000927
      f-2     :     0.000714
      f+3     :     0.001018
      f-3     :     0.000754
 11 C s       :     3.208395  s :     3.208395
      pz      :     0.840684  p :     2.686334
      px      :     0.935755
      py      :     0.909894
      dz2     :    -0.002748  d :     0.019707
      dxz     :     0.016566
      dyz     :    -0.015867
      dx2y2   :     0.004543
      dxy     :     0.017213
      f0      :     0.001262  f :     0.008042
      f+1     :     0.001252
      f-1     :     0.002088
      f+2     :     0.000975
      f-2     :     0.000617
      f+3     :     0.001107
      f-3     :     0.000739
 12 C s       :     3.235398  s :     3.235398
      pz      :     0.923281  p :     2.706306
      px      :     0.940904
      py      :     0.842120
      dz2     :    -0.017767  d :     0.017964
      dxz     :     0.001201
      dyz     :    -0.018608
      dx2y2   :     0.021765
      dxy     :     0.031373
      f0      :     0.001173  f :     0.008026
      f+1     :     0.000355
      f-1     :     0.001905
      f+2     :     0.001127
      f-2     :     0.001224
      f+3     :     0.001384
      f-3     :     0.000860
 13 H s       :     0.955972  s :     0.955972
      pz      :     0.006454  p :     0.042709
      px      :     0.023996
      py      :     0.012260
      dz2     :     0.000468  d :     0.002076
      dxz     :     0.000197
      dyz     :     0.000485
      dx2y2   :     0.000349
      dxy     :     0.000576
 14 H s       :     0.959673  s :     0.959673
      pz      :     0.007337  p :     0.045437
      px      :     0.025658
      py      :     0.012442
      dz2     :     0.000529  d :     0.002075
      dxz     :     0.000240
      dyz     :     0.000422
      dx2y2   :     0.000346
      dxy     :     0.000537
 15 H s       :     0.956081  s :     0.956081
      pz      :     0.014271  p :     0.042580
      px      :     0.023996
      py      :     0.004314
      dz2     :     0.000421  d :     0.002075
      dxz     :     0.000755
      dyz     :     0.000870
      dx2y2   :     0.000011
      dxy     :     0.000019
 16 H s       :     0.960018  s :     0.960018
      pz      :     0.007055  p :     0.045378
      px      :     0.025690
      py      :     0.012633
      dz2     :     0.000467  d :     0.002076
      dxz     :     0.000169
      dyz     :     0.000486
      dx2y2   :     0.000345
      dxy     :     0.000608
 17 H s       :     0.956505  s :     0.956505
      pz      :     0.007262  p :     0.042575
      px      :     0.023986
      py      :     0.011327
      dz2     :     0.000532  d :     0.002074
      dxz     :     0.000208
      dyz     :     0.000426
      dx2y2   :     0.000343
      dxy     :     0.000566
 18 H s       :     0.959636  s :     0.959636
      pz      :     0.015204  p :     0.045273
      px      :     0.025671
      py      :     0.004398
      dz2     :     0.000421  d :     0.002076
      dxz     :     0.000757
      dyz     :     0.000867
      dx2y2   :     0.000010
      dxy     :     0.000021


                     *******************************
                     * LOEWDIN POPULATION ANALYSIS *
                     *******************************

----------------------
LOEWDIN ATOMIC CHARGES
----------------------
   0 Mo:    0.661579
   1 O :    0.049514
   2 C :   -0.200470
   3 C :   -0.200508
   4 O :    0.049525
   5 C :   -0.200480
   6 O :    0.049505
   7 C :   -0.048576
   8 C :   -0.047430
   9 C :   -0.048624
  10 C :   -0.047462
  11 C :   -0.048613
  12 C :   -0.047443
  13 H :    0.013436
  14 H :    0.013045
  15 H :    0.013444
  16 H :    0.013057
  17 H :    0.013452
  18 H :    0.013050

-------------------------------
LOEWDIN REDUCED ORBITAL CHARGES
-------------------------------
  0 Mos       :     1.814677  s :     1.814677
      pz      :     2.117850  p :     6.361307
      px      :     2.125604
      py      :     2.117853
      dz2     :     1.126127  d :     4.895577
      dxz     :     0.742988
      dyz     :     1.095131
      dx2y2   :     1.188154
      dxy     :     0.743178
      f0      :     0.021474  f :     0.245936
      f+1     :     0.040569
      f-1     :     0.023422
      f+2     :     0.031540
      f-2     :     0.048827
      f+3     :     0.035088
      f-3     :     0.045018
      g0      :     0.002592  g :     0.020925
      g+1     :     0.001376
      g-1     :     0.000658
      g+2     :     0.001457
      g-2     :     0.004892
      g+3     :     0.001238
      g-3     :     0.003709
      g+4     :     0.002702
      g-4     :     0.002299
  1 O s       :     3.404499  s :     3.404499
      pz      :     1.489514  p :     4.343378
      px      :     1.444463
      py      :     1.409401
      dz2     :     0.041416  d :     0.196793
      dxz     :     0.065007
      dyz     :     0.040005
      dx2y2   :     0.021686
      dxy     :     0.028678
      f0      :     0.000673  f :     0.005815
      f+1     :     0.001430
      f-1     :     0.000738
      f+2     :     0.000925
      f-2     :     0.001426
      f+3     :     0.000276
      f-3     :     0.000348
  2 C s       :     2.935633  s :     2.935633
      pz      :     0.854113  p :     2.292269
      px      :     0.758641
      py      :     0.679515
      dz2     :     0.243985  d :     0.886197
      dxz     :     0.196581
      dyz     :     0.178747
      dx2y2   :     0.143983
      dxy     :     0.122901
      f0      :     0.014095  f :     0.086371
      f+1     :     0.017374
      f-1     :     0.010272
      f+2     :     0.017349
      f-2     :     0.016139
      f+3     :     0.005946
      f-3     :     0.005197
  3 C s       :     2.935579  s :     2.935579
      pz      :     0.617101  p :     2.292255
      px      :     0.758054
      py      :     0.917101
      dz2     :     0.085532  d :     0.886296
      dxz     :     0.096432
      dyz     :     0.205798
      dx2y2   :     0.275608
      dxy     :     0.222926
      f0      :     0.010459  f :     0.086377
      f+1     :     0.005059
      f-1     :     0.008372
      f+2     :     0.002362
      f-2     :     0.015514
      f+3     :     0.018836
      f-3     :     0.025775
  4 O s       :     3.404489  s :     3.404489
      pz      :     1.380797  p :     4.343381
      px      :     1.444189
      py      :     1.518395
      dz2     :     0.026821  d :     0.196791
      dxz     :     0.015631
      dyz     :     0.030454
      dx2y2   :     0.045948
      dxy     :     0.077937
      f0      :     0.000501  f :     0.005815
      f+1     :     0.000446
      f-1     :     0.000832
      f+2     :     0.000099
      f-2     :     0.000741
      f+3     :     0.001944
      f-3     :     0.001252
  5 C s       :     2.935645  s :     2.935645
      pz      :     0.829292  p :     2.292277
      px      :     0.758635
      py      :     0.704351
      dz2     :     0.234629  d :     0.886187
      dxz     :     0.185987
      dyz     :     0.171980
      dx2y2   :     0.160112
      dxy     :     0.133479
      f0      :     0.012020  f :     0.086372
      f+1     :     0.015953
      f-1     :     0.010920
      f+2     :     0.017472
      f-2     :     0.016288
      f+3     :     0.007215
      f-3     :     0.006503
  6 O s       :     3.404502  s :     3.404502
      pz      :     1.478109  p :     4.343383
      px      :     1.444465
      py      :     1.420809
      dz2     :     0.037306  d :     0.196795
      dxz     :     0.059843
      dyz     :     0.042433
      dx2y2   :     0.023374
      dxy     :     0.033838
      f0      :     0.000630  f :     0.005815
      f+1     :     0.001175
      f-1     :     0.000760
      f+2     :     0.000863
      f-2     :     0.001598
      f+3     :     0.000359
      f-3     :     0.000430
  7 C s       :     2.638303  s :     2.638303
      pz      :     0.935829  p :     2.585571
      px      :     0.725872
      py      :     0.923871
      dz2     :     0.191617  d :     0.780791
      dxz     :     0.134955
      dyz     :     0.247374
      dx2y2   :     0.112996
      dxy     :     0.093849
      f0      :     0.007771  f :     0.043910
      f+1     :     0.006415
      f-1     :     0.013589
      f+2     :     0.004851
      f-2     :     0.003488
      f+3     :     0.003736
      f-3     :     0.004061
  8 C s       :     2.638298  s :     2.638298
      pz      :     0.935443  p :     2.586828
      px      :     0.727517
      py      :     0.923868
      dz2     :     0.180543  d :     0.778453
      dxz     :     0.128695
      dyz     :     0.257848
      dx2y2   :     0.112451
      dxy     :     0.098915
      f0      :     0.007671  f :     0.043851
      f+1     :     0.006579
      f-1     :     0.013499
      f+2     :     0.004940
      f-2     :     0.002873
      f+3     :     0.004119
      f-3     :     0.004170
  9 C s       :     2.638301  s :     2.638301
      pz      :     0.926479  p :     2.585573
      px      :     0.725885
      py      :     0.933209
      dz2     :     0.207056  d :     0.780838
      dxz     :     0.068833
      dyz     :     0.175535
      dx2y2   :     0.169429
      dxy     :     0.159984
      f0      :     0.005408  f :     0.043913
      f+1     :     0.001041
      f-1     :     0.012646
      f+2     :     0.007086
      f-2     :     0.007821
      f+3     :     0.004779
      f-3     :     0.005132
 10 C s       :     2.638291  s :     2.638291
      pz      :     0.927634  p :     2.586806
      px      :     0.727512
      py      :     0.931660
      dz2     :     0.195455  d :     0.778513
      dxz     :     0.143053
      dyz     :     0.242367
      dx2y2   :     0.113062
      dxy     :     0.084575
      f0      :     0.007738  f :     0.043854
      f+1     :     0.005782
      f-1     :     0.013464
      f+2     :     0.005029
      f-2     :     0.004068
      f+3     :     0.003722
      f-3     :     0.004051
 11 C s       :     2.638298  s :     2.638298
      pz      :     0.927234  p :     2.585547
      px      :     0.725852
      py      :     0.932461
      dz2     :     0.184546  d :     0.780856
      dxz     :     0.139440
      dyz     :     0.253914
      dx2y2   :     0.113566
      dxy     :     0.089390
      f0      :     0.007619  f :     0.043912
      f+1     :     0.006048
      f-1     :     0.013372
      f+2     :     0.005130
      f-2     :     0.003412
      f+3     :     0.004180
      f-3     :     0.004152
 12 C s       :     2.638302  s :     2.638302
      pz      :     0.925881  p :     2.586825
      px      :     0.727510
      py      :     0.933434
      dz2     :     0.206263  d :     0.778465
      dxz     :     0.069678
      dyz     :     0.176253
      dx2y2   :     0.168341
      dxy     :     0.157929
      f0      :     0.005389  f :     0.043851
      f+1     :     0.001074
      f-1     :     0.012654
      f+2     :     0.007103
      f-2     :     0.007723
      f+3     :     0.004774
      f-3     :     0.005135
 13 H s       :     0.697189  s :     0.697189
      pz      :     0.075394  p :     0.260639
      px      :     0.074970
      py      :     0.110276
      dz2     :     0.004957  d :     0.028736
      dxz     :     0.001893
      dyz     :     0.008885
      dx2y2   :     0.006813
      dxy     :     0.006188
 14 H s       :     0.697327  s :     0.697327
      pz      :     0.078758  p :     0.260874
      px      :     0.075327
      py      :     0.106789
      dz2     :     0.005412  d :     0.028754
      dxz     :     0.002349
      dyz     :     0.008907
      dx2y2   :     0.006324
      dxy     :     0.005763
 15 H s       :     0.697182  s :     0.697182
      pz      :     0.123991  p :     0.260638
      px      :     0.074974
      py      :     0.061673
      dz2     :     0.011806  d :     0.028736
      dxz     :     0.008052
      dyz     :     0.008797
      dx2y2   :     0.000052
      dxy     :     0.000029
 16 H s       :     0.697316  s :     0.697316
      pz      :     0.075595  p :     0.260873
      px      :     0.075328
      py      :     0.109951
      dz2     :     0.004919  d :     0.028754
      dxz     :     0.001748
      dyz     :     0.008956
      dx2y2   :     0.006767
      dxy     :     0.006365
 17 H s       :     0.697171  s :     0.697171
      pz      :     0.079119  p :     0.260640
      px      :     0.074971
      py      :     0.106551
      dz2     :     0.005394  d :     0.028736
      dxz     :     0.002177
      dyz     :     0.008977
      dx2y2   :     0.006285
      dxy     :     0.005904
 18 H s       :     0.697328  s :     0.697328
      pz      :     0.123967  p :     0.260868
      px      :     0.075325
      py      :     0.061576
      dz2     :     0.011811  d :     0.028753
      dxz     :     0.008071
      dyz     :     0.008778
      dx2y2   :     0.000053
      dxy     :     0.000040


                      *****************************
                      * MAYER POPULATION ANALYSIS *
                      *****************************

  NA   - Mulliken gross atomic population
  ZA   - Total nuclear charge
  QA   - Mulliken gross atomic charge
  VA   - Mayer's total valence
  BVA  - Mayer's bonded valence
  FA   - Mayer's free valence

  ATOM       NA         ZA         QA         VA         BVA        FA
  0 Mo    14.2912    14.0000    -0.2912     6.5539     6.5539    -0.0000
  1 O      8.3188     8.0000    -0.3188     2.0952     2.0952     0.0000
  2 C      5.6858     6.0000     0.3142     3.2815     3.2815     0.0000
  3 C      5.6858     6.0000     0.3142     3.2805     3.2805    -0.0000
  4 O      8.3187     8.0000    -0.3187     2.0952     2.0952    -0.0000
  5 C      5.6855     6.0000     0.3145     3.2810     3.2810    -0.0000
  6 O      8.3189     8.0000    -0.3189     2.0954     2.0954     0.0000
  7 C      5.9221     6.0000     0.0779     3.2742     3.2742    -0.0000
  8 C      5.9679     6.0000     0.0321     3.3162     3.3162     0.0000
  9 C      5.9235     6.0000     0.0765     3.2743     3.2743     0.0000
 10 C      5.9673     6.0000     0.0327     3.3123     3.3123    -0.0000
 11 C      5.9225     6.0000     0.0775     3.2733     3.2733     0.0000
 12 C      5.9677     6.0000     0.0323     3.3146     3.3146     0.0000
 13 H      1.0008     1.0000    -0.0008     0.9818     0.9818    -0.0000
 14 H      1.0072     1.0000    -0.0072     0.9891     0.9891     0.0000
 15 H      1.0007     1.0000    -0.0007     0.9815     0.9815    -0.0000
 16 H      1.0075     1.0000    -0.0075     0.9891     0.9891    -0.0000
 17 H      1.0012     1.0000    -0.0012     0.9817     0.9817     0.0000
 18 H      1.0070     1.0000    -0.0070     0.9888     0.9888     0.0000

  Mayer bond orders larger than 0.100000
B(  0-Mo,  2-C ) :   1.2729 B(  0-Mo,  3-C ) :   1.2727 B(  0-Mo,  5-C ) :   1.2730 
B(  0-Mo,  7-C ) :   0.3876 B(  0-Mo,  8-C ) :   0.4028 B(  0-Mo,  9-C ) :   0.3873 
B(  0-Mo, 10-C ) :   0.4031 B(  0-Mo, 11-C ) :   0.3876 B(  0-Mo, 12-C ) :   0.4027 
B(  1-O ,  2-C ) :   1.9679 B(  3-C ,  4-O ) :   1.9678 B(  5-C ,  6-O ) :   1.9680 
B(  7-C ,  8-C ) :   1.2083 B(  7-C ,  9-C ) :  -0.1359 B(  7-C , 11-C ) :  -0.1367 
B(  7-C , 12-C ) :   0.9864 B(  7-C , 13-H ) :   1.0611 B(  8-C ,  9-C ) :   0.9867 
B(  8-C , 10-C ) :  -0.1278 B(  8-C , 12-C ) :  -0.1286 B(  8-C , 14-H ) :   1.0651 
B(  9-C , 10-C ) :   1.2073 B(  9-C , 11-C ) :  -0.1367 B(  9-C , 15-H ) :   1.0626 
B( 10-C , 11-C ) :   0.9848 B( 10-C , 12-C ) :  -0.1276 B( 10-C , 16-H ) :   1.0651 
B( 11-C , 12-C ) :   1.2081 B( 11-C , 17-H ) :   1.0628 B( 12-C , 18-H ) :   1.0653 


-------
TIMINGS
-------

Total SCF time: 0 days 0 hours 0 min 30 sec 

Total time                  ....      30.382 sec
Sum of individual times     ....      29.877 sec  ( 98.3%)

Fock matrix formation       ....      25.206 sec  ( 83.0%)
  XC integration            ....       3.284 sec  ( 13.0% of F)
    Basis function eval.    ....       0.529 sec  ( 16.1% of XC)
    Density eval.           ....       0.924 sec  ( 28.2% of XC)
    XC-Functional eval.     ....       0.042 sec  (  1.3% of XC)
    XC-Potential eval.      ....       1.262 sec  ( 38.4% of XC)
Diagonalization             ....       1.103 sec  (  3.6%)
Density matrix formation    ....       0.046 sec  (  0.2%)
Population analysis         ....       0.073 sec  (  0.2%)
Initial guess               ....       2.075 sec  (  6.8%)
Orbital Transformation      ....       0.000 sec  (  0.0%)
Orbital Orthonormalization  ....       0.000 sec  (  0.0%)
DIIS solution               ....       0.634 sec  (  2.1%)
Grid generation             ....       0.740 sec  (  2.4%)


           ************************************************************
           *        Program running with 24 parallel MPI-processes    *
           *              working on a common directory               *
           ************************************************************

------------------------------------------------------------------------------
                                ORCA  MP2 
------------------------------------------------------------------------------

Freezing NCore=24 chemical core electrons

-------------
RI-MP2 ENERGY
-------------
Dimension of the basis                    ...  611
Memory devoted to MP2                     ... 5000 MB   
Data format for buffers                   ... DOUBLE
Compression type for matrix containers    ... UNCOMPRESSED
Overall scaling of the MP2 energy         ...   2.700e-01
Calculating two index integrals           ... done (    0.018 sec)
Cholesky decomposition of V**-1           ... done (    0.224 sec)

-----------------
RI-TRANSFORMATION (AUX index driven)
-----------------

Dimension of the orbital-basis         ... 611
Dimension of the aux-basis             ... 1514
Transformation of internal/external MOs...   12-  48 to   49- 610
Number Format for Storage              ... Double (8 Byte)
Integral mode                          ... Direct

First Phase: integral generation and transformation of MO indices
  Aux angular momentum 0               ... done (    0.075 sec)
  Aux angular momentum 1               ... done (    0.127 sec)
  Aux angular momentum 2               ... done (    0.181 sec)
  Aux angular momentum 3               ... done (    0.190 sec)
  Aux angular momentum 4               ... done (    0.078 sec)
  Aux angular momentum 5               ... done (    0.096 sec)
  Aux angular momentum 6               ... done (    0.124 sec)
Closing buffer VIA ( 0.23 GB; CompressionRatio= 1.00)
  Phase 1 completed in     0.964 sec
Second Phase: sorting and transformation of aux index

IA-Transformation
Memory available                       ... 4953 MB 
Max. # MO pairs treated in a batch     ... 2    
# of internal orbitals                 ... 37
# batches for internal orbitals        ... 1
Closing buffer IAV ( 0.01 GB; CompressionRatio= 1.00)
(ia|v) transformation done in     0.171 sec

  Phase 2 completed in     0.395 sec
RI-Integral transformation completed in     1.369 sec
Opening buffers                              ... done

Starting loop over batches of integrals:

Operator 0  - window                       ... ( 12- 48)x( 49-610)
Operator 0  - Memory available             ...  5000 MB
Operator 0  - Memory needed per MO         ...   6.5 MB
Operator 0  - Number of orbitals per batch ... 2
Operator 0  - Number of batches            ... 1

OPERATOR  0   PASS   0:  MOs    12 ...   13 +   14 ...   15 +   16 ...   17 +   18 ...   19
                            +   20 ...   21 +   22 ...   23 +   24 ...   25 +   26 ...   27
                            +   28 ...   29 +   30 ...   31 +   32 ...   33 +   34 ...   35
                            +   36 ...   37 +   38 ...   39 +   40 ...   41 +   42 ...   43
                            +   44 ...   45 +   46 ...   47 +   48 ...   48
  Reading integrals       ... ok
Time spent in pair loops =     0.088 sec
Deleting buffer (Ka|jb)[aa] ...done

-----------------------------------------------
 RI-MP2 CORRELATION ENERGY:     -0.917018054 Eh
-----------------------------------------------


-------
TIMINGS
-------

Total time                :    3.108 sec
Integral trafo            :    1.381 sec ( 44.4%)
I/O of integrals          :    0.013 sec (  0.4%)
K(i,j) Operators          :    0.050 sec (  1.6%)
T(i,j) pair energies      :    0.011 sec (  0.4%)
V-calculation             :    0.018 sec (  0.6%)
V**(-1/2)                 :    0.224 sec (  7.2%)
Gamma(ia|P)               :    0.000 sec (  0.0%)
Gamma-Trafo               :    0.000 sec (  0.0%)
D(virtual)                :    0.000 sec (  0.0%)
D(internal)               :    0.000 sec (  0.0%)
W(virtual)                :    0.000 sec (  0.0%)
W(internal)               :    0.000 sec (  0.0%)
L(virtual)                :    0.000 sec (  0.0%)
L(internal)               :    0.000 sec (  0.0%)
G(D)                      :    0.000 sec (  0.0%)
G(Z)                      :    0.000 sec (  0.0%)
Z-Vector Solution         :    0.000 sec (  0.0%)
Z-Vector Solution         :    0.000 sec (  0.0%)
3-Index Derivative 
+ Separable RIJ part      :    0.000 sec (  0.0%)
2-Index Derivative 
+ Separable RIJ part      :    0.000 sec (  0.0%)
Separable Gradient (X)    :    0.000 sec (  0.0%)


---------------------------------------
MP2 TOTAL ENERGY:     -640.298194649 Eh
---------------------------------------


-------------------------------------------------------------------------------
                          DFT DISPERSION CORRECTION                            
                                                                               
                              DFTD3 V3.1  Rev 1                                
                          USING Becke-Johnson damping                          
-------------------------------------------------------------------------------
The B2PLYP functional is recognized
Active option DFTDOPT                   ...         4   

molecular C6(AA) [au] = 6578.097806 


            DFT-D V3
 parameters
 s6 scaling factor         :     0.6400 
 a1 scaling factor         :     0.3065 
 s8 scaling factor         :     0.9147 
 a2 scaling factor         :     5.0570 
 ad hoc parameters k1-k3   :    16.0000     1.3333    -4.0000 

 Edisp/kcal,au: -15.019390967018  -0.023934920484 
 E6   /kcal   :  -7.373721824 
 E8   /kcal   :  -7.645669143 
 % E8         :  50.905320726 

-------------------------   ----------------
Dispersion correction           -0.023934920
-------------------------   ----------------


-------------------------   --------------------
FINAL SINGLE POINT ENERGY      -640.322129569874
-------------------------   --------------------


                            ***************************************
                            *     ORCA property calculations      *
                            ***************************************


  WARNING: The energy has been calculated at the MP2 level but the densities
           used in the property calculations are still SCF densities
           MP2 response densities have not been calculated 
           use %mp2 Density relaxed end
           or  %mp2 Density unrelaxed end

                                    ---------------------
                                    Active property flags
                                    ---------------------
   (+) Dipole Moment


------------------------------------------------------------------------------
                       ORCA ELECTRIC PROPERTIES CALCULATION
------------------------------------------------------------------------------

Dipole Moment Calculation                       ... on
Quadrupole Moment Calculation                   ... off
Polarizability Calculation                      ... off
GBWName                                         ... MOR18_ed37.gbw
Electron density file                           ... MOR18_ed37.scfp
The origin for moment calculation is the CENTER OF MASS  = (-0.084412,  0.000010 -0.000007)

-------------
DIPOLE MOMENT
-------------
                                X             Y             Z
Electronic contribution:    -10.92701      -0.00589      -0.00267
Nuclear contribution   :     13.46160       0.00506       0.00283
                        -----------------------------------------
Total Dipole Moment    :      2.53459      -0.00083       0.00016
                        -----------------------------------------
Magnitude (a.u.)       :      2.53459
Magnitude (Debye)      :      6.44241



--------------------
Rotational spectrum 
--------------------
 
Rotational constants in cm-1:     0.028916     0.021584     0.021580 
Rotational constants in MHz :   866.875127   647.065472   646.965216 

 Dipole components along the rotational axes: 
x,y,z [a.u.] :    -2.534589    -0.000871     0.000137 
x,y,z [Debye]:    -6.442413    -0.002213     0.000347 

 

Timings for individual modules:

Sum of individual times         ...       36.960 sec (=   0.616 min)
GTO integral calculation        ...        2.548 sec (=   0.042 min)   6.9 %
SCF iterations                  ...       30.742 sec (=   0.512 min)  83.2 %
MP2 module                      ...        3.669 sec (=   0.061 min)   9.9 %
                             ****ORCA TERMINATED NORMALLY****
TOTAL RUN TIME: 0 days 0 hours 0 minutes 37 seconds 538 msec
