
                                 *****************
                                 * O   R   C   A *
                                 *****************

           --- An Ab Initio, DFT and Semiempirical electronic structure package ---

                  #######################################################
                  #                        -***-                        #
                  #          Department of theory and spectroscopy      #
                  #               Directorship: Frank Neese             #
                  #        Max Planck Institute fuer Kohlenforschung    #
                  #                Kaiser Wilhelm Platz 1               #
                  #                 D-45470 Muelheim/Ruhr               #
                  #                      Germany                        #
                  #                                                     #
                  #                  All rights reserved                #
                  #                        -***-                        #
                  #######################################################


                         Program Version 4.2.0 -  RELEASE  -


 With contributions from (in alphabetic order):
   Daniel Aravena         : Magnetic Suceptibility
   Michael Atanasov       : Ab Initio Ligand Field Theory (pilot matlab implementation)
   Alexander A. Auer      : GIAO ZORA, VPT2
   Ute Becker             : Parallelization
   Giovanni Bistoni       : ED, misc. LED, open-shell LED, HFLED
   Martin Brehm           : Molecular dynamics
   Dmytro Bykov           : SCF Hessian
   Vijay G. Chilkuri      : MRCI spin determinant printing, contributions to CSF-ICE
   Dipayan Datta          : RHF DLPNO-CCSD density
   Achintya Kumar Dutta   : EOM-CC, STEOM-CC
   Dmitry Ganyushin       : Spin-Orbit,Spin-Spin,Magnetic field MRCI
   Miquel Garcia          : C-PCM Hessian, Gaussian charge scheme
   Yang Guo               : DLPNO-NEVPT2, CIM, IAO-localization
   Andreas Hansen         : Spin unrestricted coupled pair/coupled cluster methods
   Benjamin Helmich-Paris : CASSCF linear response (MC-RPA)
   Lee Huntington         : MR-EOM, pCC
   Robert Izsak           : Overlap fitted RIJCOSX, COSX-SCS-MP3, EOM
   Christian Kollmar      : KDIIS, OOCD, Brueckner-CCSD(T), CCSD density
   Simone Kossmann        : Meta GGA functionals, TD-DFT gradient, OOMP2, MP2 Hessian
   Martin Krupicka        : AUTO-CI
   Lucas Lang             : DCDCAS
   Dagmar Lenk            : GEPOL surface, SMD
   Dimitrios Liakos       : Extrapolation schemes; Compound Job, initial MDCI parallelization
   Dimitrios Manganas     : Further ROCIS development; embedding schemes
   Dimitrios Pantazis     : SARC Basis sets
   Taras Petrenko         : DFT Hessian,TD-DFT gradient, ASA, ECA, R-Raman, ABS, FL, XAS/XES, NRVS
   Peter Pinski           : DLPNO-MP2, DLPNO-MP2 Gradient
   Christoph Reimann      : Effective Core Potentials
   Marius Retegan         : Local ZFS, SOC
   Christoph Riplinger    : Optimizer, TS searches, QM/MM, DLPNO-CCSD(T), (RO)-DLPNO pert. Triples
   Tobias Risthaus        : Range-separated hybrids, TD-DFT gradient, RPA, STAB
   Michael Roemelt        : Original ROCIS implementation
   Masaaki Saitow         : Open-shell DLPNO-CCSD energy and density
   Barbara Sandhoefer     : DKH picture change effects
   Avijit Sen             : IP-ROCIS
   Kantharuban Sivalingam : CASSCF convergence, NEVPT2, FIC-MRCI
   Bernardo de Souza      : ESD, SOC TD-DFT
   Georgi Stoychev        : AutoAux, RI-MP2 NMR
   Willem Van den Heuvel  : Paramagnetic NMR
   Boris Wezisla          : Elementary symmetry handling
   Frank Wennmohs         : Technical directorship


 We gratefully acknowledge several colleagues who have allowed us to
 interface, adapt or use parts of their codes:
   Stefan Grimme, W. Hujo, H. Kruse,             : VdW corrections, initial TS optimization,
                  C. Bannwarth                     DFT functionals, gCP, sTDA/sTD-DF
   Ed Valeev, F. Pavosevic, A. Kumar             : LibInt (2-el integral package), F12 methods
   Garnet Chan, S. Sharma, J. Yang, R. Olivares  : DMRG
   Ulf Ekstrom                                   : XCFun DFT Library
   Mihaly Kallay                                 : mrcc  (arbitrary order and MRCC methods)
   Andreas Klamt, Michael Diedenhofen            : otool_cosmo (COSMO solvation model)
   Jiri Pittner, Ondrej Demel                    : Mk-CCSD
   Frank Weinhold                                : gennbo (NPA and NBO analysis)
   Christopher J. Cramer and Donald G. Truhlar   : smd solvation model
   Lars Goerigk                                  : TD-DFT with DH, B97 family of functionals
   V. Asgeirsson, H. Jonsson                     : NEB implementation
   FAccTs GmbH                                   : IRC, NEB, NEB-TS, Multilevel, MM, QM/MM, CI optimization
   S Lehtola, MJT Oliveira, MAL Marques          : LibXC Library


 Your calculation uses the libint2 library for the computation of 2-el integrals
 For citations please refer to: http://libint.valeyev.net

 Your ORCA version has been built with support for libXC version: 4.2.3
 For citations please refer to: https://tddft.org/programs/libxc/

 This ORCA versions uses:
   CBLAS   interface :  Fast vector & matrix operations
   LAPACKE interface :  Fast linear algebra routines
   SCALAPACK package :  Parallel linear algebra routines


Your calculation utilizes the atom-pairwise dispersion correction
with the Becke-Johnson damping scheme (D3BJ)
Cite in your paper:
S.Grimme, S.Ehrlich, L.Goerigk, J Comput Chem, (2011), 32, 1456–1465 
S.Grimme, J.Antony, S.Ehrlich and H.Krieg, J.Chem.Phys., 132, (2010), 154104 
   

----- Orbital basis set information -----
Your calculation utilizes the basis: def2-TZVPPD
   F. Weigend and R. Ahlrichs, Phys. Chem. Chem. Phys. 7, 3297 (2005).
   D. Rappoport and F. Furche, J. Chem. Phys. 133 134105 (2010).

----- AuxC basis set information -----
Your calculation utilizes the auxiliary basis: def2-TZVPPD/C
   A. Hellweg, C. Hattig, S. Hofener and W. Klopper, Theor. Chem. Acc. 117, 587 (2007).

----- AuxJK basis set information -----
Your calculation utilizes the auxiliary basis: def2/JK
   H-Ba, Hf-Rn: F. Weigend, J. Comput. Chem. 29, 167 (2008).

cite the ECPs for Ru [Def2-ECP] as follows:
Ce-Yb(ecp-28): M. Dolg, H. Stoll, H.Preuss, J. Chem. Phys., 1989, 90, 1730-1734.
Y-Cd(ecp-28), Hf-Hg(ecp-46): D. Andrae,U. Haeussermann, M. Dolg, H. Stoll, H. Preuss, Theor. Chim. Acta, 1990, 77, 123-141.
In-Sb(ecp-28), Tl-Bi(ecp-46): B. Metz, H. Stoll, M. Dolg, J. Chem. Phys., 2000, 113, 2563-2569.
Te-Xe(ecp-28), Po-Rn(ecp-46): K. A. Peterson, D. Figgen, E. Goll, H. Stoll, M. Dolg, J. Chem. Phys., 2003, 119, 11113-11123.
Rb(ecp-28), Cs(ecp-46): T. Leininger, A. Nicklass, W. Kuechle, H. Stoll, M. Dolg, A. Bergner, Chem. Phys. Lett., 1996, 255, 274-280.
Sr(ecp-28), Ba(ecp-46): M. Kaupp, P. V. Schleyer, H. Stoll and H. Preuss, J. Chem. Phys., 1991, 94, 1360-1366.
La(ecp-46): M. Dolg, H. Stoll, A. Savin, H. Preuss, Theor. Chim. Acta, 1989, 75, 173-194.
Lu(ecp-28): X. Cao, M. Dolg, J. Chem. Phys., 2001, 115, 7348-7355.

ECP parameters for Ru [Def2-ECP] have been obtained from:
TURBOMOLE (7.0.2)

================================================================================
                                        WARNINGS
                       Please study these warnings very carefully!
================================================================================


WARNING: No MP2 level density has been requested!
         To caclulate MP2 level properties use
         %mp2 Density relaxed end
         or
         %mp2 Density unrelaxed end
         Otherwise for double-hybrid DFT only the energy is correct!

WARNING: The frozen-core approximation is turned on by default for 
         the MP2 part of double-hybrid DFT.

INFO   : the flag for use of LIBINT has been found!

================================================================================
                                       INPUT FILE
================================================================================
NAME = MOR16_ed33.in
|  1> #
|  2> # MOR16_ed33 ri-B2PLYP-D3BJ/Def2-TZVPPD
|  3> #
|  4> ! rijk ri-b2plyp d3bj def2-tzvppd def2/jk def2-tzvppd/c grid4 nofinalgrid
|  5> 
|  6> *xyz 0 1
|  7> Ru      -0.022566   -0.070875   -0.379144 
|  8> P        0.186586   -1.836138    1.061273 
|  9> P       -0.107348    1.786969    0.983128 
| 10> P       -2.337688   -0.031549   -0.574608 
| 11> P        2.258415    0.217420   -0.654771 
| 12> H       -1.011320    0.631023   -2.964588 
| 13> C       -0.084126    0.244754   -2.536818 
| 14> C        0.002235   -1.177677   -2.238071 
| 15> H       -0.861138   -1.806799   -2.436001 
| 16> C       -1.265405   -2.900768    1.510519 
| 17> C        0.882199   -1.676365    2.777543 
| 18> C        1.273276   -3.202818    0.434593 
| 19> C       -0.218657    3.482246    0.220382 
| 20> C       -1.474202    1.984957    2.229068 
| 21> C        1.261931    2.159069    2.186793 
| 22> C       -3.132442   -1.089929   -1.868209 
| 23> C       -3.503325   -0.454941    0.806619 
| 24> C       -3.065826    1.589188   -1.096490 
| 25> C        3.115513   -0.738567   -1.988082 
| 26> C        3.484163   -0.113039    0.695104 
| 27> C        2.817918    1.905477   -1.167131 
| 28> H        0.775994    0.734504   -2.997508 
| 29> H        0.923698   -1.705224   -2.468332 
| 30> H       -1.797994   -3.196368    0.601740 
| 31> H       -1.951513   -2.343187    2.152343 
| 32> H       -0.940552   -3.802999    2.042563 
| 33> H        0.220858   -1.033459    3.367392 
| 34> H        1.866404   -1.203417    2.738274 
| 35> H        0.973380   -2.648584    3.278375 
| 36> H        0.869924   -3.550933   -0.520488 
| 37> H        1.326184   -4.042772    1.138076 
| 38> H        2.284288   -2.829356    0.252702 
| 39> H       -0.255493    4.275719    0.977504 
| 40> H       -1.111307    3.540133   -0.406666 
| 41> H        0.646533    3.642441   -0.427500 
| 42> H       -1.340744    2.904812    2.810047 
| 43> H       -1.464232    1.128616    2.910406 
| 44> H       -2.450699    2.022913    1.741739 
| 45> H        1.024646    3.051958    2.776564 
| 46> H        2.206281    2.332826    1.666415 
| 47> H        1.391528    1.309503    2.862930 
| 48> H       -4.214574   -0.920776   -1.864995 
| 49> H       -2.933677   -2.144929   -1.660324 
| 50> H       -2.737237   -0.849967   -2.858203 
| 51> H       -4.496496   -0.037297    0.606865 
| 52> H       -3.139236   -0.075571    1.761748 
| 53> H       -3.591401   -1.541056    0.877459 
| 54> H       -4.128475    1.484093   -1.343350 
| 55> H       -2.520683    1.955160   -1.969951 
| 56> H       -2.964031    2.325987   -0.296631 
| 57> H        4.171126   -0.449128   -2.023284 
| 58> H        2.657332   -0.533147   -2.958558 
| 59> H        3.043678   -1.811163   -1.790971 
| 60> H        4.490887    0.184953    0.381316 
| 61> H        3.492626   -1.181661    0.925550 
| 62> H        3.218142    0.429172    1.603169 
| 63> H        3.886252    1.913189   -1.411457 
| 64> H        2.634640    2.627880   -0.369051 
| 65> H        2.240286    2.211368   -2.043241 
| 66> *
| 67> 
| 68> %maxcore 5000
| 69> 
| 70> %pal
| 71> nprocs = 24
| 72> end
| 73> 
| 74> 
| 75>                          ****END OF INPUT****
================================================================================

                       ****************************
                       * Single Point Calculation *
                       ****************************

---------------------------------
CARTESIAN COORDINATES (ANGSTROEM)
---------------------------------
  Ru    -0.022566   -0.070875   -0.379144
  P      0.186586   -1.836138    1.061273
  P     -0.107348    1.786969    0.983128
  P     -2.337688   -0.031549   -0.574608
  P      2.258415    0.217420   -0.654771
  H     -1.011320    0.631023   -2.964588
  C     -0.084126    0.244754   -2.536818
  C      0.002235   -1.177677   -2.238071
  H     -0.861138   -1.806799   -2.436001
  C     -1.265405   -2.900768    1.510519
  C      0.882199   -1.676365    2.777543
  C      1.273276   -3.202818    0.434593
  C     -0.218657    3.482246    0.220382
  C     -1.474202    1.984957    2.229068
  C      1.261931    2.159069    2.186793
  C     -3.132442   -1.089929   -1.868209
  C     -3.503325   -0.454941    0.806619
  C     -3.065826    1.589188   -1.096490
  C      3.115513   -0.738567   -1.988082
  C      3.484163   -0.113039    0.695104
  C      2.817918    1.905477   -1.167131
  H      0.775994    0.734504   -2.997508
  H      0.923698   -1.705224   -2.468332
  H     -1.797994   -3.196368    0.601740
  H     -1.951513   -2.343187    2.152343
  H     -0.940552   -3.802999    2.042563
  H      0.220858   -1.033459    3.367392
  H      1.866404   -1.203417    2.738274
  H      0.973380   -2.648584    3.278375
  H      0.869924   -3.550933   -0.520488
  H      1.326184   -4.042772    1.138076
  H      2.284288   -2.829356    0.252702
  H     -0.255493    4.275719    0.977504
  H     -1.111307    3.540133   -0.406666
  H      0.646533    3.642441   -0.427500
  H     -1.340744    2.904812    2.810047
  H     -1.464232    1.128616    2.910406
  H     -2.450699    2.022913    1.741739
  H      1.024646    3.051958    2.776564
  H      2.206281    2.332826    1.666415
  H      1.391528    1.309503    2.862930
  H     -4.214574   -0.920776   -1.864995
  H     -2.933677   -2.144929   -1.660324
  H     -2.737237   -0.849967   -2.858203
  H     -4.496496   -0.037297    0.606865
  H     -3.139236   -0.075571    1.761748
  H     -3.591401   -1.541056    0.877459
  H     -4.128475    1.484093   -1.343350
  H     -2.520683    1.955160   -1.969951
  H     -2.964031    2.325987   -0.296631
  H      4.171126   -0.449128   -2.023284
  H      2.657332   -0.533147   -2.958558
  H      3.043678   -1.811163   -1.790971
  H      4.490887    0.184953    0.381316
  H      3.492626   -1.181661    0.925550
  H      3.218142    0.429172    1.603169
  H      3.886252    1.913189   -1.411457
  H      2.634640    2.627880   -0.369051
  H      2.240286    2.211368   -2.043241

----------------------------
CARTESIAN COORDINATES (A.U.)
----------------------------
  NO LB      ZA    FRAG     MASS         X           Y           Z
   0 Ru   16.0000*   0   101.070   -0.042644   -0.133934   -0.716478
   1 P    15.0000    0    30.974    0.352596   -3.469798    2.005515
   2 P    15.0000    0    30.974   -0.202858    3.376882    1.857843
   3 P    15.0000    0    30.974   -4.417590   -0.059619   -1.085852
   4 P    15.0000    0    30.974    4.267786    0.410864   -1.237338
   5 H     1.0000    0     1.008   -1.911118    1.192461   -5.602259
   6 C     6.0000    0    12.011   -0.158975    0.462518   -4.793891
   7 C     6.0000    0    12.011    0.004224   -2.225487   -4.229341
   8 H     1.0000    0     1.008   -1.627315   -3.414355   -4.603375
   9 C     6.0000    0    12.011   -2.391269   -5.481657    2.854467
  10 C     6.0000    0    12.011    1.667115   -3.167871    5.248796
  11 C     6.0000    0    12.011    2.406143   -6.052449    0.821262
  12 C     6.0000    0    12.011   -0.413202    6.580491    0.416462
  13 C     6.0000    0    12.011   -2.785838    3.751025    4.212328
  14 C     6.0000    0    12.011    2.384704    4.080049    4.132440
  15 C     6.0000    0    12.011   -5.919458   -2.059667   -3.530403
  16 C     6.0000    0    12.011   -6.620325   -0.859714    1.524289
  17 C     6.0000    0    12.011   -5.793572    3.003130   -2.072066
  18 C     6.0000    0    12.011    5.887466   -1.395689   -3.756931
  19 C     6.0000    0    12.011    6.584114   -0.213613    1.313556
  20 C     6.0000    0    12.011    5.325093    3.600830   -2.205558
  21 H     1.0000    0     1.008    1.466416    1.388011   -5.664469
  22 H     1.0000    0     1.008    1.745536   -3.222406   -4.664471
  23 H     1.0000    0     1.008   -3.397716   -6.040260    1.137124
  24 H     1.0000    0     1.008   -3.687825   -4.427982    4.067339
  25 H     1.0000    0     1.008   -1.777386   -7.186627    3.859885
  26 H     1.0000    0     1.008    0.417361   -1.952954    6.363449
  27 H     1.0000    0     1.008    3.526992   -2.274129    5.174588
  28 H     1.0000    0     1.008    1.839422   -5.005098    6.195231
  29 H     1.0000    0     1.008    1.643918   -6.710291   -0.983580
  30 H     1.0000    0     1.008    2.506125   -7.639732    2.150652
  31 H     1.0000    0     1.008    4.316679   -5.346708    0.477538
  32 H     1.0000    0     1.008   -0.482812    8.079938    1.847215
  33 H     1.0000    0     1.008   -2.100066    6.689882   -0.768487
  34 H     1.0000    0     1.008    1.221770    6.883216   -0.807858
  35 H     1.0000    0     1.008   -2.533639    5.489299    5.310219
  36 H     1.0000    0     1.008   -2.766997    2.132775    5.499870
  37 H     1.0000    0     1.008   -4.631150    3.822752    3.291410
  38 H     1.0000    0     1.008    1.936300    5.767365    5.246946
  39 H     1.0000    0     1.008    4.169267    4.408402    3.149068
  40 H     1.0000    0     1.008    2.629607    2.474602    5.410154
  41 H     1.0000    0     1.008   -7.964391   -1.740014   -3.524330
  42 H     1.0000    0     1.008   -5.543846   -4.053328   -3.137558
  43 H     1.0000    0     1.008   -5.172628   -1.606205   -5.401221
  44 H     1.0000    0     1.008   -8.497146   -0.070481    1.146809
  45 H     1.0000    0     1.008   -5.932296   -0.142808    3.329221
  46 H     1.0000    0     1.008   -6.786764   -2.912174    1.658157
  47 H     1.0000    0     1.008   -7.801687    2.804529   -2.538564
  48 H     1.0000    0     1.008   -4.763401    3.694717   -3.722668
  49 H     1.0000    0     1.008   -5.601207    4.395478   -0.560551
  50 H     1.0000    0     1.008    7.882286   -0.848729   -3.823453
  51 H     1.0000    0     1.008    5.021630   -1.007502   -5.590864
  52 H     1.0000    0     1.008    5.751718   -3.422602   -3.384445
  53 H     1.0000    0     1.008    8.486547    0.349511    0.720583
  54 H     1.0000    0     1.008    6.600107   -2.233016    1.749036
  55 H     1.0000    0     1.008    6.081407    0.811018    3.029550
  56 H     1.0000    0     1.008    7.343952    3.615403   -2.667267
  57 H     1.0000    0     1.008    4.978748    4.965974   -0.697405
  58 H     1.0000    0     1.008    4.233527    4.178880   -3.861166
* core charge reduced due to ECP

--------------------------------
INTERNAL COORDINATES (ANGSTROEM)
--------------------------------
 Ru     0   0   0     0.000000000000     0.00000000     0.00000000
 P      1   0   0     2.287946492417     0.00000000     0.00000000
 P      1   2   0     2.305332366025   104.66221715     0.00000000
 P      1   2   3     2.323691585485    99.03821114   267.64910282
 P      1   2   3     2.315590329163    94.64310639    91.58788700
 H      4   1   2     2.812518111410    66.77219588   215.85148878
 C      6   4   1     1.091732397109    89.09509686    14.05285889
 C      7   6   4     1.456028139182   118.45166050    65.18146657
 H      8   7   6     1.086454652948   118.76279273   359.12854362
 C      2   1   3     1.855676930259   121.56966668   101.05127520
 C      2   1   3     1.858759685973   123.31191601   336.27367032
 C      2   1   3     1.855111102037   114.15971027   216.31260982
 C      3   1   2     1.862293011512   119.58981369   177.87271318
 C      3   1   2     1.860068705468   120.57231068   298.79007113
 C      3   1   2     1.860696864636   121.08830426    57.02354521
 C      4   1   2     1.850731123669   118.48708852   272.43317714
 C      4   1   2     1.856275417863   123.99891458    34.48583546
 C      4   1   2     1.851846157794   115.48427429   157.06752685
 C      5   1   2     1.851012249688   118.52621553    88.29994823
 C      5   1   2     1.853057966122   122.86591652   326.80935909
 C      5   1   2     1.850700627292   116.37949423   204.20408868
 H      7   6   4     1.091740240625   110.18446279   206.30986443
 H      8   7   6     1.086471364417   118.76222650   138.78830192
 H     10   2   1     1.094033671219   109.56192786    48.27850866
 H     10   2   1     1.092510323155   109.92629705   288.92239690
 H     10   2   1     1.096640810341   110.95761752   168.63292311
 H     11   2   1     1.094815914169   108.77654055    64.07788022
 H     11   2   1     1.092648775723   109.94479240   305.98543004
 H     11   2   1     1.097431752295   112.10635847   184.61353311
 H     12   2   1     1.093643728867   108.26835033   302.55461886
 H     12   2   1     1.096909435582   112.06990652   181.65620960
 H     12   2   1     1.093024915301   110.26281537    60.18487629
 H     13   3   1     1.097355920159   112.18819537   179.79776864
 H     13   3   1     1.092412065831   109.40080909    58.34398803
 H     13   3   1     1.092688089095   109.20680857   301.06925015
 H     14   3   1     1.096120822369   110.78660029   178.13868869
 H     14   3   1     1.094367753283   109.08954505    58.14749529
 H     14   3   1     1.092005770674   111.21594720   298.81671335
 H     15   3   1     1.096076990903   110.58955305   182.62491617
 H     15   3   1     1.092145448387   111.09409872    62.33413873
 H     15   3   1     1.093489375135   109.38032637   302.70084398
 H     16   4   1     1.095277468329   109.50584872   182.84097644
 H     16   4   1     1.093502948533   109.92553676    62.93543265
 H     16   4   1     1.092637576466   110.63356976   303.04304154
 H     17   4   1     1.095772242071   110.27771346   160.05305866
 H     17   4   1     1.090299868597   111.27110989    38.64934340
 H     17   4   1     1.091980531237   109.01288838   279.10978301
 H     18   4   1     1.095996220717   111.14842560   169.60559577
 H     18   4   1     1.092726184254   108.79773815    48.80950863
 H     18   4   1     1.092249700530   110.32613730   290.21462294
 H     19   5   1     1.095140594305   109.45002270   176.85385125
 H     19   5   1     1.092680589988   110.39552029    56.84759766
 H     19   5   1     1.092920487850   110.27445229   296.97813596
 H     20   5   1     1.095789830754   110.52480609   185.75234481
 H     20   5   1     1.093219996235   109.45069931    66.17912131
 H     20   5   1     1.090569569164   110.88765660   306.88193938
 H     21   5   1     1.095943522621   111.27477852   188.12674655
 H     21   5   1     1.091965478435   110.50829576    67.16554938
 H     21   5   1     1.093067593246   108.50507036   308.71303669

---------------------------
INTERNAL COORDINATES (A.U.)
---------------------------
 Ru     0   0   0     0.000000000000     0.00000000     0.00000000
 P      1   0   0     4.323592279733     0.00000000     0.00000000
 P      1   2   0     4.356446819453   104.66221715     0.00000000
 P      1   2   3     4.391140716265    99.03821114   267.64910282
 P      1   2   3     4.375831560475    94.64310639    91.58788700
 H      4   1   2     5.314888977258    66.77219588   215.85148878
 C      6   4   1     2.063075242065    89.09509686    14.05285889
 C      7   6   4     2.751494426338   118.45166050    65.18146657
 H      8   7   6     2.053101750997   118.76279273   359.12854362
 C      2   1   3     3.506721191226   121.56966668   101.05127520
 C      2   1   3     3.512546755262   123.31191601   336.27367032
 C      2   1   3     3.505651930846   114.15971027   216.31260982
 C      3   1   2     3.519223772873   119.58981369   177.87271318
 C      3   1   2     3.515020443611   120.57231068   298.79007113
 C      3   1   2     3.516207492408   121.08830426    57.02354521
 C      4   1   2     3.497374971259   118.48708852   272.43317714
 C      4   1   2     3.507852168891   123.99891458    34.48583546
 C      4   1   2     3.499482080385   115.48427429   157.06752685
 C      5   1   2     3.497906222443   118.52621553    88.29994823
 C      5   1   2     3.501772066253   122.86591652   326.80935909
 C      5   1   2     3.497317341458   116.37949423   204.20408868
 H      7   6   4     2.063090064163   110.18446279   206.30986443
 H      8   7   6     2.053133331097   118.76222650   138.78830192
 H     10   2   1     2.067424019893   109.56192786    48.27850866
 H     10   2   1     2.064545309245   109.92629705   288.92239690
 H     10   2   1     2.072350798827   110.95761752   168.63292311
 H     11   2   1     2.068902244838   108.77654055    64.07788022
 H     11   2   1     2.064806946682   109.94479240   305.98543004
 H     11   2   1     2.073845462507   112.10635847   184.61353311
 H     12   2   1     2.066687135639   108.26835033   302.55461886
 H     12   2   1     2.072858426964   112.06990652   181.65620960
 H     12   2   1     2.065517747472   110.26281537    60.18487629
 H     13   3   1     2.073702160539   112.18819537   179.79776864
 H     13   3   1     2.064359629812   109.40080909    58.34398803
 H     13   3   1     2.064881238186   109.20680857   301.06925015
 H     14   3   1     2.071368163965   110.78660029   178.13868869
 H     14   3   1     2.068055343499   109.08954505    58.14749529
 H     14   3   1     2.063591843236   111.21594720   298.81671335
 H     15   3   1     2.071285334499   110.58955305   182.62491617
 H     15   3   1     2.063855795861   111.09409872    62.33413873
 H     15   3   1     2.066395449359   109.38032637   302.70084398
 H     16   4   1     2.069774455796   109.50584872   182.84097644
 H     16   4   1     2.066421099362   109.92553676    62.93543265
 H     16   4   1     2.064785783152   110.63356976   303.04304154
 H     17   4   1     2.070709442667   110.27771346   160.05305866
 H     17   4   1     2.060368155498   111.27110989    38.64934340
 H     17   4   1     2.063544147612   109.01288838   279.10978301
 H     18   4   1     2.071132700968   111.14842560   169.60559577
 H     18   4   1     2.064953227605   108.79773815    48.80950863
 H     18   4   1     2.064052803858   110.32613730   290.21462294
 H     19   5   1     2.069515801376   109.45002270   176.85385125
 H     19   5   1     2.064867066929   110.39552029    56.84759766
 H     19   5   1     2.065320408188   110.27445229   296.97813596
 H     20   5   1     2.070742680461   110.52480609   185.75234481
 H     20   5   1     2.065886397011   109.45069931    66.17912131
 H     20   5   1     2.060877815709   110.88765660   306.88193938
 H     21   5   1     2.071033116000   111.27477852   188.12674655
 H     21   5   1     2.063515701938   110.50829576    67.16554938
 H     21   5   1     2.065598397100   108.50507036   308.71303669

---------------------
BASIS SET INFORMATION
---------------------
There are 4 groups of distinct atoms

 Group   1 Type Ru  : 7s7p5d2f1g contracted to 6s4p3d2f1g pattern {211111/4111/311/11/1}
 Group   2 Type P   : 15s9p4d1f contracted to 6s5p4d1f pattern {732111/51111/1111/1}
 Group   3 Type H   : 5s3p1d contracted to 3s3p1d pattern {311/111/1}
 Group   4 Type C   : 12s6p3d1f contracted to 6s3p3d1f pattern {621111/411/111/1}

Atom   0Ru   basis set group =>   1
Atom   1P    basis set group =>   2
Atom   2P    basis set group =>   2
Atom   3P    basis set group =>   2
Atom   4P    basis set group =>   2
Atom   5H    basis set group =>   3
Atom   6C    basis set group =>   4
Atom   7C    basis set group =>   4
Atom   8H    basis set group =>   3
Atom   9C    basis set group =>   4
Atom  10C    basis set group =>   4
Atom  11C    basis set group =>   4
Atom  12C    basis set group =>   4
Atom  13C    basis set group =>   4
Atom  14C    basis set group =>   4
Atom  15C    basis set group =>   4
Atom  16C    basis set group =>   4
Atom  17C    basis set group =>   4
Atom  18C    basis set group =>   4
Atom  19C    basis set group =>   4
Atom  20C    basis set group =>   4
Atom  21H    basis set group =>   3
Atom  22H    basis set group =>   3
Atom  23H    basis set group =>   3
Atom  24H    basis set group =>   3
Atom  25H    basis set group =>   3
Atom  26H    basis set group =>   3
Atom  27H    basis set group =>   3
Atom  28H    basis set group =>   3
Atom  29H    basis set group =>   3
Atom  30H    basis set group =>   3
Atom  31H    basis set group =>   3
Atom  32H    basis set group =>   3
Atom  33H    basis set group =>   3
Atom  34H    basis set group =>   3
Atom  35H    basis set group =>   3
Atom  36H    basis set group =>   3
Atom  37H    basis set group =>   3
Atom  38H    basis set group =>   3
Atom  39H    basis set group =>   3
Atom  40H    basis set group =>   3
Atom  41H    basis set group =>   3
Atom  42H    basis set group =>   3
Atom  43H    basis set group =>   3
Atom  44H    basis set group =>   3
Atom  45H    basis set group =>   3
Atom  46H    basis set group =>   3
Atom  47H    basis set group =>   3
Atom  48H    basis set group =>   3
Atom  49H    basis set group =>   3
Atom  50H    basis set group =>   3
Atom  51H    basis set group =>   3
Atom  52H    basis set group =>   3
Atom  53H    basis set group =>   3
Atom  54H    basis set group =>   3
Atom  55H    basis set group =>   3
Atom  56H    basis set group =>   3
Atom  57H    basis set group =>   3
Atom  58H    basis set group =>   3
---------------------------------
AUXILIARY/C BASIS SET INFORMATION
---------------------------------
There are 4 groups of distinct atoms

 Group   1 Type Ru  : 8s7p6d5f4g3h1i contracted to 8s7p6d5f4g3h1i pattern {11111111/1111111/111111/11111/1111/111/1}
 Group   2 Type P   : 12s9p8d6f2g contracted to 12s9p8d6f2g pattern {111111111111/111111111/11111111/111111/11}
 Group   3 Type H   : 5s4p3d1f contracted to 5s4p3d1f pattern {11111/1111/111/1}
 Group   4 Type C   : 9s7p6d4f1g contracted to 9s7p5d4f1g pattern {111111111/1111111/21111/1111/1}

Atom   0Ru   basis set group =>   1
Atom   1P    basis set group =>   2
Atom   2P    basis set group =>   2
Atom   3P    basis set group =>   2
Atom   4P    basis set group =>   2
Atom   5H    basis set group =>   3
Atom   6C    basis set group =>   4
Atom   7C    basis set group =>   4
Atom   8H    basis set group =>   3
Atom   9C    basis set group =>   4
Atom  10C    basis set group =>   4
Atom  11C    basis set group =>   4
Atom  12C    basis set group =>   4
Atom  13C    basis set group =>   4
Atom  14C    basis set group =>   4
Atom  15C    basis set group =>   4
Atom  16C    basis set group =>   4
Atom  17C    basis set group =>   4
Atom  18C    basis set group =>   4
Atom  19C    basis set group =>   4
Atom  20C    basis set group =>   4
Atom  21H    basis set group =>   3
Atom  22H    basis set group =>   3
Atom  23H    basis set group =>   3
Atom  24H    basis set group =>   3
Atom  25H    basis set group =>   3
Atom  26H    basis set group =>   3
Atom  27H    basis set group =>   3
Atom  28H    basis set group =>   3
Atom  29H    basis set group =>   3
Atom  30H    basis set group =>   3
Atom  31H    basis set group =>   3
Atom  32H    basis set group =>   3
Atom  33H    basis set group =>   3
Atom  34H    basis set group =>   3
Atom  35H    basis set group =>   3
Atom  36H    basis set group =>   3
Atom  37H    basis set group =>   3
Atom  38H    basis set group =>   3
Atom  39H    basis set group =>   3
Atom  40H    basis set group =>   3
Atom  41H    basis set group =>   3
Atom  42H    basis set group =>   3
Atom  43H    basis set group =>   3
Atom  44H    basis set group =>   3
Atom  45H    basis set group =>   3
Atom  46H    basis set group =>   3
Atom  47H    basis set group =>   3
Atom  48H    basis set group =>   3
Atom  49H    basis set group =>   3
Atom  50H    basis set group =>   3
Atom  51H    basis set group =>   3
Atom  52H    basis set group =>   3
Atom  53H    basis set group =>   3
Atom  54H    basis set group =>   3
Atom  55H    basis set group =>   3
Atom  56H    basis set group =>   3
Atom  57H    basis set group =>   3
Atom  58H    basis set group =>   3
----------------------------------
AUXILIARY/JK BASIS SET INFORMATION
----------------------------------
There are 4 groups of distinct atoms

 Group   1 Type Ru  : 13s12p10d9f6g3h2i contracted to 11s10p9d8f6g3h2i pattern {31111111111/3111111111/211111111/21111111/111111/111/11}
 Group   2 Type P   : 16s12p10d4f1g contracted to 13s11p9d4f1g pattern {4111111111111/21111111111/211111111/1111/1}
 Group   3 Type H   : 4s2p2d contracted to 2s2p2d pattern {31/11/11}
 Group   4 Type C   : 14s10p6d2f1g contracted to 10s8p5d1f1g pattern {5111111111/31111111/21111/2/1}

Atom   0Ru   basis set group =>   1
Atom   1P    basis set group =>   2
Atom   2P    basis set group =>   2
Atom   3P    basis set group =>   2
Atom   4P    basis set group =>   2
Atom   5H    basis set group =>   3
Atom   6C    basis set group =>   4
Atom   7C    basis set group =>   4
Atom   8H    basis set group =>   3
Atom   9C    basis set group =>   4
Atom  10C    basis set group =>   4
Atom  11C    basis set group =>   4
Atom  12C    basis set group =>   4
Atom  13C    basis set group =>   4
Atom  14C    basis set group =>   4
Atom  15C    basis set group =>   4
Atom  16C    basis set group =>   4
Atom  17C    basis set group =>   4
Atom  18C    basis set group =>   4
Atom  19C    basis set group =>   4
Atom  20C    basis set group =>   4
Atom  21H    basis set group =>   3
Atom  22H    basis set group =>   3
Atom  23H    basis set group =>   3
Atom  24H    basis set group =>   3
Atom  25H    basis set group =>   3
Atom  26H    basis set group =>   3
Atom  27H    basis set group =>   3
Atom  28H    basis set group =>   3
Atom  29H    basis set group =>   3
Atom  30H    basis set group =>   3
Atom  31H    basis set group =>   3
Atom  32H    basis set group =>   3
Atom  33H    basis set group =>   3
Atom  34H    basis set group =>   3
Atom  35H    basis set group =>   3
Atom  36H    basis set group =>   3
Atom  37H    basis set group =>   3
Atom  38H    basis set group =>   3
Atom  39H    basis set group =>   3
Atom  40H    basis set group =>   3
Atom  41H    basis set group =>   3
Atom  42H    basis set group =>   3
Atom  43H    basis set group =>   3
Atom  44H    basis set group =>   3
Atom  45H    basis set group =>   3
Atom  46H    basis set group =>   3
Atom  47H    basis set group =>   3
Atom  48H    basis set group =>   3
Atom  49H    basis set group =>   3
Atom  50H    basis set group =>   3
Atom  51H    basis set group =>   3
Atom  52H    basis set group =>   3
Atom  53H    basis set group =>   3
Atom  54H    basis set group =>   3
Atom  55H    basis set group =>   3
Atom  56H    basis set group =>   3
Atom  57H    basis set group =>   3
Atom  58H    basis set group =>   3
-------------------------
ECP PARAMETER INFORMATION
-------------------------

 Group 1, Type Ru ECP Def2-ECP (replacing 28 core electrons, lmax=3)

Atom   0Ru   ECP group =>   1



           ************************************************************
           *        Program running with 24 parallel MPI-processes    *
           *              working on a common directory               *
           ************************************************************
------------------------------------------------------------------------------
                           ORCA GTO INTEGRAL CALCULATION
                           -- RI-GTO INTEGRALS CHOSEN --
------------------------------------------------------------------------------

                         BASIS SET STATISTICS AND STARTUP INFO

Gaussian basis set:
 # of primitive gaussian shells          ...  806
 # of primitive gaussian functions       ... 1840
 # of contracted shells                  ...  542
 # of contracted basis functions         ... 1446
 Highest angular momentum                ...    4
 Maximum contraction depth               ...    7
Auxiliary gaussian basis set:
 # of primitive gaussian shells          ... 1009
 # of primitive gaussian functions       ... 2989
 # of contracted shells                  ...  791
 # of contracted aux-basis functions     ... 2537
 Highest angular momentum                ...    6
 Maximum contraction depth               ...    5
Ratio of auxiliary to basis functions    ...  1.75
Integral package used                  ... LIBINT
 One Electron integrals                  
   ECP integrals                         ... done
 Ordering auxiliary basis shells         ... done
 Integral threshhold             Thresh  ...  1.000e-10
 Primitive cut-off               TCut    ...  1.000e-11
 Pre-screening matrix                    ... done
 Shell pair data                         ... 
 Ordering of the shell pairs             ... done (   0.024 sec) 115393 of 147153 pairs
 Determination of significant pairs      ... done (   0.001 sec)
 Creation of shell pair data             ... done (   0.011 sec)
 Storage of shell pair data              ... done (   0.019 sec)
 Shell pair data done in (   0.054 sec)
 Computing two index integrals           ... done
 Cholesky decomposition of the V-matrix  ... done


Timings:
 Total evaluation time                   ...   9.539 sec (  0.159 min)
 One electron matrix time                ...   8.202 sec (  0.137 min) = 86.0%
 Schwartz matrix evaluation time         ...   0.730 sec (  0.012 min) =  7.7%
 Two index repulsion integral time       ...   0.232 sec (  0.004 min) =  2.4%
 Cholesky decomposition of V             ...   0.290 sec (  0.005 min) =  3.0%
 Three index repulsion integral time     ...   0.000 sec (  0.000 min) =  0.0%



           ************************************************************
           *        Program running with 24 parallel MPI-processes    *
           *              working on a common directory               *
           ************************************************************
-------------------------------------------------------------------------------
                                 ORCA SCF
-------------------------------------------------------------------------------

------------
SCF SETTINGS
------------
Hamiltonian:
 Density Functional     Method          .... DFT(GTOs)
 Exchange Functional    Exchange        .... B88
   X-Alpha parameter    XAlpha          ....  0.666667
   Becke's b parameter  XBeta           ....  0.004200
 Correlation Functional Correlation     .... LYP
 LDA part of GGA corr.  LDAOpt          .... VWN-3
 Gradients option       PostSCFGGA      .... off
 Hybrid DFT is turned on
   Fraction HF Exchange ScalHFX         ....  0.530000
   Scaling of DF-GGA-X  ScalDFX         ....  0.470000
   Scaling of DF-GGA-C  ScalDFC         ....  0.730000
   Scaling of DF-LDA-C  ScalLDAC        ....  0.730000
   Perturbative correction              ....  0.270000
   Density functional embedding theory  .... OFF
 RI-approximation to the Coulomb term is turned on
   Number of auxiliary basis functions  .... 2537
   RI-JK (J+K treated both via RI)      .... on


General Settings:
 Integral files         IntName         .... MOR16_ed33
 Hartree-Fock type      HFTyp           .... RHF
 Total Charge           Charge          ....    0
 Multiplicity           Mult            ....    1
 Number of Electrons    NEL             ....  200
 Basis Dimension        Dim             .... 1446
 Nuclear Repulsion      ENuc            ....   2806.8724721201 Eh

Convergence Acceleration:
 DIIS                   CNVDIIS         .... on
   Start iteration      DIISMaxIt       ....    12
   Startup error        DIISStart       ....  0.200000
   # of expansion vecs  DIISMaxEq       ....     5
   Bias factor          DIISBfac        ....   1.050
   Max. coefficient     DIISMaxC        ....  10.000
 Newton-Raphson         CNVNR           .... off
 SOSCF                  CNVSOSCF        .... off
 Level Shifting         CNVShift        .... on
   Level shift para.    LevelShift      ....    0.2500
   Turn off err/grad.   ShiftErr        ....    0.0010
 Zerner damping         CNVZerner       .... off
 Static damping         CNVDamp         .... on
   Fraction old density DampFac         ....    0.7000
   Max. Damping (<1)    DampMax         ....    0.9800
   Min. Damping (>=0)   DampMin         ....    0.0000
   Turn off err/grad.   DampErr         ....    0.1000
 Fernandez-Rico         CNVRico         .... off

SCF Procedure:
 Maximum # iterations   MaxIter         ....   125
 SCF integral mode      SCFMode         .... Direct
   Integral package                     .... LIBINT
 Reset frequency        DirectResetFreq ....    20
 Integral Threshold     Thresh          ....  1.000e-10 Eh
 Primitive CutOff       TCut            ....  1.000e-11 Eh

Convergence Tolerance:
 Convergence Check Mode ConvCheckMode   .... Total+1el-Energy
 Convergence forced     ConvForced      .... 0
 Energy Change          TolE            ....  1.000e-06 Eh
 1-El. energy change                    ....  1.000e-03 Eh
 DIIS Error             TolErr          ....  1.000e-06


Diagonalization of the overlap matrix:
Smallest eigenvalue                        ... 7.337e-07
Time for diagonalization                   ...    0.281 sec
Threshold for overlap eigenvalues          ... 1.000e-08
Number of eigenvalues below threshold      ... 0
Time for construction of square roots      ...    0.257 sec
Total time needed                          ...    0.545 sec

-------------------
DFT GRID GENERATION
-------------------

General Integration Accuracy     IntAcc      ...  4.670
Radial Grid Type                 RadialGrid  ... Gauss-Chebyshev
Angular Grid (max. acc.)         AngularGrid ... Lebedev-302
Angular grid pruning method      GridPruning ... 3 (G Style)
Weight generation scheme         WeightScheme... Becke
Basis function cutoff            BFCut       ...    1.0000e-10
Integration weight cutoff        WCut        ...    1.0000e-14
Grids for H and He will be reduced by one unit

# of grid points (after initial pruning)     ... 260626 (   0.0 sec)
# of grid points (after weights+screening)   ... 219551 (   0.3 sec)
nearest neighbour list constructed           ...    0.0 sec
Grid point re-assignment to atoms done       ...    0.0 sec
Grid point division into batches done        ...    0.6 sec
Reduced shell lists constructed in    2.0 sec

Total number of grid points                  ...   219551
Total number of batches                      ...     3458
Average number of points per batch           ...       63
Average number of grid points per atom       ...     3721
Average number of shells per batch           ...   329.74 (60.84%)
Average number of basis functions per batch  ...   857.84 (59.32%)
Average number of large shells per batch     ...   241.73 (73.31%)
Average number of large basis fcns per batch ...   633.62 (73.86%)
Average number of aux-shells per batch       ...   329.74 (41.69%)
Average number of aux functions per batch    ...   857.84 (33.81%)
Maximum spatial batch extension              ...   2.76,  2.45,  3.92 au
Average spatial batch extension              ...   0.04,  0.05,  0.05 au

Time for grid setup =    2.320 sec

------------------------------
INITIAL GUESS: MODEL POTENTIAL
------------------------------
Loading Hartree-Fock densities                     ... done
  calling /sw/apps/orca/orca_4_2_0_linux_x86-64_openmpi314/orca MOR16_ed33_atom44.inp > MOR16_ed33_atom44.out in order to generate an atomic fitting density for atom 0 (Ru with ECP) on-the-fly... 
    atom 0 (Ru), assumed electronic state with S=5: 1s2 2s2 2p6 3s2 3p6 4s2 3d10 4p6 5s2 4d6           ... done
Calculating cut-offs                               ... done
Setting up the integral package                    ... done
Initializing the effective Hamiltonian             ... done
Starting the Coulomb interaction                   ... done (   0.4 sec)
Reading the grid                                   ... done
Mapping shells                                     ... done
Starting the XC term evaluation                    ... done (   1.3 sec)
  promolecular density results
     # of electrons  =    227.979369328
     EX              =   -303.891940546
     EC              =     -3.015937883
     EX+EC           =   -306.907878429
Transforming the Hamiltonian                       ... done (   0.2 sec)
Diagonalizing the Hamiltonian                      ... done (   0.3 sec)
Back transforming the eigenvectors                 ... done (   0.1 sec)
Now organizing SCF variables                       ... done
                      ------------------
                      INITIAL GUESS DONE (   5.7 sec)
                      ------------------
--------------
SCF ITERATIONS
--------------
ITER       Energy         Delta-E        Max-DP      RMS-DP      [F,P]     Damp
  0  -2014.7840039738   0.000000000000 0.32934797  0.00142191  0.4036713 0.7000
  1  -2014.6757216680   0.108282305858 0.28384102  0.00129972  0.2961220 0.7000
  2  -2014.9212847856  -0.245563117651 0.24173219  0.00094572  0.2079151 0.7000
                               ***Turning on DIIS***
  3  -2015.2516146472  -0.330329861545 0.18465076  0.00067756  0.1434874 0.7000
  4  -2015.5328762769  -0.281261629718 0.42887511  0.00158692  0.0977888 0.0000
  5  -2015.8363620617  -0.303485784857 0.12402304  0.00047589  0.0315807 0.0000
  6  -2015.8445011598  -0.008139098080 0.06484344  0.00018544  0.0225620 0.0000
  7  -2015.8482094492  -0.003708289384 0.59504569  0.00058986  0.0148978 0.0000
  8  -2015.8498804704  -0.001671021225 1.63802921  0.00158165  0.0087342 0.0000
  9  -2015.8508129100  -0.000932439552 0.49201240  0.00048190  0.0047851 0.0000
 10  -2015.8508896461  -0.000076736100 0.51370836  0.00050122  0.0009647 0.0000
 11  -2015.8509005902  -0.000010944180 0.37159697  0.00035261  0.0006010 0.0000
 12  -2015.8509018112  -0.000001220967 0.31665711  0.00031460  0.0004627 0.0000
 13  -2015.8509026986  -0.000000887382 0.09371087  0.00011986  0.0000821 0.0000
                 **** Energy Check signals convergence ****

               *****************************************************
               *                     SUCCESS                       *
               *           SCF CONVERGED AFTER  14 CYCLES          *
               *****************************************************


----------------
TOTAL SCF ENERGY
----------------

Total Energy       :        -2015.85090271 Eh          -54854.09179 eV

Components:
Nuclear Repulsion  :         2806.87247212 Eh           76378.88299 eV
Electronic Energy  :        -4822.72337483 Eh         -131232.97478 eV
One Electron Energy:        -8399.43516638 Eh         -228560.25066 eV
Two Electron Energy:         3576.71179155 Eh           97327.27587 eV

Virial components:
Potential Energy   :        -3966.92761666 Eh         -107945.58830 eV
Kinetic Energy     :         1951.07671395 Eh           53091.49651 eV
Virial Ratio       :            2.03319920


DFT components:
N(Alpha)           :       99.999486446421 electrons
N(Beta)            :       99.999486446421 electrons
N(Total)           :      199.998972892842 electrons
E(X)               :      -87.919103954078 Eh       
E(C)               :       -5.104929564181 Eh       
E(XC)              :      -93.024033518259 Eh       
DFET-embed. en.    :        0.000000000000 Eh       

---------------
SCF CONVERGENCE
---------------

  Last Energy change         ...   -1.4833e-08  Tolerance :   1.0000e-06
  Last MAX-Density change    ...    9.5175e-02  Tolerance :   1.0000e-05
  Last RMS-Density change    ...    1.0682e-04  Tolerance :   1.0000e-06
  Last DIIS Error            ...    6.2764e-05  Tolerance :   1.0000e-06

             **** THE GBW FILE WAS UPDATED (MOR16_ed33.gbw) ****
             **** DENSITY FILE WAS UPDATED (MOR16_ed33.scfp) ****
             **** ENERGY FILE WAS UPDATED (MOR16_ed33.en.tmp) ****
             **** THE GBW FILE WAS UPDATED (MOR16_ed33.gbw) ****
             **** DENSITY FILE WAS UPDATED (MOR16_ed33.scfp) ****
----------------
ORBITAL ENERGIES
----------------

  NO   OCC          E(Eh)            E(eV) 
   0   2.0000     -78.269992     -2129.8347 
   1   2.0000     -78.268304     -2129.7888 
   2   2.0000     -78.266129     -2129.7296 
   3   2.0000     -78.263002     -2129.6445 
   4   2.0000     -10.604451      -288.5618 
   5   2.0000     -10.601772      -288.4889 
   6   2.0000     -10.601485      -288.4811 
   7   2.0000     -10.600954      -288.4666 
   8   2.0000     -10.600953      -288.4666 
   9   2.0000     -10.599580      -288.4292 
  10   2.0000     -10.598566      -288.4016 
  11   2.0000     -10.598204      -288.3918 
  12   2.0000     -10.598026      -288.3870 
  13   2.0000     -10.597835      -288.3818 
  14   2.0000     -10.594448      -288.2896 
  15   2.0000     -10.594273      -288.2848 
  16   2.0000     -10.559433      -287.3368 
  17   2.0000     -10.552264      -287.1417 
  18   2.0000      -6.935478      -188.7240 
  19   2.0000      -6.933856      -188.6798 
  20   2.0000      -6.930335      -188.5840 
  21   2.0000      -6.927243      -188.4999 
  22   2.0000      -4.987108      -135.7061 
  23   2.0000      -4.986908      -135.7007 
  24   2.0000      -4.985456      -135.6612 
  25   2.0000      -4.985274      -135.6562 
  26   2.0000      -4.984066      -135.6233 
  27   2.0000      -4.982414      -135.5784 
  28   2.0000      -4.982097      -135.5697 
  29   2.0000      -4.981741      -135.5601 
  30   2.0000      -4.978997      -135.4854 
  31   2.0000      -4.978918      -135.4833 
  32   2.0000      -4.978750      -135.4787 
  33   2.0000      -4.975964      -135.4029 
  34   2.0000      -3.168359       -86.2154 
  35   2.0000      -1.953447       -53.1560 
  36   2.0000      -1.948221       -53.0138 
  37   2.0000      -1.942751       -52.8649 
  38   2.0000      -0.877603       -23.8808 
  39   2.0000      -0.871122       -23.7044 
  40   2.0000      -0.864176       -23.5154 
  41   2.0000      -0.862124       -23.4596 
  42   2.0000      -0.809507       -22.0278 
  43   2.0000      -0.794400       -21.6167 
  44   2.0000      -0.792300       -21.5596 
  45   2.0000      -0.791108       -21.5271 
  46   2.0000      -0.784701       -21.3528 
  47   2.0000      -0.782789       -21.3008 
  48   2.0000      -0.782321       -21.2880 
  49   2.0000      -0.781617       -21.2689 
  50   2.0000      -0.779937       -21.2232 
  51   2.0000      -0.629236       -17.1224 
  52   2.0000      -0.626950       -17.0602 
  53   2.0000      -0.611075       -16.6282 
  54   2.0000      -0.607207       -16.5229 
  55   2.0000      -0.605264       -16.4701 
  56   2.0000      -0.526679       -14.3317 
  57   2.0000      -0.523851       -14.2547 
  58   2.0000      -0.515707       -14.0331 
  59   2.0000      -0.509391       -13.8612 
  60   2.0000      -0.503070       -13.6892 
  61   2.0000      -0.499735       -13.5985 
  62   2.0000      -0.496273       -13.5043 
  63   2.0000      -0.493111       -13.4182 
  64   2.0000      -0.487830       -13.2745 
  65   2.0000      -0.484097       -13.1729 
  66   2.0000      -0.479766       -13.0551 
  67   2.0000      -0.475800       -12.9472 
  68   2.0000      -0.473801       -12.8928 
  69   2.0000      -0.462911       -12.5964 
  70   2.0000      -0.459376       -12.5002 
  71   2.0000      -0.457572       -12.4512 
  72   2.0000      -0.454060       -12.3556 
  73   2.0000      -0.451711       -12.2917 
  74   2.0000      -0.450361       -12.2549 
  75   2.0000      -0.448187       -12.1958 
  76   2.0000      -0.445338       -12.1183 
  77   2.0000      -0.443654       -12.0724 
  78   2.0000      -0.442233       -12.0338 
  79   2.0000      -0.439808       -11.9678 
  80   2.0000      -0.437256       -11.8983 
  81   2.0000      -0.433564       -11.7979 
  82   2.0000      -0.392711       -10.6862 
  83   2.0000      -0.389859       -10.6086 
  84   2.0000      -0.383799       -10.4437 
  85   2.0000      -0.380330       -10.3493 
  86   2.0000      -0.376459       -10.2440 
  87   2.0000      -0.373950       -10.1757 
  88   2.0000      -0.369878       -10.0649 
  89   2.0000      -0.368443       -10.0258 
  90   2.0000      -0.365604        -9.9486 
  91   2.0000      -0.364007        -9.9051 
  92   2.0000      -0.340453        -9.2642 
  93   2.0000      -0.334014        -9.0890 
  94   2.0000      -0.289558        -7.8793 
  95   2.0000      -0.277360        -7.5473 
  96   2.0000      -0.241371        -6.5680 
  97   2.0000      -0.235821        -6.4170 
  98   2.0000      -0.210496        -5.7279 
  99   2.0000      -0.181053        -4.9267 
 100   0.0000       0.020768         0.5651 
 101   0.0000       0.033649         0.9156 
 102   0.0000       0.036442         0.9916 
 103   0.0000       0.039427         1.0729 
 104   0.0000       0.051888         1.4120 
 105   0.0000       0.053138         1.4460 
 106   0.0000       0.055181         1.5015 
 107   0.0000       0.056060         1.5255 
 108   0.0000       0.063587         1.7303 
 109   0.0000       0.071795         1.9536 
 110   0.0000       0.072058         1.9608 
 111   0.0000       0.074536         2.0282 
 112   0.0000       0.077059         2.0969 
 113   0.0000       0.078998         2.1496 
 114   0.0000       0.088014         2.3950 
 115   0.0000       0.088148         2.3986 
 116   0.0000       0.092057         2.5050 
 117   0.0000       0.095108         2.5880 
 118   0.0000       0.102541         2.7903 
 119   0.0000       0.105440         2.8692 
 120   0.0000       0.107492         2.9250 
 121   0.0000       0.112674         3.0660 
 122   0.0000       0.115121         3.1326 
 123   0.0000       0.117118         3.1870 
 124   0.0000       0.118002         3.2110 
 125   0.0000       0.122927         3.3450 
 126   0.0000       0.125846         3.4244 
 127   0.0000       0.130890         3.5617 
 128   0.0000       0.132389         3.6025 
 129   0.0000       0.136610         3.7173 
 130   0.0000       0.136785         3.7221 
 131   0.0000       0.140573         3.8252 
 132   0.0000       0.144116         3.9216 
 133   0.0000       0.145686         3.9643 
 134   0.0000       0.148370         4.0374 
 135   0.0000       0.150563         4.0970 
 136   0.0000       0.153061         4.1650 
 137   0.0000       0.154949         4.2164 
 138   0.0000       0.156365         4.2549 
 139   0.0000       0.157723         4.2919 
 140   0.0000       0.160956         4.3798 
 141   0.0000       0.163072         4.4374 
 142   0.0000       0.167059         4.5459 
 143   0.0000       0.169301         4.6069 
 144   0.0000       0.172911         4.7051 
 145   0.0000       0.174513         4.7487 
 146   0.0000       0.177354         4.8260 
 147   0.0000       0.180228         4.9043 
 148   0.0000       0.181412         4.9365 
 149   0.0000       0.184247         5.0136 
 150   0.0000       0.185970         5.0605 
 151   0.0000       0.189180         5.1478 
 152   0.0000       0.189771         5.1639 
 153   0.0000       0.193997         5.2789 
 154   0.0000       0.195158         5.3105 
 155   0.0000       0.197585         5.3765 
 156   0.0000       0.200317         5.4509 
 157   0.0000       0.205249         5.5851 
 158   0.0000       0.208225         5.6661 
 159   0.0000       0.210287         5.7222 
 160   0.0000       0.214605         5.8397 
 161   0.0000       0.216579         5.8934 
 162   0.0000       0.217584         5.9208 
 163   0.0000       0.222102         6.0437 
 164   0.0000       0.224610         6.1119 
 165   0.0000       0.226032         6.1506 
 166   0.0000       0.227691         6.1958 
 167   0.0000       0.229685         6.2500 
 168   0.0000       0.235763         6.4154 
 169   0.0000       0.237651         6.4668 
 170   0.0000       0.240567         6.5462 
 171   0.0000       0.243268         6.6197 
 172   0.0000       0.245140         6.6706 
 173   0.0000       0.247804         6.7431 
 174   0.0000       0.251987         6.8569 
 175   0.0000       0.253533         6.8990 
 176   0.0000       0.256378         6.9764 
 177   0.0000       0.259168         7.0523 
 178   0.0000       0.261474         7.1151 
 179   0.0000       0.264412         7.1950 
 180   0.0000       0.267216         7.2713 
 181   0.0000       0.267972         7.2919 
 182   0.0000       0.269463         7.3325 
 183   0.0000       0.271145         7.3782 
 184   0.0000       0.272058         7.4031 
 185   0.0000       0.273681         7.4472 
 186   0.0000       0.280341         7.6285 
 187   0.0000       0.281252         7.6533 
 188   0.0000       0.283543         7.7156 
 189   0.0000       0.286353         7.7921 
 190   0.0000       0.287636         7.8270 
 191   0.0000       0.291556         7.9336 
 192   0.0000       0.293585         7.9888 
 193   0.0000       0.297815         8.1040 
 194   0.0000       0.299595         8.1524 
 195   0.0000       0.301288         8.1985 
 196   0.0000       0.302455         8.2302 
 197   0.0000       0.304366         8.2822 
 198   0.0000       0.306347         8.3361 
 199   0.0000       0.309259         8.4154 
 200   0.0000       0.311358         8.4725 
 201   0.0000       0.313081         8.5194 
 202   0.0000       0.316255         8.6057 
 203   0.0000       0.318025         8.6539 
 204   0.0000       0.320344         8.7170 
 205   0.0000       0.324297         8.8246 
 206   0.0000       0.325350         8.8532 
 207   0.0000       0.327620         8.9150 
 208   0.0000       0.329964         8.9788 
 209   0.0000       0.331460         9.0195 
 210   0.0000       0.332828         9.0567 
 211   0.0000       0.334737         9.1087 
 212   0.0000       0.337097         9.1729 
 213   0.0000       0.339604         9.2411 
 214   0.0000       0.341349         9.2886 
 215   0.0000       0.342981         9.3330 
 216   0.0000       0.344485         9.3739 
 217   0.0000       0.346958         9.4412 
 218   0.0000       0.350477         9.5370 
 219   0.0000       0.351075         9.5532 
 220   0.0000       0.354943         9.6585 
 221   0.0000       0.357092         9.7170 
 222   0.0000       0.360589         9.8121 
 223   0.0000       0.363711         9.8971 
 224   0.0000       0.366782         9.9806 
 225   0.0000       0.367272         9.9940 
 226   0.0000       0.368075        10.0158 
 227   0.0000       0.371075        10.0975 
 228   0.0000       0.374438        10.1890 
 229   0.0000       0.375866        10.2278 
 230   0.0000       0.377029        10.2595 
 231   0.0000       0.379284        10.3208 
 232   0.0000       0.380861        10.3638 
 233   0.0000       0.382623        10.4117 
 234   0.0000       0.384773        10.4702 
 235   0.0000       0.387373        10.5410 
 236   0.0000       0.389230        10.5915 
 237   0.0000       0.390353        10.6220 
 238   0.0000       0.394005        10.7214 
 239   0.0000       0.395571        10.7640 
 240   0.0000       0.398685        10.8488 
 241   0.0000       0.401148        10.9158 
 242   0.0000       0.402936        10.9644 
 243   0.0000       0.405929        11.0459 
 244   0.0000       0.409231        11.1357 
 245   0.0000       0.412564        11.2264 
 246   0.0000       0.413515        11.2523 
 247   0.0000       0.416842        11.3428 
 248   0.0000       0.421326        11.4649 
 249   0.0000       0.424167        11.5422 
 250   0.0000       0.425341        11.5741 
 251   0.0000       0.428402        11.6574 
 252   0.0000       0.430049        11.7022 
 253   0.0000       0.430633        11.7181 
 254   0.0000       0.434497        11.8233 
 255   0.0000       0.435945        11.8627 
 256   0.0000       0.439542        11.9605 
 257   0.0000       0.440901        11.9975 
 258   0.0000       0.443798        12.0764 
 259   0.0000       0.444418        12.0932 
 260   0.0000       0.447677        12.1819 
 261   0.0000       0.450206        12.2507 
 262   0.0000       0.451244        12.2790 
 263   0.0000       0.453093        12.3293 
 264   0.0000       0.455817        12.4034 
 265   0.0000       0.457442        12.4476 
 266   0.0000       0.460157        12.5215 
 267   0.0000       0.461885        12.5685 
 268   0.0000       0.464451        12.6383 
 269   0.0000       0.465685        12.6719 
 270   0.0000       0.466701        12.6996 
 271   0.0000       0.471392        12.8272 
 272   0.0000       0.473414        12.8823 
 273   0.0000       0.475502        12.9391 
 274   0.0000       0.479177        13.0391 
 275   0.0000       0.481987        13.1155 
 276   0.0000       0.482935        13.1413 
 277   0.0000       0.487348        13.2614 
 278   0.0000       0.489074        13.3084 
 279   0.0000       0.490794        13.3552 
 280   0.0000       0.493234        13.4216 
 281   0.0000       0.495595        13.4858 
 282   0.0000       0.496655        13.5147 
 283   0.0000       0.498488        13.5645 
 284   0.0000       0.504181        13.7194 
 285   0.0000       0.506316        13.7776 
 286   0.0000       0.508520        13.8375 
 287   0.0000       0.509939        13.8761 
 288   0.0000       0.512918        13.9572 
 289   0.0000       0.516865        14.0646 
 290   0.0000       0.517826        14.0908 
 291   0.0000       0.519349        14.1322 
 292   0.0000       0.522342        14.2137 
 293   0.0000       0.526511        14.3271 
 294   0.0000       0.528648        14.3852 
 295   0.0000       0.531583        14.4651 
 296   0.0000       0.533508        14.5175 
 297   0.0000       0.534916        14.5558 
 298   0.0000       0.536398        14.5961 
 299   0.0000       0.537167        14.6171 
 300   0.0000       0.540043        14.6953 
 301   0.0000       0.542709        14.7679 
 302   0.0000       0.546190        14.8626 
 303   0.0000       0.548337        14.9210 
 304   0.0000       0.549831        14.9617 
 305   0.0000       0.551850        15.0166 
 306   0.0000       0.557351        15.1663 
 307   0.0000       0.559407        15.2222 
 308   0.0000       0.560043        15.2395 
 309   0.0000       0.563491        15.3334 
 310   0.0000       0.565547        15.3893 
 311   0.0000       0.567380        15.4392 
 312   0.0000       0.570472        15.5233 
 313   0.0000       0.574685        15.6380 
 314   0.0000       0.578165        15.7327 
 315   0.0000       0.581104        15.8126 
 316   0.0000       0.586420        15.9573 
 317   0.0000       0.589928        16.0528 
 318   0.0000       0.590301        16.0629 
 319   0.0000       0.596013        16.2183 
 320   0.0000       0.597347        16.2546 
 321   0.0000       0.598283        16.2801 
 322   0.0000       0.600976        16.3534 
 323   0.0000       0.601805        16.3759 
 324   0.0000       0.605932        16.4882 
 325   0.0000       0.607969        16.5437 
 326   0.0000       0.613398        16.6914 
 327   0.0000       0.614407        16.7189 
 328   0.0000       0.617628        16.8065 
 329   0.0000       0.618453        16.8290 
 330   0.0000       0.620164        16.8755 
 331   0.0000       0.621723        16.9179 
 332   0.0000       0.624298        16.9880 
 333   0.0000       0.625932        17.0325 
 334   0.0000       0.630625        17.1602 
 335   0.0000       0.633230        17.2311 
 336   0.0000       0.636025        17.3071 
 337   0.0000       0.639670        17.4063 
 338   0.0000       0.640023        17.4159 
 339   0.0000       0.642381        17.4801 
 340   0.0000       0.648647        17.6506 
 341   0.0000       0.649346        17.6696 
 342   0.0000       0.651383        17.7250 
 343   0.0000       0.655140        17.8273 
 344   0.0000       0.656539        17.8653 
 345   0.0000       0.659712        17.9517 
 346   0.0000       0.662504        18.0276 
 347   0.0000       0.664085        18.0707 
 348   0.0000       0.666512        18.1367 
 349   0.0000       0.668683        18.1958 
 350   0.0000       0.669707        18.2237 
 351   0.0000       0.670649        18.2493 
 352   0.0000       0.674277        18.3480 
 353   0.0000       0.677919        18.4471 
 354   0.0000       0.678823        18.4717 
 355   0.0000       0.679917        18.5015 
 356   0.0000       0.684819        18.6349 
 357   0.0000       0.686582        18.6828 
 358   0.0000       0.688460        18.7339 
 359   0.0000       0.691319        18.8118 
 360   0.0000       0.694250        18.8915 
 361   0.0000       0.696996        18.9662 
 362   0.0000       0.699479        19.0338 
 363   0.0000       0.702593        19.1185 
 364   0.0000       0.703885        19.1537 
 365   0.0000       0.706575        19.2269 
 366   0.0000       0.706818        19.2335 
 367   0.0000       0.710132        19.3237 
 368   0.0000       0.712280        19.3821 
 369   0.0000       0.714377        19.4392 
 370   0.0000       0.715844        19.4791 
 371   0.0000       0.717984        19.5373 
 372   0.0000       0.718993        19.5648 
 373   0.0000       0.723422        19.6853 
 374   0.0000       0.725641        19.7457 
 375   0.0000       0.727876        19.8065 
 376   0.0000       0.730391        19.8749 
 377   0.0000       0.734963        19.9994 
 378   0.0000       0.736866        20.0511 
 379   0.0000       0.740941        20.1620 
 380   0.0000       0.742096        20.1935 
 381   0.0000       0.744275        20.2528 
 382   0.0000       0.745370        20.2825 
 383   0.0000       0.751138        20.4395 
 384   0.0000       0.752255        20.4699 
 385   0.0000       0.753738        20.5102 
 386   0.0000       0.755164        20.5491 
 387   0.0000       0.757642        20.6165 
 388   0.0000       0.758777        20.6474 
 389   0.0000       0.763358        20.7720 
 390   0.0000       0.765012        20.8170 
 391   0.0000       0.765515        20.8307 
 392   0.0000       0.767393        20.8818 
 393   0.0000       0.768883        20.9224 
 394   0.0000       0.772307        21.0155 
 395   0.0000       0.773176        21.0392 
 396   0.0000       0.775496        21.1023 
 397   0.0000       0.776814        21.1382 
 398   0.0000       0.779111        21.2007 
 399   0.0000       0.781645        21.2696 
 400   0.0000       0.781940        21.2777 
 401   0.0000       0.783490        21.3198 
 402   0.0000       0.784934        21.3591 
 403   0.0000       0.787322        21.4241 
 404   0.0000       0.789154        21.4740 
 405   0.0000       0.789871        21.4935 
 406   0.0000       0.793508        21.5925 
 407   0.0000       0.794656        21.6237 
 408   0.0000       0.796104        21.6631 
 409   0.0000       0.797617        21.7043 
 410   0.0000       0.800420        21.7805 
 411   0.0000       0.802968        21.8499 
 412   0.0000       0.805269        21.9125 
 413   0.0000       0.806965        21.9586 
 414   0.0000       0.809468        22.0267 
 415   0.0000       0.810996        22.0683 
 416   0.0000       0.813641        22.1403 
 417   0.0000       0.815428        22.1889 
 418   0.0000       0.818596        22.2751 
 419   0.0000       0.818919        22.2839 
 420   0.0000       0.820504        22.3271 
 421   0.0000       0.823536        22.4096 
 422   0.0000       0.829126        22.5617 
 423   0.0000       0.829871        22.5819 
 424   0.0000       0.830599        22.6017 
 425   0.0000       0.835443        22.7336 
 426   0.0000       0.836482        22.7618 
 427   0.0000       0.838973        22.8296 
 428   0.0000       0.840287        22.8654 
 429   0.0000       0.841852        22.9079 
 430   0.0000       0.846039        23.0219 
 431   0.0000       0.849618        23.1193 
 432   0.0000       0.852225        23.1902 
 433   0.0000       0.856153        23.2971 
 434   0.0000       0.857063        23.3219 
 435   0.0000       0.861030        23.4298 
 436   0.0000       0.862631        23.4734 
 437   0.0000       0.863089        23.4859 
 438   0.0000       0.864760        23.5313 
 439   0.0000       0.867701        23.6114 
 440   0.0000       0.870923        23.6990 
 441   0.0000       0.875772        23.8310 
 442   0.0000       0.877938        23.8899 
 443   0.0000       0.879613        23.9355 
 444   0.0000       0.880400        23.9569 
 445   0.0000       0.887060        24.1381 
 446   0.0000       0.887619        24.1533 
 447   0.0000       0.890223        24.2242 
 448   0.0000       0.893258        24.3068 
 449   0.0000       0.894506        24.3407 
 450   0.0000       0.898164        24.4403 
 451   0.0000       0.900416        24.5016 
 452   0.0000       0.903909        24.5966 
 453   0.0000       0.905830        24.6489 
 454   0.0000       0.907921        24.7058 
 455   0.0000       0.908750        24.7284 
 456   0.0000       0.909404        24.7462 
 457   0.0000       0.915859        24.9218 
 458   0.0000       0.917967        24.9792 
 459   0.0000       0.918722        24.9997 
 460   0.0000       0.923960        25.1422 
 461   0.0000       0.924976        25.1699 
 462   0.0000       0.926822        25.2201 
 463   0.0000       0.931832        25.3564 
 464   0.0000       0.935414        25.4539 
 465   0.0000       0.937267        25.5043 
 466   0.0000       0.942245        25.6398 
 467   0.0000       0.943753        25.6808 
 468   0.0000       0.949593        25.8398 
 469   0.0000       0.950478        25.8638 
 470   0.0000       0.951382        25.8884 
 471   0.0000       0.953690        25.9512 
 472   0.0000       0.957614        26.0580 
 473   0.0000       0.959927        26.1209 
 474   0.0000       0.962716        26.1968 
 475   0.0000       0.964829        26.2543 
 476   0.0000       0.965927        26.2842 
 477   0.0000       0.970379        26.4054 
 478   0.0000       0.975471        26.5439 
 479   0.0000       0.979152        26.6441 
 480   0.0000       0.980491        26.6805 
 481   0.0000       0.984336        26.7852 
 482   0.0000       0.988401        26.8958 
 483   0.0000       0.991556        26.9816 
 484   0.0000       0.992832        27.0163 
 485   0.0000       0.997439        27.1417 
 486   0.0000       1.004954        27.3462 
 487   0.0000       1.007265        27.4091 
 488   0.0000       1.009669        27.4745 
 489   0.0000       1.013292        27.5731 
 490   0.0000       1.016133        27.6504 
 491   0.0000       1.023823        27.8596 
 492   0.0000       1.025237        27.8981 
 493   0.0000       1.026119        27.9221 
 494   0.0000       1.031281        28.0626 
 495   0.0000       1.036576        28.2067 
 496   0.0000       1.038526        28.2597 
 497   0.0000       1.041901        28.3516 
 498   0.0000       1.046317        28.4717 
 499   0.0000       1.049751        28.5652 
 500   0.0000       1.051638        28.6165 
 501   0.0000       1.055243        28.7146 
 502   0.0000       1.059256        28.8238 
 503   0.0000       1.069133        29.0926 
 504   0.0000       1.072099        29.1733 
 505   0.0000       1.073869        29.2215 
 506   0.0000       1.078204        29.3394 
 507   0.0000       1.084758        29.5178 
 508   0.0000       1.092438        29.7267 
 509   0.0000       1.093565        29.7574 
 510   0.0000       1.098589        29.8941 
 511   0.0000       1.106978        30.1224 
 512   0.0000       1.107252        30.1298 
 513   0.0000       1.107859        30.1464 
 514   0.0000       1.110476        30.2176 
 515   0.0000       1.117598        30.4114 
 516   0.0000       1.123971        30.5848 
 517   0.0000       1.126046        30.6413 
 518   0.0000       1.132190        30.8084 
 519   0.0000       1.133400        30.8414 
 520   0.0000       1.142093        31.0779 
 521   0.0000       1.151370        31.3304 
 522   0.0000       1.152462        31.3601 
 523   0.0000       1.153823        31.3971 
 524   0.0000       1.157082        31.4858 
 525   0.0000       1.165148        31.7053 
 526   0.0000       1.166762        31.7492 
 527   0.0000       1.173094        31.9215 
 528   0.0000       1.175074        31.9754 
 529   0.0000       1.182053        32.1653 
 530   0.0000       1.183880        32.2150 
 531   0.0000       1.186404        32.2837 
 532   0.0000       1.196652        32.5626 
 533   0.0000       1.202100        32.7108 
 534   0.0000       1.204091        32.7650 
 535   0.0000       1.207781        32.8654 
 536   0.0000       1.214009        33.0349 
 537   0.0000       1.215116        33.0650 
 538   0.0000       1.221222        33.2312 
 539   0.0000       1.224064        33.3085 
 540   0.0000       1.227788        33.4098 
 541   0.0000       1.233846        33.5747 
 542   0.0000       1.235252        33.6129 
 543   0.0000       1.242546        33.8114 
 544   0.0000       1.243764        33.8445 
 545   0.0000       1.248815        33.9820 
 546   0.0000       1.253915        34.1208 
 547   0.0000       1.263054        34.3694 
 548   0.0000       1.265754        34.4429 
 549   0.0000       1.270424        34.5700 
 550   0.0000       1.277786        34.7703 
 551   0.0000       1.280917        34.8555 
 552   0.0000       1.284554        34.9545 
 553   0.0000       1.290644        35.1202 
 554   0.0000       1.292162        35.1615 
 555   0.0000       1.296003        35.2660 
 556   0.0000       1.300028        35.3756 
 557   0.0000       1.302598        35.4455 
 558   0.0000       1.310007        35.6471 
 559   0.0000       1.315048        35.7843 
 560   0.0000       1.316809        35.8322 
 561   0.0000       1.322001        35.9735 
 562   0.0000       1.325596        36.0713 
 563   0.0000       1.328050        36.1381 
 564   0.0000       1.329617        36.1807 
 565   0.0000       1.334234        36.3064 
 566   0.0000       1.343105        36.5477 
 567   0.0000       1.349657        36.7260 
 568   0.0000       1.358583        36.9689 
 569   0.0000       1.360721        37.0271 
 570   0.0000       1.362866        37.0855 
 571   0.0000       1.368781        37.2464 
 572   0.0000       1.370300        37.2878 
 573   0.0000       1.372577        37.3497 
 574   0.0000       1.375864        37.4391 
 575   0.0000       1.380579        37.5675 
 576   0.0000       1.388289        37.7773 
 577   0.0000       1.389021        37.7972 
 578   0.0000       1.391624        37.8680 
 579   0.0000       1.395751        37.9803 
 580   0.0000       1.404217        38.2107 
 581   0.0000       1.408070        38.3155 
 582   0.0000       1.408629        38.3308 
 583   0.0000       1.412745        38.4427 
 584   0.0000       1.418978        38.6124 
 585   0.0000       1.422463        38.7072 
 586   0.0000       1.425308        38.7846 
 587   0.0000       1.430657        38.9302 
 588   0.0000       1.434301        39.0293 
 589   0.0000       1.441849        39.2347 
 590   0.0000       1.444700        39.3123 
 591   0.0000       1.447129        39.3784 
 592   0.0000       1.452412        39.5222 
 593   0.0000       1.453224        39.5442 
 594   0.0000       1.458405        39.6852 
 595   0.0000       1.463811        39.8323 
 596   0.0000       1.465640        39.8821 
 597   0.0000       1.471243        40.0346 
 598   0.0000       1.475145        40.1407 
 599   0.0000       1.478250        40.2252 
 600   0.0000       1.479074        40.2477 
 601   0.0000       1.480323        40.2816 
 602   0.0000       1.484619        40.3985 
 603   0.0000       1.489363        40.5276 
 604   0.0000       1.492043        40.6006 
 605   0.0000       1.496210        40.7139 
 606   0.0000       1.497603        40.7518 
 607   0.0000       1.499975        40.8164 
 608   0.0000       1.504357        40.9356 
 609   0.0000       1.509091        41.0644 
 610   0.0000       1.517976        41.3062 
 611   0.0000       1.522050        41.4171 
 612   0.0000       1.522709        41.4350 
 613   0.0000       1.524863        41.4936 
 614   0.0000       1.526515        41.5386 
 615   0.0000       1.530486        41.6466 
 616   0.0000       1.532948        41.7136 
 617   0.0000       1.536836        41.8194 
 618   0.0000       1.539991        41.9053 
 619   0.0000       1.545212        42.0473 
 620   0.0000       1.553473        42.2722 
 621   0.0000       1.557958        42.3942 
 622   0.0000       1.560149        42.4538 
 623   0.0000       1.562698        42.5232 
 624   0.0000       1.565000        42.5858 
 625   0.0000       1.570616        42.7386 
 626   0.0000       1.571156        42.7533 
 627   0.0000       1.574384        42.8412 
 628   0.0000       1.578909        42.9643 
 629   0.0000       1.586265        43.1645 
 630   0.0000       1.587035        43.1854 
 631   0.0000       1.593762        43.3685 
 632   0.0000       1.600196        43.5436 
 633   0.0000       1.603018        43.6203 
 634   0.0000       1.605681        43.6928 
 635   0.0000       1.609240        43.7896 
 636   0.0000       1.611567        43.8530 
 637   0.0000       1.613708        43.9112 
 638   0.0000       1.619239        44.0617 
 639   0.0000       1.620282        44.0901 
 640   0.0000       1.624667        44.2094 
 641   0.0000       1.627905        44.2975 
 642   0.0000       1.631195        44.3871 
 643   0.0000       1.634748        44.4838 
 644   0.0000       1.638864        44.5958 
 645   0.0000       1.640806        44.6486 
 646   0.0000       1.643920        44.7333 
 647   0.0000       1.644868        44.7591 
 648   0.0000       1.655289        45.0427 
 649   0.0000       1.656730        45.0819 
 650   0.0000       1.662873        45.2491 
 651   0.0000       1.666777        45.3553 
 652   0.0000       1.669094        45.4184 
 653   0.0000       1.673071        45.5266 
 654   0.0000       1.674956        45.5779 
 655   0.0000       1.680070        45.7170 
 656   0.0000       1.683991        45.8237 
 657   0.0000       1.686983        45.9051 
 658   0.0000       1.688734        45.9528 
 659   0.0000       1.693116        46.0720 
 660   0.0000       1.696488        46.1638 
 661   0.0000       1.700577        46.2751 
 662   0.0000       1.705322        46.4042 
 663   0.0000       1.708706        46.4963 
 664   0.0000       1.717295        46.7300 
 665   0.0000       1.718381        46.7595 
 666   0.0000       1.723132        46.8888 
 667   0.0000       1.726603        46.9833 
 668   0.0000       1.730189        47.0808 
 669   0.0000       1.731784        47.1242 
 670   0.0000       1.734964        47.2108 
 671   0.0000       1.736096        47.2416 
 672   0.0000       1.741792        47.3966 
 673   0.0000       1.746403        47.5220 
 674   0.0000       1.752137        47.6781 
 675   0.0000       1.756981        47.8099 
 676   0.0000       1.761109        47.9222 
 677   0.0000       1.763048        47.9750 
 678   0.0000       1.767117        48.0857 
 679   0.0000       1.768523        48.1240 
 680   0.0000       1.771763        48.2121 
 681   0.0000       1.778916        48.4068 
 682   0.0000       1.783164        48.5224 
 683   0.0000       1.785624        48.5893 
 684   0.0000       1.788121        48.6572 
 685   0.0000       1.790937        48.7339 
 686   0.0000       1.794608        48.8338 
 687   0.0000       1.796961        48.8978 
 688   0.0000       1.803985        49.0889 
 689   0.0000       1.806164        49.1482 
 690   0.0000       1.806291        49.1517 
 691   0.0000       1.808921        49.2232 
 692   0.0000       1.814248        49.3682 
 693   0.0000       1.818372        49.4804 
 694   0.0000       1.822575        49.5948 
 695   0.0000       1.831242        49.8306 
 696   0.0000       1.835763        49.9536 
 697   0.0000       1.842677        50.1418 
 698   0.0000       1.845354        50.2146 
 699   0.0000       1.847175        50.2642 
 700   0.0000       1.851770        50.3892 
 701   0.0000       1.856041        50.5055 
 702   0.0000       1.859205        50.5915 
 703   0.0000       1.862850        50.6907 
 704   0.0000       1.865424        50.7608 
 705   0.0000       1.869891        50.8823 
 706   0.0000       1.877888        51.0999 
 707   0.0000       1.881120        51.1879 
 708   0.0000       1.886282        51.3283 
 709   0.0000       1.889061        51.4040 
 710   0.0000       1.896394        51.6035 
 711   0.0000       1.898836        51.6700 
 712   0.0000       1.906151        51.8690 
 713   0.0000       1.910364        51.9836 
 714   0.0000       1.917690        52.1830 
 715   0.0000       1.920801        52.2676 
 716   0.0000       1.924988        52.3816 
[...]
      dxz     :     0.005215
      dyz     :     0.007742
      dx2y2   :     0.004751
      dxy     :     0.004283
 50 H s       :     0.705520  s :     0.705520
      pz      :     0.088416  p :     0.315018
      px      :     0.135525
      py      :     0.091078
      dz2     :     0.002612  d :     0.030272
      dxz     :     0.009546
      dyz     :     0.000572
      dx2y2   :     0.008868
      dxy     :     0.008674
 51 H s       :     0.691439  s :     0.691439
      pz      :     0.130090  p :     0.334969
      px      :     0.114413
      py      :     0.090465
      dz2     :     0.010662  d :     0.030454
      dxz     :     0.007836
      dyz     :     0.007773
      dx2y2   :     0.002321
      dxy     :     0.001862
 52 H s       :     0.702703  s :     0.702703
      pz      :     0.095065  p :     0.327448
      px      :     0.091342
      py      :     0.141041
      dz2     :     0.003200  d :     0.030240
      dxz     :     0.000317
      dyz     :     0.009553
      dx2y2   :     0.008091
      dxy     :     0.009078
 53 H s       :     0.706775  s :     0.706775
      pz      :     0.093585  p :     0.311497
      px      :     0.132558
      py      :     0.085354
      dz2     :     0.003919  d :     0.030052
      dxz     :     0.008334
      dyz     :     0.001415
      dx2y2   :     0.008497
      dxy     :     0.007887
 54 H s       :     0.700148  s :     0.700148
      pz      :     0.093584  p :     0.342454
      px      :     0.096785
      py      :     0.152085
      dz2     :     0.002935  d :     0.030310
      dxz     :     0.000635
      dyz     :     0.010066
      dx2y2   :     0.007447
      dxy     :     0.009227
 55 H s       :     0.696783  s :     0.696783
      pz      :     0.134129  p :     0.357683
      px      :     0.106423
      py      :     0.117131
      dz2     :     0.010010  d :     0.030416
      dxz     :     0.007035
      dyz     :     0.007562
      dx2y2   :     0.003310
      dxy     :     0.002499
 56 H s       :     0.708854  s :     0.708854
      pz      :     0.084203  p :     0.312107
      px      :     0.136941
      py      :     0.090963
      dz2     :     0.003034  d :     0.029969
      dxz     :     0.009384
      dyz     :     0.000657
      dx2y2   :     0.007524
      dxy     :     0.009370
 57 H s       :     0.699453  s :     0.699453
      pz      :     0.137870  p :     0.357576
      px      :     0.101279
      py      :     0.118427
      dz2     :     0.008354  d :     0.030352
      dxz     :     0.005282
      dyz     :     0.007642
      dx2y2   :     0.004982
      dxy     :     0.004092
 58 H s       :     0.702022  s :     0.702022
      pz      :     0.122203  p :     0.325307
      px      :     0.106550
      py      :     0.096554
      dz2     :     0.008888  d :     0.030334
      dxz     :     0.007111
      dyz     :     0.007435
      dx2y2   :     0.003729
      dxy     :     0.003170


                      *****************************
                      * MAYER POPULATION ANALYSIS *
                      *****************************

  NA   - Mulliken gross atomic population
  ZA   - Total nuclear charge
  QA   - Mulliken gross atomic charge
  VA   - Mayer's total valence
  BVA  - Mayer's bonded valence
  FA   - Mayer's free valence

  ATOM       NA         ZA         QA         VA         BVA        FA
  0 Ru    17.1668    16.0000    -1.1668     5.2691     5.2691     0.0000
  1 P     13.1950    15.0000     1.8050     2.0004     2.0004    -0.0000
  2 P     13.5533    15.0000     1.4467     1.8990     1.8990     0.0000
  3 P     13.2500    15.0000     1.7500     1.3581     1.3581     0.0000
  4 P     13.5421    15.0000     1.4579     1.6919     1.6919    -0.0000
  5 H      0.9092     1.0000     0.0908     0.9426     0.9426     0.0000
  6 C      6.8394     6.0000    -0.8394     4.2408     4.2408     0.0000
  7 C      5.9486     6.0000     0.0514     3.0780     3.0780    -0.0000
  8 H      0.9351     1.0000     0.0649     0.9112     0.9112    -0.0000
  9 C      6.7540     6.0000    -0.7540     3.9424     3.9424     0.0000
 10 C      6.7365     6.0000    -0.7365     3.9740     3.9740     0.0000
 11 C      6.8044     6.0000    -0.8044     4.2795     4.2795     0.0000
 12 C      6.9289     6.0000    -0.9289     3.9950     3.9950     0.0000
 13 C      6.6487     6.0000    -0.6487     3.8254     3.8254    -0.0000
 14 C      6.6427     6.0000    -0.6427     3.8445     3.8445    -0.0000
 15 C      6.7987     6.0000    -0.7987     3.8704     3.8704     0.0000
 16 C      6.6955     6.0000    -0.6955     3.8083     3.8083     0.0000
 17 C      6.8669     6.0000    -0.8669     3.9788     3.9788    -0.0000
 18 C      6.8343     6.0000    -0.8343     3.9022     3.9022     0.0000
 19 C      6.7005     6.0000    -0.7005     3.8315     3.8315     0.0000
 20 C      6.7774     6.0000    -0.7774     3.8732     3.8732     0.0000
 21 H      0.9106     1.0000     0.0894     0.9183     0.9183     0.0000
 22 H      0.8951     1.0000     0.1049     0.9547     0.9547    -0.0000
 23 H      0.9167     1.0000     0.0833     1.0236     1.0236     0.0000
 24 H      0.9069     1.0000     0.0931     1.0597     1.0597    -0.0000
 25 H      0.8502     1.0000     0.1498     1.0660     1.0660     0.0000
 26 H      0.9366     1.0000     0.0634     1.0856     1.0856     0.0000
 27 H      0.9035     1.0000     0.0965     1.0790     1.0790     0.0000
 28 H      0.8512     1.0000     0.1488     1.0746     1.0746     0.0000
 29 H      0.9193     1.0000     0.0807     1.0901     1.0901     0.0000
 30 H      0.8538     1.0000     0.1462     1.0702     1.0702     0.0000
 31 H      0.9104     1.0000     0.0896     1.0504     1.0504     0.0000
 32 H      0.8619     1.0000     0.1381     1.1110     1.1110    -0.0000
 33 H      0.8918     1.0000     0.1082     1.0992     1.0992     0.0000
 34 H      0.8789     1.0000     0.1211     1.0776     1.0776    -0.0000
 35 H      0.8662     1.0000     0.1338     1.1079     1.1079    -0.0000
 36 H      0.9146     1.0000     0.0854     1.0729     1.0729     0.0000
 37 H      0.8665     1.0000     0.1335     1.0307     1.0307    -0.0000
 38 H      0.8622     1.0000     0.1378     1.1006     1.1006    -0.0000
 39 H      0.8768     1.0000     0.1232     1.0361     1.0361    -0.0000
 40 H      0.9078     1.0000     0.0922     1.1186     1.1186    -0.0000
 41 H      0.8251     1.0000     0.1749     1.0514     1.0514     0.0000
 42 H      0.9247     1.0000     0.0753     1.1057     1.1057     0.0000
 43 H      0.8485     1.0000     0.1515     1.0466     1.0466     0.0000
 44 H      0.8267     1.0000     0.1733     1.0298     1.0298    -0.0000
 45 H      0.9188     1.0000     0.0812     1.1066     1.1066     0.0000
 46 H      0.8704     1.0000     0.1296     1.0672     1.0672     0.0000
 47 H      0.8572     1.0000     0.1428     1.0945     1.0945    -0.0000
 48 H      0.9025     1.0000     0.0975     1.1223     1.1223    -0.0000
 49 H      0.8656     1.0000     0.1344     1.0211     1.0211    -0.0000
 50 H      0.8310     1.0000     0.1690     1.0647     1.0647     0.0000
 51 H      0.8410     1.0000     0.1590     1.0369     1.0369     0.0000
 52 H      0.9030     1.0000     0.0970     1.1481     1.1481    -0.0000
 53 H      0.8471     1.0000     0.1529     1.0926     1.0926    -0.0000
 54 H      0.8786     1.0000     0.1214     1.0752     1.0752     0.0000
 55 H      0.9128     1.0000     0.0872     1.1455     1.1455     0.0000
 56 H      0.8546     1.0000     0.1454     1.1011     1.1011     0.0000
 57 H      0.8781     1.0000     0.1219     1.0440     1.0440    -0.0000
 58 H      0.9055     1.0000     0.0945     1.1284     1.1284     0.0000

  Mayer bond orders larger than 0.100000
B(  0-Ru,  1-P ) :   0.4581 B(  0-Ru,  2-P ) :   0.4604 B(  0-Ru,  3-P ) :   0.5368 
B(  0-Ru,  4-P ) :   0.4918 B(  0-Ru,  6-C ) :   1.0684 B(  0-Ru,  7-C ) :   0.7717 
B(  0-Ru, 11-C ) :   0.1842 B(  0-Ru, 12-C ) :   0.1062 B(  0-Ru, 20-C ) :   0.1105 
B(  0-Ru, 21-H ) :   0.1192 B(  1-P ,  2-P ) :   0.4052 B(  1-P ,  4-P ) :   0.1769 
B(  1-P ,  9-C ) :   0.4285 B(  1-P , 10-C ) :   0.4911 B(  1-P , 11-C ) :   0.5834 
B(  2-P ,  3-P ) :   0.1187 B(  2-P ,  4-P ) :   0.1554 B(  2-P ,  7-C ) :   0.1067 
B(  2-P , 12-C ) :   0.5545 B(  2-P , 13-C ) :   0.2379 B(  2-P , 14-C ) :   0.2671 
B(  3-P ,  4-P ) :   0.2383 B(  3-P ,  6-C ) :   0.1747 B(  3-P ,  7-C ) :  -0.3039 
B(  3-P , 15-C ) :   0.3394 B(  3-P , 16-C ) :   0.4245 B(  3-P , 17-C ) :   0.4252 
B(  4-P ,  6-C ) :   0.1633 B(  4-P ,  7-C ) :  -0.2567 B(  4-P , 18-C ) :   0.4358 
B(  4-P , 19-C ) :   0.4918 B(  4-P , 20-C ) :   0.3051 B(  5-H ,  6-C ) :   1.1065 
B(  6-C ,  7-C ) :   0.7913 B(  6-C , 21-H ) :   1.0630 B(  7-C ,  8-H ) :   1.0840 
B(  7-C , 22-H ) :   1.0695 B(  9-C , 10-C ) :   0.1378 B(  9-C , 11-C ) :   0.1645 
B(  9-C , 23-H ) :   1.0454 B(  9-C , 24-H ) :   1.0303 B(  9-C , 25-H ) :   1.0179 
B( 10-C , 11-C ) :   0.1310 B( 10-C , 26-H ) :   1.0353 B( 10-C , 27-H ) :   1.0327 
B( 10-C , 28-H ) :   1.0458 B( 11-C , 29-H ) :   1.0507 B( 11-C , 30-H ) :   1.0483 
B( 11-C , 31-H ) :   1.0081 B( 12-C , 13-C ) :   0.1236 B( 12-C , 14-C ) :   0.1307 
B( 12-C , 32-H ) :   1.0601 B( 12-C , 33-H ) :   1.0532 B( 12-C , 34-H ) :   1.0671 
B( 13-C , 14-C ) :   0.1928 B( 13-C , 35-H ) :   1.0526 B( 13-C , 36-H ) :   1.0365 
B( 13-C , 37-H ) :   1.0124 B( 14-C , 38-H ) :   1.0364 B( 14-C , 39-H ) :   1.0051 
B( 14-C , 40-H ) :   1.0409 B( 15-C , 16-C ) :   0.1429 B( 15-C , 17-C ) :   0.1897 
B( 15-C , 41-H ) :   1.0088 B( 15-C , 42-H ) :   1.0689 B( 15-C , 43-H ) :   0.9985 
B( 16-C , 17-C ) :   0.1108 B( 16-C , 44-H ) :   0.9998 B( 16-C , 45-H ) :   1.0882 
B( 16-C , 46-H ) :   0.9897 B( 17-C , 47-H ) :   1.0581 B( 17-C , 48-H ) :   1.0321 
B( 17-C , 49-H ) :   1.0191 B( 18-C , 19-C ) :   0.1067 B( 18-C , 20-C ) :   0.1545 
B( 18-C , 50-H ) :   1.0032 B( 18-C , 51-H ) :   1.0112 B( 18-C , 52-H ) :   1.0696 
B( 19-C , 20-C ) :   0.1035 B( 19-C , 53-H ) :   1.0209 B( 19-C , 54-H ) :   1.0167 
B( 19-C , 55-H ) :   1.0664 B( 20-C , 56-H ) :   1.0409 B( 20-C , 57-H ) :   1.0172 
B( 20-C , 58-H ) :   1.0505 

-------
TIMINGS
-------

Total SCF time: 0 days 0 hours 5 min 20 sec 

Total time                  ....     320.893 sec
Sum of individual times     ....     318.255 sec  ( 99.2%)

Fock matrix formation       ....     299.847 sec  ( 93.4%)
  XC integration            ....      22.190 sec  (  7.4% of F)
    Basis function eval.    ....       3.746 sec  ( 16.9% of XC)
    Density eval.           ....       9.294 sec  ( 41.9% of XC)
    XC-Functional eval.     ....       0.114 sec  (  0.5% of XC)
    XC-Potential eval.      ....       6.841 sec  ( 30.8% of XC)
Diagonalization             ....       5.392 sec  (  1.7%)
Density matrix formation    ....       0.310 sec  (  0.1%)
Population analysis         ....       0.637 sec  (  0.2%)
Initial guess               ....       3.417 sec  (  1.1%)
Orbital Transformation      ....       0.000 sec  (  0.0%)
Orbital Orthonormalization  ....       0.000 sec  (  0.0%)
DIIS solution               ....       6.331 sec  (  2.0%)
Grid generation             ....       2.320 sec  (  0.7%)


           ************************************************************
           *        Program running with 24 parallel MPI-processes    *
           *              working on a common directory               *
           ************************************************************

------------------------------------------------------------------------------
                                ORCA  MP2 
------------------------------------------------------------------------------

Freezing NCore=68 chemical core electrons

-------------
RI-MP2 ENERGY
-------------
Dimension of the basis                    ... 1446
Memory devoted to MP2                     ... 5000 MB   
Data format for buffers                   ... DOUBLE
Compression type for matrix containers    ... UNCOMPRESSED
Overall scaling of the MP2 energy         ...   2.700e-01
Calculating two index integrals           ... done (    0.086 sec)
Cholesky decomposition of V**-1           ... done (    1.285 sec)

-----------------
RI-TRANSFORMATION (AUX index driven)
-----------------

Dimension of the orbital-basis         ... 1446
Dimension of the aux-basis             ... 3580
Transformation of internal/external MOs...   34-  99 to  100-1445
Number Format for Storage              ... Double (8 Byte)
Integral mode                          ... Direct

First Phase: integral generation and transformation of MO indices
  Aux angular momentum 0               ... done (    0.943 sec)
  Aux angular momentum 1               ... done (    1.930 sec)
  Aux angular momentum 2               ... done (    2.489 sec)
  Aux angular momentum 3               ... done (    2.034 sec)
  Aux angular momentum 4               ... done (    0.774 sec)
  Aux angular momentum 5               ... done (    0.496 sec)
  Aux angular momentum 6               ... done (    0.633 sec)
Closing buffer VIA ( 2.37 GB; CompressionRatio= 1.00)
  Phase 1 completed in     9.517 sec
Second Phase: sorting and transformation of aux index

IA-Transformation
Memory available                       ... 4734 MB 
Max. # MO pairs treated in a batch     ... 3    
# of internal orbitals                 ... 66
# batches for internal orbitals        ... 1
Closing buffer IAV ( 0.11 GB; CompressionRatio= 1.00)
(ia|v) transformation done in     2.535 sec

  Phase 2 completed in     5.042 sec
RI-Integral transformation completed in    14.619 sec
Opening buffers                              ... done

Starting loop over batches of integrals:

Operator 0  - window                       ... ( 34- 99)x(100-1445)
Operator 0  - Memory available             ...  5000 MB
Operator 0  - Memory needed per MO         ...  36.8 MB
Operator 0  - Number of orbitals per batch ... 3
Operator 0  - Number of batches            ... 1

OPERATOR  0   PASS   0:  MOs    34 ...   36 +   37 ...   39 +   40 ...   42 +   43 ...   45
                            +   46 ...   48 +   49 ...   51 +   52 ...   54 +   55 ...   57
                            +   58 ...   60 +   61 ...   63 +   64 ...   66 +   67 ...   69
                            +   70 ...   72 +   73 ...   75 +   76 ...   78 +   79 ...   81
                            +   82 ...   84 +   85 ...   87 +   88 ...   90 +   91 ...   93
                            +   94 ...   96 +   97 ...   99
  Reading integrals       ... ok
  Internal MO  36
Time spent in pair loops =     1.651 sec
Deleting buffer (Ka|jb)[aa] ...done

-----------------------------------------------
 RI-MP2 CORRELATION ENERGY:     -1.341779288 Eh
-----------------------------------------------


-------
TIMINGS
-------

Total time                :   58.815 sec
Integral trafo            :   14.651 sec ( 24.9%)
I/O of integrals          :    0.129 sec (  0.2%)
K(i,j) Operators          :    1.279 sec (  2.2%)
T(i,j) pair energies      :    0.136 sec (  0.2%)
V-calculation             :    0.086 sec (  0.1%)
V**(-1/2)                 :    1.285 sec (  2.2%)
Gamma(ia|P)               :    0.000 sec (  0.0%)
Gamma-Trafo               :    0.000 sec (  0.0%)
D(virtual)                :    0.000 sec (  0.0%)
D(internal)               :    0.000 sec (  0.0%)
W(virtual)                :    0.000 sec (  0.0%)
W(internal)               :    0.000 sec (  0.0%)
L(virtual)                :    0.000 sec (  0.0%)
L(internal)               :    0.000 sec (  0.0%)
G(D)                      :    0.000 sec (  0.0%)
G(Z)                      :    0.000 sec (  0.0%)
Z-Vector Solution         :    0.000 sec (  0.0%)
Z-Vector Solution         :    0.000 sec (  0.0%)
3-Index Derivative 
+ Separable RIJ part      :    0.000 sec (  0.0%)
2-Index Derivative 
+ Separable RIJ part      :    0.000 sec (  0.0%)
Separable Gradient (X)    :    0.000 sec (  0.0%)


---------------------------------------
MP2 TOTAL ENERGY:    -2017.192682002 Eh
---------------------------------------


-------------------------------------------------------------------------------
                          DFT DISPERSION CORRECTION                            
                                                                               
                              DFTD3 V3.1  Rev 1                                
                          USING Becke-Johnson damping                          
-------------------------------------------------------------------------------
The B2PLYP functional is recognized
Active option DFTDOPT                   ...         4   

molecular C6(AA) [au] = 37647.970449 


            DFT-D V3
 parameters
 s6 scaling factor         :     0.6400 
 a1 scaling factor         :     0.3065 
 s8 scaling factor         :     0.9147 
 a2 scaling factor         :     5.0570 
 ad hoc parameters k1-k3   :    16.0000     1.3333    -4.0000 

 Edisp/kcal,au: -53.762453711542  -0.085675914387 
 E6   /kcal   : -28.103018756 
 E8   /kcal   : -25.659434956 
 % E8         :  47.727425339 

-------------------------   ----------------
Dispersion correction           -0.085675914
-------------------------   ----------------


-------------------------   --------------------
FINAL SINGLE POINT ENERGY     -2017.278357916011
-------------------------   --------------------


                            ***************************************
                            *     ORCA property calculations      *
                            ***************************************


  WARNING: The energy has been calculated at the MP2 level but the densities
           used in the property calculations are still SCF densities
           MP2 response densities have not been calculated 
           use %mp2 Density relaxed end
           or  %mp2 Density unrelaxed end

                                    ---------------------
                                    Active property flags
                                    ---------------------
   (+) Dipole Moment


------------------------------------------------------------------------------
                       ORCA ELECTRIC PROPERTIES CALCULATION
------------------------------------------------------------------------------

Dipole Moment Calculation                       ... on
Quadrupole Moment Calculation                   ... off
Polarizability Calculation                      ... off
GBWName                                         ... MOR16_ed33.gbw
Electron density file                           ... MOR16_ed33.scfp
The origin for moment calculation is the CENTER OF MASS  = (-0.003158, -0.007776 -0.038309)

-------------
DIPOLE MOMENT
-------------
                                X             Y             Z
Electronic contribution:     -1.79425      -5.11325     -26.74179
Nuclear contribution   :      1.82563       5.30534      27.72313
                        -----------------------------------------
Total Dipole Moment    :      0.03138       0.19209       0.98135
                        -----------------------------------------
Magnitude (a.u.)       :      1.00046
Magnitude (Debye)      :      2.54298



--------------------
Rotational spectrum 
--------------------
 
Rotational constants in cm-1:     0.009351     0.007693     0.006898 
Rotational constants in MHz :   280.325632   230.636339   206.809498 

 Dipole components along the rotational axes: 
x,y,z [a.u.] :     0.031638    -0.192079     0.981343 
x,y,z [Debye]:     0.080417    -0.488225     2.494375 

 

Timings for individual modules:

Sum of individual times         ...      390.968 sec (=   6.516 min)
GTO integral calculation        ...        9.901 sec (=   0.165 min)   2.5 %
SCF iterations                  ...      321.360 sec (=   5.356 min)  82.2 %
MP2 module                      ...       59.707 sec (=   0.995 min)  15.3 %
                             ****ORCA TERMINATED NORMALLY****
TOTAL RUN TIME: 0 days 0 hours 6 minutes 31 seconds 811 msec
