
                                 *****************
                                 * O   R   C   A *
                                 *****************

           --- An Ab Initio, DFT and Semiempirical electronic structure package ---

                  #######################################################
                  #                        -***-                        #
                  #          Department of theory and spectroscopy      #
                  #               Directorship: Frank Neese             #
                  #        Max Planck Institute fuer Kohlenforschung    #
                  #                Kaiser Wilhelm Platz 1               #
                  #                 D-45470 Muelheim/Ruhr               #
                  #                      Germany                        #
                  #                                                     #
                  #                  All rights reserved                #
                  #                        -***-                        #
                  #######################################################


                         Program Version 4.2.0 -  RELEASE  -


 With contributions from (in alphabetic order):
   Daniel Aravena         : Magnetic Suceptibility
   Michael Atanasov       : Ab Initio Ligand Field Theory (pilot matlab implementation)
   Alexander A. Auer      : GIAO ZORA, VPT2
   Ute Becker             : Parallelization
   Giovanni Bistoni       : ED, misc. LED, open-shell LED, HFLED
   Martin Brehm           : Molecular dynamics
   Dmytro Bykov           : SCF Hessian
   Vijay G. Chilkuri      : MRCI spin determinant printing, contributions to CSF-ICE
   Dipayan Datta          : RHF DLPNO-CCSD density
   Achintya Kumar Dutta   : EOM-CC, STEOM-CC
   Dmitry Ganyushin       : Spin-Orbit,Spin-Spin,Magnetic field MRCI
   Miquel Garcia          : C-PCM Hessian, Gaussian charge scheme
   Yang Guo               : DLPNO-NEVPT2, CIM, IAO-localization
   Andreas Hansen         : Spin unrestricted coupled pair/coupled cluster methods
   Benjamin Helmich-Paris : CASSCF linear response (MC-RPA)
   Lee Huntington         : MR-EOM, pCC
   Robert Izsak           : Overlap fitted RIJCOSX, COSX-SCS-MP3, EOM
   Christian Kollmar      : KDIIS, OOCD, Brueckner-CCSD(T), CCSD density
   Simone Kossmann        : Meta GGA functionals, TD-DFT gradient, OOMP2, MP2 Hessian
   Martin Krupicka        : AUTO-CI
   Lucas Lang             : DCDCAS
   Dagmar Lenk            : GEPOL surface, SMD
   Dimitrios Liakos       : Extrapolation schemes; Compound Job, initial MDCI parallelization
   Dimitrios Manganas     : Further ROCIS development; embedding schemes
   Dimitrios Pantazis     : SARC Basis sets
   Taras Petrenko         : DFT Hessian,TD-DFT gradient, ASA, ECA, R-Raman, ABS, FL, XAS/XES, NRVS
   Peter Pinski           : DLPNO-MP2, DLPNO-MP2 Gradient
   Christoph Reimann      : Effective Core Potentials
   Marius Retegan         : Local ZFS, SOC
   Christoph Riplinger    : Optimizer, TS searches, QM/MM, DLPNO-CCSD(T), (RO)-DLPNO pert. Triples
   Tobias Risthaus        : Range-separated hybrids, TD-DFT gradient, RPA, STAB
   Michael Roemelt        : Original ROCIS implementation
   Masaaki Saitow         : Open-shell DLPNO-CCSD energy and density
   Barbara Sandhoefer     : DKH picture change effects
   Avijit Sen             : IP-ROCIS
   Kantharuban Sivalingam : CASSCF convergence, NEVPT2, FIC-MRCI
   Bernardo de Souza      : ESD, SOC TD-DFT
   Georgi Stoychev        : AutoAux, RI-MP2 NMR
   Willem Van den Heuvel  : Paramagnetic NMR
   Boris Wezisla          : Elementary symmetry handling
   Frank Wennmohs         : Technical directorship


 We gratefully acknowledge several colleagues who have allowed us to
 interface, adapt or use parts of their codes:
   Stefan Grimme, W. Hujo, H. Kruse,             : VdW corrections, initial TS optimization,
                  C. Bannwarth                     DFT functionals, gCP, sTDA/sTD-DF
   Ed Valeev, F. Pavosevic, A. Kumar             : LibInt (2-el integral package), F12 methods
   Garnet Chan, S. Sharma, J. Yang, R. Olivares  : DMRG
   Ulf Ekstrom                                   : XCFun DFT Library
   Mihaly Kallay                                 : mrcc  (arbitrary order and MRCC methods)
   Andreas Klamt, Michael Diedenhofen            : otool_cosmo (COSMO solvation model)
   Jiri Pittner, Ondrej Demel                    : Mk-CCSD
   Frank Weinhold                                : gennbo (NPA and NBO analysis)
   Christopher J. Cramer and Donald G. Truhlar   : smd solvation model
   Lars Goerigk                                  : TD-DFT with DH, B97 family of functionals
   V. Asgeirsson, H. Jonsson                     : NEB implementation
   FAccTs GmbH                                   : IRC, NEB, NEB-TS, Multilevel, MM, QM/MM, CI optimization
   S Lehtola, MJT Oliveira, MAL Marques          : LibXC Library


 Your calculation uses the libint2 library for the computation of 2-el integrals
 For citations please refer to: http://libint.valeyev.net

 Your ORCA version has been built with support for libXC version: 4.2.3
 For citations please refer to: https://tddft.org/programs/libxc/

 This ORCA versions uses:
   CBLAS   interface :  Fast vector & matrix operations
   LAPACKE interface :  Fast linear algebra routines
   SCALAPACK package :  Parallel linear algebra routines


Your calculation utilizes the atom-pairwise dispersion correction
with the Becke-Johnson damping scheme (D3BJ)
Cite in your paper:
S.Grimme, S.Ehrlich, L.Goerigk, J Comput Chem, (2011), 32, 1456–1465 
S.Grimme, J.Antony, S.Ehrlich and H.Krieg, J.Chem.Phys., 132, (2010), 154104 
   

----- Orbital basis set information -----
Your calculation utilizes the basis: def2-TZVPPD
   F. Weigend and R. Ahlrichs, Phys. Chem. Chem. Phys. 7, 3297 (2005).
   D. Rappoport and F. Furche, J. Chem. Phys. 133 134105 (2010).

----- AuxC basis set information -----
Your calculation utilizes the auxiliary basis: def2-TZVPPD/C
   A. Hellweg, C. Hattig, S. Hofener and W. Klopper, Theor. Chem. Acc. 117, 587 (2007).

----- AuxJK basis set information -----
Your calculation utilizes the auxiliary basis: def2/JK
   H-Ba, Hf-Rn: F. Weigend, J. Comput. Chem. 29, 167 (2008).

================================================================================
                                        WARNINGS
                       Please study these warnings very carefully!
================================================================================


WARNING: No MP2 level density has been requested!
         To caclulate MP2 level properties use
         %mp2 Density relaxed end
         or
         %mp2 Density unrelaxed end
         Otherwise for double-hybrid DFT only the energy is correct!

WARNING: The frozen-core approximation is turned on by default for 
         the MP2 part of double-hybrid DFT.

INFO   : the flag for use of LIBINT has been found!

================================================================================
                                       INPUT FILE
================================================================================
NAME = MOR21_mecn.in
|  1> #
|  2> # MOR21_mecn ri-B2PLYP-D3BJ/Def2-TZVPPD
|  3> #
|  4> ! rijk ri-b2plyp d3bj def2-tzvppd def2/jk def2-tzvppd/c grid4 nofinalgrid
|  5> 
|  6> *xyz 0 1
|  7> N        1.434594    0.083513   -0.053227 
|  8> C        0.278345    0.016206   -0.010325 
|  9> C       -1.176577   -0.068494    0.043652 
| 10> H       -1.556498   -0.572512   -0.849824 
| 11> H       -1.609231    0.934929    0.094890 
| 12> H       -1.487035   -0.633283    0.927565 
| 13> *
| 14> 
| 15> %maxcore 5000
| 16> 
| 17> %pal
| 18> nprocs = 24
| 19> end
| 20> 
| 21> 
| 22>                          ****END OF INPUT****
================================================================================

                       ****************************
                       * Single Point Calculation *
                       ****************************

---------------------------------
CARTESIAN COORDINATES (ANGSTROEM)
---------------------------------
  N      1.434594    0.083513   -0.053227
  C      0.278345    0.016206   -0.010325
  C     -1.176577   -0.068494    0.043652
  H     -1.556498   -0.572512   -0.849824
  H     -1.609231    0.934929    0.094890
  H     -1.487035   -0.633283    0.927565

----------------------------
CARTESIAN COORDINATES (A.U.)
----------------------------
  NO LB      ZA    FRAG     MASS         X           Y           Z
   0 N     7.0000    0    14.007    2.710990    0.157817   -0.100584
   1 C     6.0000    0    12.011    0.525996    0.030625   -0.019511
   2 C     6.0000    0    12.011   -2.223408   -0.129435    0.082490
   3 H     1.0000    0     1.008   -2.941355   -1.081891   -1.605935
   4 H     1.0000    0     1.008   -3.041006    1.766760    0.179316
   5 H     1.0000    0     1.008   -2.810089   -1.196731    1.752844

--------------------------------
INTERNAL COORDINATES (ANGSTROEM)
--------------------------------
 N      0   0   0     0.000000000000     0.00000000     0.00000000
 C      1   0   0     1.159000674656     0.00000000     0.00000000
 C      2   1   0     1.458384596947   179.99961392     0.00000000
 H      3   2   1     1.093925716464   110.06008476   344.27382145
 H      3   2   1     1.093925286886   110.06143026   224.27296768
 H      3   2   1     1.093925489169   110.06093723   104.27391271

---------------------------
INTERNAL COORDINATES (A.U.)
---------------------------
 N      0   0   0     0.000000000000     0.00000000     0.00000000
 C      1   0   0     2.190193864131     0.00000000     0.00000000
 C      2   1   0     2.755947486159   179.99961392     0.00000000
 H      3   2   1     2.067220014970   110.06008476   344.27382145
 H      3   2   1     2.067219203186   110.06143026   224.27296768
 H      3   2   1     2.067219585446   110.06093723   104.27391271

---------------------
BASIS SET INFORMATION
---------------------
There are 3 groups of distinct atoms

 Group   1 Type N   : 12s6p3d1f contracted to 6s3p3d1f pattern {621111/411/111/1}
 Group   2 Type C   : 12s6p3d1f contracted to 6s3p3d1f pattern {621111/411/111/1}
 Group   3 Type H   : 5s3p1d contracted to 3s3p1d pattern {311/111/1}

Atom   0N    basis set group =>   1
Atom   1C    basis set group =>   2
Atom   2C    basis set group =>   2
Atom   3H    basis set group =>   3
Atom   4H    basis set group =>   3
Atom   5H    basis set group =>   3
---------------------------------
AUXILIARY/C BASIS SET INFORMATION
---------------------------------
There are 3 groups of distinct atoms

 Group   1 Type N   : 9s7p6d4f1g contracted to 9s7p5d4f1g pattern {111111111/1111111/21111/1111/1}
 Group   2 Type C   : 9s7p6d4f1g contracted to 9s7p5d4f1g pattern {111111111/1111111/21111/1111/1}
 Group   3 Type H   : 5s4p3d1f contracted to 5s4p3d1f pattern {11111/1111/111/1}

Atom   0N    basis set group =>   1
Atom   1C    basis set group =>   2
Atom   2C    basis set group =>   2
Atom   3H    basis set group =>   3
Atom   4H    basis set group =>   3
Atom   5H    basis set group =>   3
----------------------------------
AUXILIARY/JK BASIS SET INFORMATION
----------------------------------
There are 3 groups of distinct atoms

 Group   1 Type N   : 14s10p6d2f1g contracted to 10s8p4d2f1g pattern {5111111111/31111111/3111/11/1}
 Group   2 Type C   : 14s10p6d2f1g contracted to 10s8p5d1f1g pattern {5111111111/31111111/21111/2/1}
 Group   3 Type H   : 4s2p2d contracted to 2s2p2d pattern {31/11/11}

Atom   0N    basis set group =>   1
Atom   1C    basis set group =>   2
Atom   2C    basis set group =>   2
Atom   3H    basis set group =>   3
Atom   4H    basis set group =>   3
Atom   5H    basis set group =>   3


           ************************************************************
           *        Program running with 24 parallel MPI-processes    *
           *              working on a common directory               *
           ************************************************************
------------------------------------------------------------------------------
                           ORCA GTO INTEGRAL CALCULATION
                           -- RI-GTO INTEGRALS CHOSEN --
------------------------------------------------------------------------------

                         BASIS SET STATISTICS AND STARTUP INFO

Gaussian basis set:
 # of primitive gaussian shells          ...   93
 # of primitive gaussian functions       ...  213
 # of contracted shells                  ...   60
 # of contracted basis functions         ...  162
 Highest angular momentum                ...    3
 Maximum contraction depth               ...    6
Auxiliary gaussian basis set:
 # of primitive gaussian shells          ...  123
 # of primitive gaussian functions       ...  351
 # of contracted shells                  ...   93
 # of contracted aux-basis functions     ...  281
 Highest angular momentum                ...    4
 Maximum contraction depth               ...    5
Ratio of auxiliary to basis functions    ...  1.73
Integral package used                  ... LIBINT
 One Electron integrals                  ... done
 Ordering auxiliary basis shells         ... done
 Integral threshhold             Thresh  ...  1.000e-10
 Primitive cut-off               TCut    ...  1.000e-11
 Pre-screening matrix                    ... done
 Shell pair data                         ... 
 Ordering of the shell pairs             ... done (   0.000 sec) 1808 of 1830 pairs
 Determination of significant pairs      ... done (   0.000 sec)
 Creation of shell pair data             ... done (   0.000 sec)
 Storage of shell pair data              ... done (   0.024 sec)
 Shell pair data done in (   0.025 sec)
 Computing two index integrals           ... done
 Cholesky decomposition of the V-matrix  ... done


Timings:
 Total evaluation time                   ...   0.176 sec (  0.003 min)
 One electron matrix time                ...   0.029 sec (  0.000 min) = 16.3%
 Schwartz matrix evaluation time         ...   0.098 sec (  0.002 min) = 55.6%
 Two index repulsion integral time       ...   0.001 sec (  0.000 min) =  0.8%
 Cholesky decomposition of V             ...   0.002 sec (  0.000 min) =  0.9%
 Three index repulsion integral time     ...   0.000 sec (  0.000 min) =  0.0%



           ************************************************************
           *        Program running with 24 parallel MPI-processes    *
           *              working on a common directory               *
           ************************************************************
-------------------------------------------------------------------------------
                                 ORCA SCF
-------------------------------------------------------------------------------

------------
SCF SETTINGS
------------
Hamiltonian:
 Density Functional     Method          .... DFT(GTOs)
 Exchange Functional    Exchange        .... B88
   X-Alpha parameter    XAlpha          ....  0.666667
   Becke's b parameter  XBeta           ....  0.004200
 Correlation Functional Correlation     .... LYP
 LDA part of GGA corr.  LDAOpt          .... VWN-3
 Gradients option       PostSCFGGA      .... off
 Hybrid DFT is turned on
   Fraction HF Exchange ScalHFX         ....  0.530000
   Scaling of DF-GGA-X  ScalDFX         ....  0.470000
   Scaling of DF-GGA-C  ScalDFC         ....  0.730000
   Scaling of DF-LDA-C  ScalLDAC        ....  0.730000
   Perturbative correction              ....  0.270000
   Density functional embedding theory  .... OFF
 RI-approximation to the Coulomb term is turned on
   Number of auxiliary basis functions  .... 281
   RI-JK (J+K treated both via RI)      .... on


General Settings:
 Integral files         IntName         .... MOR21_mecn
 Hartree-Fock type      HFTyp           .... RHF
 Total Charge           Charge          ....    0
 Multiplicity           Mult            ....    1
 Number of Electrons    NEL             ....   22
 Basis Dimension        Dim             ....  162
 Nuclear Repulsion      ENuc            ....     58.3736252895 Eh

Convergence Acceleration:
 DIIS                   CNVDIIS         .... on
   Start iteration      DIISMaxIt       ....    12
   Startup error        DIISStart       ....  0.200000
   # of expansion vecs  DIISMaxEq       ....     5
   Bias factor          DIISBfac        ....   1.050
   Max. coefficient     DIISMaxC        ....  10.000
 Newton-Raphson         CNVNR           .... off
 SOSCF                  CNVSOSCF        .... on
   Start iteration      SOSCFMaxIt      ....   150
   Startup grad/error   SOSCFStart      ....  0.003300
 Level Shifting         CNVShift        .... on
   Level shift para.    LevelShift      ....    0.2500
   Turn off err/grad.   ShiftErr        ....    0.0010
 Zerner damping         CNVZerner       .... off
 Static damping         CNVDamp         .... on
   Fraction old density DampFac         ....    0.7000
   Max. Damping (<1)    DampMax         ....    0.9800
   Min. Damping (>=0)   DampMin         ....    0.0000
   Turn off err/grad.   DampErr         ....    0.1000
 Fernandez-Rico         CNVRico         .... off

SCF Procedure:
 Maximum # iterations   MaxIter         ....   125
 SCF integral mode      SCFMode         .... Direct
   Integral package                     .... LIBINT
 Reset frequency        DirectResetFreq ....    20
 Integral Threshold     Thresh          ....  1.000e-10 Eh
 Primitive CutOff       TCut            ....  1.000e-11 Eh

Convergence Tolerance:
 Convergence Check Mode ConvCheckMode   .... Total+1el-Energy
 Convergence forced     ConvForced      .... 0
 Energy Change          TolE            ....  1.000e-06 Eh
 1-El. energy change                    ....  1.000e-03 Eh
 Orbital Gradient       TolG            ....  5.000e-05
 Orbital Rotation angle TolX            ....  5.000e-05
 DIIS Error             TolErr          ....  1.000e-06


Diagonalization of the overlap matrix:
Smallest eigenvalue                        ... 1.197e-05
Time for diagonalization                   ...    0.006 sec
Threshold for overlap eigenvalues          ... 1.000e-08
Number of eigenvalues below threshold      ... 0
Time for construction of square roots      ...    0.003 sec
Total time needed                          ...    0.009 sec

-------------------
DFT GRID GENERATION
-------------------

General Integration Accuracy     IntAcc      ...  4.670
Radial Grid Type                 RadialGrid  ... Gauss-Chebyshev
Angular Grid (max. acc.)         AngularGrid ... Lebedev-302
Angular grid pruning method      GridPruning ... 3 (G Style)
Weight generation scheme         WeightScheme... Becke
Basis function cutoff            BFCut       ...    1.0000e-10
Integration weight cutoff        WCut        ...    1.0000e-14
Grids for H and He will be reduced by one unit

# of grid points (after initial pruning)     ...  28818 (   0.0 sec)
# of grid points (after weights+screening)   ...  27867 (   0.0 sec)
nearest neighbour list constructed           ...    0.0 sec
Grid point re-assignment to atoms done       ...    0.0 sec
Grid point division into batches done        ...    0.1 sec
Reduced shell lists constructed in    0.1 sec

Total number of grid points                  ...    27867
Total number of batches                      ...      439
Average number of points per batch           ...       63
Average number of grid points per atom       ...     4644
Average number of shells per batch           ...    14.10 (23.50%)
Average number of basis functions per batch  ...    34.50 (21.30%)
Average number of large shells per batch     ...     9.20 (65.25%)
Average number of large basis fcns per batch ...    23.40 (67.83%)
Average number of aux-shells per batch       ...    14.10 (15.16%)
Average number of aux functions per batch    ...    34.50 (12.28%)
Maximum spatial batch extension              ...  15.83, 19.48, 16.05 au
Average spatial batch extension              ...   0.49,  0.59,  0.55 au

Time for grid setup =    0.167 sec

------------------------------
INITIAL GUESS: MODEL POTENTIAL
------------------------------
Loading Hartree-Fock densities                     ... done
Calculating cut-offs                               ... done
Setting up the integral package                    ... done
Initializing the effective Hamiltonian             ... done
Starting the Coulomb interaction                   ... done (   0.0 sec)
Reading the grid                                   ... done
Mapping shells                                     ... done
Starting the XC term evaluation                    ... done (   0.0 sec)
  promolecular density results
     # of electrons  =     21.998529606
     EX              =    -17.661596279
     EC              =     -0.224848674
     EX+EC           =    -17.886444952
Transforming the Hamiltonian                       ... done (   0.0 sec)
Diagonalizing the Hamiltonian                      ... done (   0.0 sec)
Back transforming the eigenvectors                 ... done (   0.0 sec)
Now organizing SCF variables                       ... done
                      ------------------
                      INITIAL GUESS DONE (   0.3 sec)
                      ------------------
--------------
SCF ITERATIONS
--------------
ITER       Energy         Delta-E        Max-DP      RMS-DP      [F,P]     Damp
  0   -132.3903561801   0.000000000000 0.06322693  0.00123663  0.2957262 0.7000
  1   -132.3533134270   0.037042753039 0.06837871  0.00126311  0.2253572 0.7000
                               ***Turning on DIIS***
  2   -132.3854571089  -0.032143681833 0.11923084  0.00239747  0.0846577 0.0000
  3   -132.4741911921  -0.088734083278 0.02108660  0.00039414  0.1878327 0.7000
  4   -132.5100033100  -0.035812117837 0.02169527  0.00041823  0.1703724 0.7000
  5   -132.5245578071  -0.014554497117 0.01675320  0.00034771  0.1272239 0.7000
  6   -132.5306625131  -0.006104706000 0.04085054  0.00083745  0.0883414 0.0000
  7   -132.5268421625   0.003820350629 0.01080767  0.00014833  0.0054880 0.0000
  8   -132.5269194034  -0.000077240965 0.00306140  0.00004873  0.0054449 0.0000
                      *** Initiating the SOSCF procedure ***
                           *** Shutting down DIIS ***
                      *** Re-Reading the Fockian *** 
                      *** Removing any level shift *** 
ITER      Energy       Delta-E        Grad      Rot      Max-DP    RMS-DP
  9   -132.52695567  -0.0000362644  0.000371  0.000371  0.000912  0.000019
 10   -132.52696260  -0.0000069333  0.000396  0.000849  0.001090  0.000023
 11   -132.52696178   0.0000008195  0.000530  0.000333  0.000451  0.000010
 12   -132.52696443  -0.0000026469  0.000045  0.000063  0.000177  0.000004
 13   -132.52696446  -0.0000000281  0.000036  0.000025  0.000075  0.000002
                 **** Energy Check signals convergence ****
              ***Rediagonalizing the Fockian in SOSCF/NRSCF***

               *****************************************************
               *                     SUCCESS                       *
               *           SCF CONVERGED AFTER  14 CYCLES          *
               *****************************************************


----------------
TOTAL SCF ENERGY
----------------

Total Energy       :         -132.52696449 Eh           -3606.24204 eV

Components:
Nuclear Repulsion  :           58.37362529 Eh            1588.42710 eV
Electronic Energy  :         -190.90058978 Eh           -5194.66914 eV
One Electron Energy:         -293.30348538 Eh           -7981.19359 eV
Two Electron Energy:          102.40289559 Eh            2786.52445 eV

Virial components:
Potential Energy   :         -264.50695883 Eh           -7197.60027 eV
Kinetic Energy     :          131.97999434 Eh            3591.35823 eV
Virial Ratio       :            2.00414434


DFT components:
N(Alpha)           :       10.999997062176 electrons
N(Beta)            :       10.999997062176 electrons
N(Total)           :       21.999994124352 electrons
E(X)               :       -8.473964775101 Eh       
E(C)               :       -0.527365005835 Eh       
E(XC)              :       -9.001329780936 Eh       
DFET-embed. en.    :        0.000000000000 Eh       

---------------
SCF CONVERGENCE
---------------

  Last Energy change         ...   -3.7333e-08  Tolerance :   1.0000e-06
  Last MAX-Density change    ...    4.1176e-04  Tolerance :   1.0000e-05
  Last RMS-Density change    ...    5.5806e-06  Tolerance :   1.0000e-06
  Last Orbital Gradient      ...    2.8616e-06  Tolerance :   5.0000e-05
  Last Orbital Rotation      ...    2.5697e-06  Tolerance :   5.0000e-05

             **** THE GBW FILE WAS UPDATED (MOR21_mecn.gbw) ****
             **** DENSITY FILE WAS UPDATED (MOR21_mecn.scfp) ****
             **** ENERGY FILE WAS UPDATED (MOR21_mecn.en.tmp) ****
             **** THE GBW FILE WAS UPDATED (MOR21_mecn.gbw) ****
             **** DENSITY FILE WAS UPDATED (MOR21_mecn.scfp) ****
----------------
ORBITAL ENERGIES
----------------

  NO   OCC          E(Eh)            E(eV) 
   0   2.0000     -14.843565      -403.9139 
   1   2.0000     -10.671974      -290.3992 
   2   2.0000     -10.663332      -290.1640 
   3   2.0000      -1.039350       -28.2821 
   4   2.0000      -0.890874       -24.2419 
   5   2.0000      -0.596762       -16.2387 
   6   2.0000      -0.537886       -14.6366 
   7   2.0000      -0.537883       -14.6365 
   8   2.0000      -0.447839       -12.1863 
   9   2.0000      -0.389344       -10.5946 
  10   2.0000      -0.389344       -10.5946 
  11   0.0000       0.018919         0.5148 
  12   0.0000       0.067083         1.8254 
  13   0.0000       0.076642         2.0855 
  14   0.0000       0.076644         2.0856 
  15   0.0000       0.112048         3.0490 
  16   0.0000       0.112050         3.0490 
  17   0.0000       0.132041         3.5930 
  18   0.0000       0.139312         3.7909 
  19   0.0000       0.139316         3.7910 
  20   0.0000       0.183440         4.9917 
  21   0.0000       0.183451         4.9919 
  22   0.0000       0.184930         5.0322 
  23   0.0000       0.214616         5.8400 
  24   0.0000       0.261946         7.1279 
  25   0.0000       0.264591         7.1999 
  26   0.0000       0.264616         7.2006 
  27   0.0000       0.289261         7.8712 
  28   0.0000       0.289270         7.8714 
  29   0.0000       0.296182         8.0595 
  30   0.0000       0.303365         8.2550 
  31   0.0000       0.313932         8.5425 
  32   0.0000       0.318508         8.6670 
  33   0.0000       0.318515         8.6672 
  34   0.0000       0.357233         9.7208 
  35   0.0000       0.403511        10.9801 
  36   0.0000       0.403522        10.9804 
  37   0.0000       0.425033        11.5657 
  38   0.0000       0.425052        11.5662 
  39   0.0000       0.455574        12.3968 
  40   0.0000       0.504477        13.7275 
  41   0.0000       0.504481        13.7276 
  42   0.0000       0.515504        14.0276 
  43   0.0000       0.533280        14.5113 
  44   0.0000       0.533293        14.5116 
  45   0.0000       0.584626        15.9085 
  46   0.0000       0.584645        15.9090 
  47   0.0000       0.587949        15.9989 
  48   0.0000       0.642227        17.4759 
  49   0.0000       0.651669        17.7328 
  50   0.0000       0.651725        17.7343 
  51   0.0000       0.719397        19.5758 
  52   0.0000       0.719414        19.5762 
  53   0.0000       0.723534        19.6884 
  54   0.0000       0.745906        20.2971 
  55   0.0000       0.787068        21.4172 
  56   0.0000       0.787078        21.4175 
  57   0.0000       0.828980        22.5577 
  58   0.0000       0.878150        23.8957 
  59   0.0000       0.878163        23.8960 
  60   0.0000       0.916669        24.9438 
  61   0.0000       0.916678        24.9441 
  62   0.0000       0.973509        26.4905 
  63   0.0000       1.045510        28.4498 
  64   0.0000       1.061362        28.8811 
  65   0.0000       1.192515        32.4500 
  66   0.0000       1.192536        32.4506 
  67   0.0000       1.234578        33.5946 
  68   0.0000       1.234598        33.5951 
  69   0.0000       1.262724        34.3605 
  70   0.0000       1.331090        36.2208 
  71   0.0000       1.331112        36.2214 
  72   0.0000       1.345566        36.6147 
  73   0.0000       1.544475        42.0273 
  74   0.0000       1.544483        42.0275 
  75   0.0000       1.570704        42.7410 
  76   0.0000       1.601730        43.5853 
  77   0.0000       1.601746        43.5857 
  78   0.0000       1.636001        44.5179 
  79   0.0000       1.645059        44.7643 
  80   0.0000       1.645080        44.7649 
  81   0.0000       1.696847        46.1736 
  82   0.0000       1.796374        48.8818 
  83   0.0000       1.796398        48.8825 
  84   0.0000       1.912036        52.0291 
  85   0.0000       1.912040        52.0293 
  86   0.0000       1.945767        52.9470 
  87   0.0000       2.134769        58.0900 
  88   0.0000       2.252125        61.2834 
  89   0.0000       2.252138        61.2838 
  90   0.0000       2.435991        66.2867 
  91   0.0000       2.633450        71.6598 
  92   0.0000       2.667769        72.5937 
  93   0.0000       2.694700        73.3265 
  94   0.0000       2.694705        73.3266 
  95   0.0000       2.729608        74.2764 
  96   0.0000       2.747480        74.7627 
  97   0.0000       2.841754        77.3281 
  98   0.0000       2.841797        77.3292 
  99   0.0000       2.910249        79.1919 
 100   0.0000       2.910256        79.1921 
 101   0.0000       2.910331        79.1941 
 102   0.0000       2.980224        81.0960 
 103   0.0000       3.032176        82.5097 
 104   0.0000       3.032185        82.5099 
 105   0.0000       3.111876        84.6784 
 106   0.0000       3.111886        84.6787 
 107   0.0000       3.235985        88.0556 
 108   0.0000       3.235986        88.0556 
 109   0.0000       3.257062        88.6292 
 110   0.0000       3.257065        88.6292 
 111   0.0000       3.381161        92.0061 
 112   0.0000       3.427355        93.2631 
 113   0.0000       3.428715        93.3001 
 114   0.0000       3.428721        93.3002 
 115   0.0000       3.547276        96.5263 
 116   0.0000       3.590600        97.7052 
 117   0.0000       3.590640        97.7063 
 118   0.0000       3.679188       100.1158 
 119   0.0000       3.700278       100.6897 
 120   0.0000       3.700288       100.6899 
 121   0.0000       3.822206       104.0075 
 122   0.0000       4.020602       109.4061 
 123   0.0000       4.020626       109.4068 
 124   0.0000       4.067700       110.6877 
 125   0.0000       4.082831       111.0995 
 126   0.0000       4.082832       111.0995 
 127   0.0000       4.123057       112.1941 
 128   0.0000       4.125049       112.2483 
 129   0.0000       4.235248       115.2470 
 130   0.0000       4.261405       115.9587 
 131   0.0000       4.261413       115.9589 
 132   0.0000       4.346826       118.2832 
 133   0.0000       4.498805       122.4187 
 134   0.0000       4.498819       122.4191 
 135   0.0000       4.558020       124.0300 
 136   0.0000       4.742628       129.0535 
 137   0.0000       4.742641       129.0538 
 138   0.0000       4.907127       133.5297 
 139   0.0000       4.907140       133.5301 
 140   0.0000       4.914436       133.7286 
 141   0.0000       4.914437       133.7286 
 142   0.0000       4.916598       133.7874 
 143   0.0000       4.989895       135.7819 
 144   0.0000       5.221811       142.0927 
 145   0.0000       5.344438       145.4295 
 146   0.0000       5.344450       145.4299 
 147   0.0000       5.422747       147.5604 
 148   0.0000       5.424385       147.6050 
 149   0.0000       5.424392       147.6052 
 150   0.0000       5.479936       149.1166 
 151   0.0000       5.479957       149.1172 
 152   0.0000       5.654144       153.8571 
 153   0.0000       5.777549       157.2151 
 154   0.0000       5.777561       157.2154 
 155   0.0000       5.891506       160.3160 
 156   0.0000       5.996429       163.1711 
 157   0.0000       5.996437       163.1713 
 158   0.0000       6.329157       172.2251 
 159   0.0000      23.924453       651.0175 
 160   0.0000      24.101601       655.8379 
 161   0.0000      32.918400       895.7552 

                    ********************************
                    * MULLIKEN POPULATION ANALYSIS *
                    ********************************

-----------------------
MULLIKEN ATOMIC CHARGES
-----------------------
   0 N :   -0.245492
   1 C :    0.043504
   2 C :   -0.116676
   3 H :    0.106255
   4 H :    0.106321
   5 H :    0.106089
Sum of atomic charges:    0.0000000

--------------------------------
MULLIKEN REDUCED ORBITAL CHARGES
--------------------------------
  0 N s       :     3.953247  s :     3.953247
      pz      :     1.055184  p :     3.235704
      px      :     1.125196
      py      :     1.055324
      dz2     :     0.002569  d :     0.054259
      dxz     :     0.021961
      dyz     :     0.000141
      dx2y2   :     0.007661
      dxy     :     0.021927
      f0      :     0.000378  f :     0.002281
      f+1     :     0.000099
      f-1     :     0.000063
      f+2     :     0.000625
      f-2     :     0.000012
      f+3     :     0.000174
      f-3     :     0.000930
  1 C s       :     3.289765  s :     3.289765
      pz      :     0.859019  p :     2.568021
      px      :     0.849993
      py      :     0.859009
      dz2     :    -0.002485  d :     0.081936
      dxz     :     0.045745
      dyz     :     0.000010
      dx2y2   :    -0.006806
      dxy     :     0.045472
      f0      :     0.002374  f :     0.016775
      f+1     :     0.001535
      f-1     :     0.000396
      f+2     :     0.003913
      f-2     :     0.000098
      f+3     :     0.002575
      f-3     :     0.005884
  2 C s       :     2.992092  s :     2.992092
      pz      :     1.124015  p :     3.027218
      px      :     0.779792
      py      :     1.123411
      dz2     :     0.013995  d :     0.094594
      dxz     :     0.025955
      dyz     :     0.016326
      dx2y2   :     0.010805
      dxy     :     0.027513
      f0      :     0.000082  f :     0.002772
      f+1     :     0.000559
      f-1     :     0.000696
      f+2     :     0.000141
      f-2     :     0.000157
      f+3     :     0.000915
      f-3     :     0.000222
  3 H s       :     0.853955  s :     0.853955
      pz      :     0.017343  p :     0.037850
      px      :     0.006678
      py      :     0.013830
      dz2     :     0.000628  d :     0.001940
      dxz     :     0.000407
      dyz     :     0.000405
      dx2y2   :     0.000312
      dxy     :     0.000188
  4 H s       :     0.853913  s :     0.853913
      pz      :     0.011812  p :     0.037826
      px      :     0.007353
      py      :     0.018661
      dz2     :     0.000117  d :     0.001940
      dxz     :     0.000095
      dyz     :     0.000633
      dx2y2   :     0.000618
      dxy     :     0.000478
  5 H s       :     0.854128  s :     0.854128
      pz      :     0.017677  p :     0.037843
      px      :     0.005843
      py      :     0.014322
      dz2     :     0.000628  d :     0.001941
      dxz     :     0.000421
      dyz     :     0.000377
      dx2y2   :     0.000310
      dxy     :     0.000205


                     *******************************
                     * LOEWDIN POPULATION ANALYSIS *
                     *******************************

----------------------
LOEWDIN ATOMIC CHARGES
----------------------
   0 N :    0.114577
   1 C :   -0.232158
   2 C :    0.131536
   3 H :   -0.004651
   4 H :   -0.004651
   5 H :   -0.004653

-------------------------------
LOEWDIN REDUCED ORBITAL CHARGES
-------------------------------
  0 N s       :     3.268024  s :     3.268024
      pz      :     0.978208  p :     3.404318
      px      :     1.446958
      py      :     0.979151
      dz2     :     0.024147  d :     0.197324
      dxz     :     0.050353
      dyz     :     0.000226
      dx2y2   :     0.071994
      dxy     :     0.050604
      f0      :     0.001667  f :     0.015758
      f+1     :     0.002567
      f-1     :     0.000283
      f+2     :     0.002757
      f-2     :     0.000051
      f+3     :     0.004266
      f-3     :     0.004167
  1 C s       :     2.761924  s :     2.761924
      pz      :     0.779057  p :     2.668749
      px      :     1.109968
      py      :     0.779724
      dz2     :     0.071114  d :     0.742167
      dxz     :     0.227712
      dyz     :     0.003202
      dx2y2   :     0.209832
      dxy     :     0.230308
      f0      :     0.006549  f :     0.059317
      f+1     :     0.009109
      f-1     :     0.001111
      f+2     :     0.010786
      f-2     :     0.000284
      f+3     :     0.015093
      f-3     :     0.016386
  2 C s       :     2.647162  s :     2.647162
      pz      :     0.932756  p :     2.736308
      px      :     0.870920
      py      :     0.932632
      dz2     :     0.071829  d :     0.453608
      dxz     :     0.102780
      dyz     :     0.055598
      dx2y2   :     0.111546
      dxy     :     0.111855
      f0      :     0.001797  f :     0.031386
      f+1     :     0.005733
      f-1     :     0.005296
      f+2     :     0.003194
      f-2     :     0.003435
      f+3     :     0.007416
      f-3     :     0.004515
  3 H s       :     0.697939  s :     0.697939
      pz      :     0.114263  p :     0.277795
      px      :     0.075755
      py      :     0.087777
      dz2     :     0.009020  d :     0.028916
      dxz     :     0.006382
      dyz     :     0.007404
      dx2y2   :     0.003414
      dxy     :     0.002696
  4 H s       :     0.697941  s :     0.697941
      pz      :     0.075420  p :     0.277794
      px      :     0.077986
      py      :     0.124388
      dz2     :     0.002665  d :     0.028916
      dxz     :     0.001228
      dyz     :     0.008434
      dx2y2   :     0.008520
      dxy     :     0.008069
  5 H s       :     0.697942  s :     0.697942
      pz      :     0.113601  p :     0.277795
      px      :     0.073230
      py      :     0.090964
      dz2     :     0.009055  d :     0.028916
      dxz     :     0.006019
      dyz     :     0.007503
      dx2y2   :     0.003518
      dxy     :     0.002821


                      *****************************
                      * MAYER POPULATION ANALYSIS *
                      *****************************

  NA   - Mulliken gross atomic population
  ZA   - Total nuclear charge
  QA   - Mulliken gross atomic charge
  VA   - Mayer's total valence
  BVA  - Mayer's bonded valence
  FA   - Mayer's free valence

  ATOM       NA         ZA         QA         VA         BVA        FA
  0 N      7.2455     7.0000    -0.2455     2.5936     2.5936    -0.0000
  1 C      5.9565     6.0000     0.0435     3.3779     3.3779     0.0000
  2 C      6.1167     6.0000    -0.1167     3.8958     3.8958     0.0000
  3 H      0.8937     1.0000     0.1063     1.0326     1.0326     0.0000
  4 H      0.8937     1.0000     0.1063     1.0325     1.0325     0.0000
  5 H      0.8939     1.0000     0.1061     1.0327     1.0327     0.0000

  Mayer bond orders larger than 0.100000
B(  0-N ,  1-C ) :   2.5077 B(  1-C ,  2-C ) :   0.8900 B(  2-C ,  3-H ) :   0.9870 
B(  2-C ,  4-H ) :   0.9868 B(  2-C ,  5-H ) :   0.9871 

-------
TIMINGS
-------

Total SCF time: 0 days 0 hours 0 min 2 sec 

Total time                  ....       2.320 sec
Sum of individual times     ....       2.204 sec  ( 95.0%)

Fock matrix formation       ....       1.869 sec  ( 80.6%)
  XC integration            ....       0.429 sec  ( 23.0% of F)
    Basis function eval.    ....       0.068 sec  ( 15.8% of XC)
    Density eval.           ....       0.050 sec  ( 11.7% of XC)
    XC-Functional eval.     ....       0.014 sec  (  3.3% of XC)
    XC-Potential eval.      ....       0.093 sec  ( 21.8% of XC)
Diagonalization             ....       0.035 sec  (  1.5%)
Density matrix formation    ....       0.009 sec  (  0.4%)
Population analysis         ....       0.005 sec  (  0.2%)
Initial guess               ....       0.096 sec  (  4.1%)
Orbital Transformation      ....       0.000 sec  (  0.0%)
Orbital Orthonormalization  ....       0.000 sec  (  0.0%)
DIIS solution               ....       0.014 sec  (  0.6%)
SOSCF solution              ....       0.009 sec  (  0.4%)
Grid generation             ....       0.167 sec  (  7.2%)


           ************************************************************
           *        Program running with 24 parallel MPI-processes    *
           *              working on a common directory               *
           ************************************************************

------------------------------------------------------------------------------
                                ORCA  MP2 
------------------------------------------------------------------------------

Freezing NCore=6 chemical core electrons

-------------
RI-MP2 ENERGY
-------------
Dimension of the basis                    ...  162
Memory devoted to MP2                     ... 5000 MB   
Data format for buffers                   ... DOUBLE
Compression type for matrix containers    ... UNCOMPRESSED
Overall scaling of the MP2 energy         ...   2.700e-01
Calculating two index integrals           ... done (    0.002 sec)
Cholesky decomposition of V**-1           ... done (    0.018 sec)

-----------------
RI-TRANSFORMATION (AUX index driven)
-----------------

Dimension of the orbital-basis         ... 162
Dimension of the aux-basis             ... 393
Transformation of internal/external MOs...    3-  10 to   11- 161
Number Format for Storage              ... Double (8 Byte)
Integral mode                          ... Direct

First Phase: integral generation and transformation of MO indices
  Aux angular momentum 0               ... done (    0.001 sec)
  Aux angular momentum 1               ... done (    0.002 sec)
  Aux angular momentum 2               ... done (    0.002 sec)
  Aux angular momentum 3               ... done (    0.002 sec)
  Aux angular momentum 4               ... done (    0.003 sec)
Closing buffer VIA ( 0.00 GB; CompressionRatio= 1.00)
  Phase 1 completed in     0.085 sec
Second Phase: sorting and transformation of aux index

IA-Transformation
Memory available                       ... 4997 MB 
Max. # MO pairs treated in a batch     ... 1    
# of internal orbitals                 ... 8
# batches for internal orbitals        ... 1
Closing buffer IAV ( 0.00 GB; CompressionRatio= 1.00)
(ia|v) transformation done in     0.004 sec

  Phase 2 completed in     0.009 sec
RI-Integral transformation completed in     0.094 sec
Opening buffers                              ... done

Starting loop over batches of integrals:

Operator 0  - window                       ... (  3- 10)x( 11-161)
Operator 0  - Memory available             ...  5000 MB
Operator 0  - Memory needed per MO         ...   0.5 MB
Operator 0  - Number of orbitals per batch ... 1
Operator 0  - Number of batches            ... 1

OPERATOR  0   PASS   0:  MOs     3 ...    3 +    4 ...    4 +    5 ...    5 +    6 ...    6
                            +    7 ...    7 +    8 ...    8 +    9 ...    9 +   10 ...   10
  Reading integrals       ... ok
Time spent in pair loops =     0.002 sec
Deleting buffer (Ka|jb)[aa] ...done

-----------------------------------------------
 RI-MP2 CORRELATION ENERGY:     -0.171757397 Eh
-----------------------------------------------


-------
TIMINGS
-------

Total time                :    0.139 sec
Integral trafo            :    0.112 sec ( 80.5%)
I/O of integrals          :    0.000 sec (  0.2%)
K(i,j) Operators          :    0.000 sec (  0.3%)
T(i,j) pair energies      :    0.000 sec (  0.1%)
V-calculation             :    0.002 sec (  1.3%)
V**(-1/2)                 :    0.018 sec ( 12.6%)
Gamma(ia|P)               :    0.000 sec (  0.0%)
Gamma-Trafo               :    0.000 sec (  0.0%)
D(virtual)                :    0.000 sec (  0.0%)
D(internal)               :    0.000 sec (  0.0%)
W(virtual)                :    0.000 sec (  0.0%)
W(internal)               :    0.000 sec (  0.0%)
L(virtual)                :    0.000 sec (  0.0%)
L(internal)               :    0.000 sec (  0.0%)
G(D)                      :    0.000 sec (  0.0%)
G(Z)                      :    0.000 sec (  0.0%)
Z-Vector Solution         :    0.000 sec (  0.0%)
Z-Vector Solution         :    0.000 sec (  0.0%)
3-Index Derivative 
+ Separable RIJ part      :    0.000 sec (  0.0%)
2-Index Derivative 
+ Separable RIJ part      :    0.000 sec (  0.0%)
Separable Gradient (X)    :    0.000 sec (  0.0%)


---------------------------------------
MP2 TOTAL ENERGY:     -132.698721891 Eh
---------------------------------------


-------------------------------------------------------------------------------
                          DFT DISPERSION CORRECTION                            
                                                                               
                              DFTD3 V3.1  Rev 1                                
                          USING Becke-Johnson damping                          
-------------------------------------------------------------------------------
The B2PLYP functional is recognized
Active option DFTDOPT                   ...         4   

molecular C6(AA) [au] = 386.358522 


            DFT-D V3
 parameters
 s6 scaling factor         :     0.6400 
 a1 scaling factor         :     0.3065 
 s8 scaling factor         :     0.9147 
 a2 scaling factor         :     5.0570 
 ad hoc parameters k1-k3   :    16.0000     1.3333    -4.0000 

 Edisp/kcal,au: -1.317917195761  -0.002100234514 
 E6   /kcal   :  -0.762570874 
 E8   /kcal   :  -0.555346322 
 % E8         :  42.138180140 

-------------------------   ----------------
Dispersion correction           -0.002100235
-------------------------   ----------------


-------------------------   --------------------
FINAL SINGLE POINT ENERGY      -132.700822125871
-------------------------   --------------------


                            ***************************************
                            *     ORCA property calculations      *
                            ***************************************


  WARNING: The energy has been calculated at the MP2 level but the densities
           used in the property calculations are still SCF densities
           MP2 response densities have not been calculated 
           use %mp2 Density relaxed end
           or  %mp2 Density unrelaxed end

                                    ---------------------
                                    Active property flags
                                    ---------------------
   (+) Dipole Moment


------------------------------------------------------------------------------
                       ORCA ELECTRIC PROPERTIES CALCULATION
------------------------------------------------------------------------------

Dipole Moment Calculation                       ... on
Quadrupole Moment Calculation                   ... off
Polarizability Calculation                      ... off
GBWName                                         ... MOR21_mecn.gbw
Electron density file                           ... MOR21_mecn.scfp
The origin for moment calculation is the CENTER OF MASS  = ( 0.212467,  0.012369 -0.007883)

-------------
DIPOLE MOMENT
-------------
                                X             Y             Z
Electronic contribution:      3.05167       0.17766      -0.11322
Nuclear contribution   :     -4.67428      -0.27212       0.17343
                        -----------------------------------------
Total Dipole Moment    :     -1.62261      -0.09446       0.06021
                        -----------------------------------------
Magnitude (a.u.)       :      1.62647
Magnitude (Debye)      :      4.13416



--------------------
Rotational spectrum 
--------------------
 
Rotational constants in cm-1:     5.279638     0.306561     0.306561 
Rotational constants in MHz : 158279.554854  9190.460473  9190.452676 

 Dipole components along the rotational axes: 
x,y,z [a.u.] :     1.626470     0.000003     0.000002 
x,y,z [Debye]:     4.134158     0.000007     0.000004 

 

Timings for individual modules:

Sum of individual times         ...        3.784 sec (=   0.063 min)
GTO integral calculation        ...        0.532 sec (=   0.009 min)  14.1 %
SCF iterations                  ...        2.652 sec (=   0.044 min)  70.1 %
MP2 module                      ...        0.600 sec (=   0.010 min)  15.9 %
                             ****ORCA TERMINATED NORMALLY****
TOTAL RUN TIME: 0 days 0 hours 0 minutes 4 seconds 261 msec
