
                                 *****************
                                 * O   R   C   A *
                                 *****************

           --- An Ab Initio, DFT and Semiempirical electronic structure package ---

                  #######################################################
                  #                        -***-                        #
                  #          Department of theory and spectroscopy      #
                  #               Directorship: Frank Neese             #
                  #        Max Planck Institute fuer Kohlenforschung    #
                  #                Kaiser Wilhelm Platz 1               #
                  #                 D-45470 Muelheim/Ruhr               #
                  #                      Germany                        #
                  #                                                     #
                  #                  All rights reserved                #
                  #                        -***-                        #
                  #######################################################


                         Program Version 4.2.0 -  RELEASE  -


 With contributions from (in alphabetic order):
   Daniel Aravena         : Magnetic Suceptibility
   Michael Atanasov       : Ab Initio Ligand Field Theory (pilot matlab implementation)
   Alexander A. Auer      : GIAO ZORA, VPT2
   Ute Becker             : Parallelization
   Giovanni Bistoni       : ED, misc. LED, open-shell LED, HFLED
   Martin Brehm           : Molecular dynamics
   Dmytro Bykov           : SCF Hessian
   Vijay G. Chilkuri      : MRCI spin determinant printing, contributions to CSF-ICE
   Dipayan Datta          : RHF DLPNO-CCSD density
   Achintya Kumar Dutta   : EOM-CC, STEOM-CC
   Dmitry Ganyushin       : Spin-Orbit,Spin-Spin,Magnetic field MRCI
   Miquel Garcia          : C-PCM Hessian, Gaussian charge scheme
   Yang Guo               : DLPNO-NEVPT2, CIM, IAO-localization
   Andreas Hansen         : Spin unrestricted coupled pair/coupled cluster methods
   Benjamin Helmich-Paris : CASSCF linear response (MC-RPA)
   Lee Huntington         : MR-EOM, pCC
   Robert Izsak           : Overlap fitted RIJCOSX, COSX-SCS-MP3, EOM
   Christian Kollmar      : KDIIS, OOCD, Brueckner-CCSD(T), CCSD density
   Simone Kossmann        : Meta GGA functionals, TD-DFT gradient, OOMP2, MP2 Hessian
   Martin Krupicka        : AUTO-CI
   Lucas Lang             : DCDCAS
   Dagmar Lenk            : GEPOL surface, SMD
   Dimitrios Liakos       : Extrapolation schemes; Compound Job, initial MDCI parallelization
   Dimitrios Manganas     : Further ROCIS development; embedding schemes
   Dimitrios Pantazis     : SARC Basis sets
   Taras Petrenko         : DFT Hessian,TD-DFT gradient, ASA, ECA, R-Raman, ABS, FL, XAS/XES, NRVS
   Peter Pinski           : DLPNO-MP2, DLPNO-MP2 Gradient
   Christoph Reimann      : Effective Core Potentials
   Marius Retegan         : Local ZFS, SOC
   Christoph Riplinger    : Optimizer, TS searches, QM/MM, DLPNO-CCSD(T), (RO)-DLPNO pert. Triples
   Tobias Risthaus        : Range-separated hybrids, TD-DFT gradient, RPA, STAB
   Michael Roemelt        : Original ROCIS implementation
   Masaaki Saitow         : Open-shell DLPNO-CCSD energy and density
   Barbara Sandhoefer     : DKH picture change effects
   Avijit Sen             : IP-ROCIS
   Kantharuban Sivalingam : CASSCF convergence, NEVPT2, FIC-MRCI
   Bernardo de Souza      : ESD, SOC TD-DFT
   Georgi Stoychev        : AutoAux, RI-MP2 NMR
   Willem Van den Heuvel  : Paramagnetic NMR
   Boris Wezisla          : Elementary symmetry handling
   Frank Wennmohs         : Technical directorship


 We gratefully acknowledge several colleagues who have allowed us to
 interface, adapt or use parts of their codes:
   Stefan Grimme, W. Hujo, H. Kruse,             : VdW corrections, initial TS optimization,
                  C. Bannwarth                     DFT functionals, gCP, sTDA/sTD-DF
   Ed Valeev, F. Pavosevic, A. Kumar             : LibInt (2-el integral package), F12 methods
   Garnet Chan, S. Sharma, J. Yang, R. Olivares  : DMRG
   Ulf Ekstrom                                   : XCFun DFT Library
   Mihaly Kallay                                 : mrcc  (arbitrary order and MRCC methods)
   Andreas Klamt, Michael Diedenhofen            : otool_cosmo (COSMO solvation model)
   Jiri Pittner, Ondrej Demel                    : Mk-CCSD
   Frank Weinhold                                : gennbo (NPA and NBO analysis)
   Christopher J. Cramer and Donald G. Truhlar   : smd solvation model
   Lars Goerigk                                  : TD-DFT with DH, B97 family of functionals
   V. Asgeirsson, H. Jonsson                     : NEB implementation
   FAccTs GmbH                                   : IRC, NEB, NEB-TS, Multilevel, MM, QM/MM, CI optimization
   S Lehtola, MJT Oliveira, MAL Marques          : LibXC Library


 Your calculation uses the libint2 library for the computation of 2-el integrals
 For citations please refer to: http://libint.valeyev.net

 Your ORCA version has been built with support for libXC version: 4.2.3
 For citations please refer to: https://tddft.org/programs/libxc/

 This ORCA versions uses:
   CBLAS   interface :  Fast vector & matrix operations
   LAPACKE interface :  Fast linear algebra routines
   SCALAPACK package :  Parallel linear algebra routines


Your calculation utilizes the atom-pairwise dispersion correction
with the Becke-Johnson damping scheme (D3BJ)
Cite in your paper:
S.Grimme, S.Ehrlich, L.Goerigk, J Comput Chem, (2011), 32, 1456–1465 
S.Grimme, J.Antony, S.Ehrlich and H.Krieg, J.Chem.Phys., 132, (2010), 154104 
   

----- Orbital basis set information -----
Your calculation utilizes the basis: def2-TZVPPD
   F. Weigend and R. Ahlrichs, Phys. Chem. Chem. Phys. 7, 3297 (2005).
   D. Rappoport and F. Furche, J. Chem. Phys. 133 134105 (2010).

----- AuxC basis set information -----
Your calculation utilizes the auxiliary basis: def2-TZVPPD/C
   A. Hellweg, C. Hattig, S. Hofener and W. Klopper, Theor. Chem. Acc. 117, 587 (2007).

----- AuxJK basis set information -----
Your calculation utilizes the auxiliary basis: def2/JK
   H-Ba, Hf-Rn: F. Weigend, J. Comput. Chem. 29, 167 (2008).

cite the ECPs for Rh [Def2-ECP] as follows:
Ce-Yb(ecp-28): M. Dolg, H. Stoll, H.Preuss, J. Chem. Phys., 1989, 90, 1730-1734.
Y-Cd(ecp-28), Hf-Hg(ecp-46): D. Andrae,U. Haeussermann, M. Dolg, H. Stoll, H. Preuss, Theor. Chim. Acta, 1990, 77, 123-141.
In-Sb(ecp-28), Tl-Bi(ecp-46): B. Metz, H. Stoll, M. Dolg, J. Chem. Phys., 2000, 113, 2563-2569.
Te-Xe(ecp-28), Po-Rn(ecp-46): K. A. Peterson, D. Figgen, E. Goll, H. Stoll, M. Dolg, J. Chem. Phys., 2003, 119, 11113-11123.
Rb(ecp-28), Cs(ecp-46): T. Leininger, A. Nicklass, W. Kuechle, H. Stoll, M. Dolg, A. Bergner, Chem. Phys. Lett., 1996, 255, 274-280.
Sr(ecp-28), Ba(ecp-46): M. Kaupp, P. V. Schleyer, H. Stoll and H. Preuss, J. Chem. Phys., 1991, 94, 1360-1366.
La(ecp-46): M. Dolg, H. Stoll, A. Savin, H. Preuss, Theor. Chim. Acta, 1989, 75, 173-194.
Lu(ecp-28): X. Cao, M. Dolg, J. Chem. Phys., 2001, 115, 7348-7355.

ECP parameters for Rh [Def2-ECP] have been obtained from:
TURBOMOLE (7.0.2)

================================================================================
                                        WARNINGS
                       Please study these warnings very carefully!
================================================================================


WARNING: No MP2 level density has been requested!
         To caclulate MP2 level properties use
         %mp2 Density relaxed end
         or
         %mp2 Density unrelaxed end
         Otherwise for double-hybrid DFT only the energy is correct!

WARNING: The frozen-core approximation is turned on by default for 
         the MP2 part of double-hybrid DFT.

INFO   : the flag for use of LIBINT has been found!

================================================================================
                                       INPUT FILE
================================================================================
NAME = MOR28_pr09.in
|  1> #
|  2> # MOR28_pr09 ri-B2PLYP-D3BJ/Def2-TZVPPD
|  3> #
|  4> ! rijk ri-b2plyp d3bj def2-tzvppd def2/jk def2-tzvppd/c grid4 nofinalgrid
|  5> 
|  6> *xyz 0 1
|  7> Rh       0.002553    0.015324   -0.037445 
|  8> P       -2.290286    0.102034   -0.002141 
|  9> P        2.295185    0.104741   -0.029108 
| 10> H       -0.000447    1.293328    0.830281 
| 11> H        0.001130    1.304527   -0.889045 
| 12> Cl       0.007749   -2.380443   -0.037879 
| 13> C        3.048741    1.714400   -0.468454 
| 14> C        3.042509   -0.273930    1.598336 
| 15> C        3.097153   -1.069215   -1.172055 
| 16> C       -3.110022   -0.330980   -1.580554 
| 17> C       -3.050128   -1.025999    1.213911 
| 18> C       -3.019556    1.731005    0.405513 
| 19> C        4.221249    1.798414   -1.230361 
| 20> C        4.789108    3.041134   -1.513476 
| 21> C        4.197347    4.208872   -1.032572 
| 22> C        3.028536    4.131819   -0.272310 
| 23> C        2.452968    2.893237    0.001453 
| 24> H        4.686057    0.892043   -1.605584 
| 25> H        5.694526    3.094809   -2.111614 
| 26> H        4.640059    5.175809   -1.254830 
| 27> H        2.559280    5.038271    0.099833 
| 28> H        1.532532    2.831516    0.574445 
| 29> C        2.492740   -1.274577   -2.419700 
| 30> C        3.069210   -2.141848   -3.343202 
| 31> C        4.245283   -2.823200   -3.021963 
| 32> C        4.842886   -2.633499   -1.775820 
| 33> C        4.272633   -1.757382   -0.851682 
| 34> H        1.559916   -0.765736   -2.648777 
| 35> H        2.592837   -2.299617   -4.306681 
| 36> H        4.688326   -3.509606   -3.738122 
| 37> H        5.750981   -3.171899   -1.518950 
| 38> H        4.733770   -1.615306    0.121218 
| 39> C        2.573432   -1.401325    2.291237 
| 40> C        3.112349   -1.729837    3.532773 
| 41> C        4.110733   -0.934394    4.100320 
| 42> C        4.573407    0.190471    3.418246 
| 43> C        4.043987    0.520908    2.169837 
| 44> H        1.789551   -2.010529    1.847481 
| 45> H        2.746524   -2.605505    4.061892 
| 46> H        4.523765   -1.189174    5.072491 
| 47> H        5.347947    0.814312    3.855909 
| 48> H        4.408962    1.396682    1.642408 
| 49> C       -4.114004    1.861395    1.269146 
| 50> C       -4.661457    3.119187    1.526531 
| 51> C       -4.128475    4.254505    0.917253 
| 52> C       -3.037090    4.130954    0.054341 
| 53> C       -2.480194    2.878757   -0.192845 
| 54> H       -4.534614    0.980084    1.743054 
| 55> H       -5.505661    3.209295    2.204432 
| 56> H       -4.556024    5.232793    1.118339 
| 57> H       -2.613755    5.012384   -0.419158 
| 58> H       -1.618255    2.782567   -0.846864 
| 59> C       -4.156822    0.429958   -2.116482 
| 60> C       -4.751801    0.052668   -3.321119 
| 61> C       -4.309469   -1.085441   -3.994829 
| 62> C       -3.265632   -1.846455   -3.463206 
| 63> C       -2.661736   -1.471384   -2.265369 
| 64> H       -4.506373    1.315520   -1.594998 
| 65> H       -5.561640    0.650007   -3.730969 
| 66> H       -4.773990   -1.377169   -4.932751 
| 67> H       -2.915705   -2.732129   -3.986302 
| 68> H       -1.843939   -2.054854   -1.849211 
| 69> C       -2.377196   -1.225504    2.426817 
| 70> C       -2.923708   -2.054207    3.402951 
| 71> C       -4.138807   -2.701607    3.169380 
| 72> C       -4.805427   -2.517892    1.957599 
| 73> C       -4.264583   -1.681339    0.980942 
| 74> H       -1.416572   -0.742639    2.587014 
| 75> H       -2.394478   -2.207926    4.339105 
| 76> H       -4.559549   -3.357196    3.926721 
| 77> H       -5.744700   -3.030292    1.768738 
| 78> H       -4.779554   -1.544060    0.034665 
| 79> *
| 80> 
| 81> %maxcore 5000
| 82> 
| 83> %pal
| 84> nprocs = 24
| 85> end
| 86> 
| 87> 
| 88>                          ****END OF INPUT****
================================================================================

                       ****************************
                       * Single Point Calculation *
                       ****************************

---------------------------------
CARTESIAN COORDINATES (ANGSTROEM)
---------------------------------
  Rh     0.002553    0.015324   -0.037445
  P     -2.290286    0.102034   -0.002141
  P      2.295185    0.104741   -0.029108
  H     -0.000447    1.293328    0.830281
  H      0.001130    1.304527   -0.889045
  Cl     0.007749   -2.380443   -0.037879
  C      3.048741    1.714400   -0.468454
  C      3.042509   -0.273930    1.598336
  C      3.097153   -1.069215   -1.172055
  C     -3.110022   -0.330980   -1.580554
  C     -3.050128   -1.025999    1.213911
  C     -3.019556    1.731005    0.405513
  C      4.221249    1.798414   -1.230361
  C      4.789108    3.041134   -1.513476
  C      4.197347    4.208872   -1.032572
  C      3.028536    4.131819   -0.272310
  C      2.452968    2.893237    0.001453
  H      4.686057    0.892043   -1.605584
  H      5.694526    3.094809   -2.111614
  H      4.640059    5.175809   -1.254830
  H      2.559280    5.038271    0.099833
  H      1.532532    2.831516    0.574445
  C      2.492740   -1.274577   -2.419700
  C      3.069210   -2.141848   -3.343202
  C      4.245283   -2.823200   -3.021963
  C      4.842886   -2.633499   -1.775820
  C      4.272633   -1.757382   -0.851682
  H      1.559916   -0.765736   -2.648777
  H      2.592837   -2.299617   -4.306681
  H      4.688326   -3.509606   -3.738122
  H      5.750981   -3.171899   -1.518950
  H      4.733770   -1.615306    0.121218
  C      2.573432   -1.401325    2.291237
  C      3.112349   -1.729837    3.532773
  C      4.110733   -0.934394    4.100320
  C      4.573407    0.190471    3.418246
  C      4.043987    0.520908    2.169837
  H      1.789551   -2.010529    1.847481
  H      2.746524   -2.605505    4.061892
  H      4.523765   -1.189174    5.072491
  H      5.347947    0.814312    3.855909
  H      4.408962    1.396682    1.642408
  C     -4.114004    1.861395    1.269146
  C     -4.661457    3.119187    1.526531
  C     -4.128475    4.254505    0.917253
  C     -3.037090    4.130954    0.054341
  C     -2.480194    2.878757   -0.192845
  H     -4.534614    0.980084    1.743054
  H     -5.505661    3.209295    2.204432
  H     -4.556024    5.232793    1.118339
  H     -2.613755    5.012384   -0.419158
  H     -1.618255    2.782567   -0.846864
  C     -4.156822    0.429958   -2.116482
  C     -4.751801    0.052668   -3.321119
  C     -4.309469   -1.085441   -3.994829
  C     -3.265632   -1.846455   -3.463206
  C     -2.661736   -1.471384   -2.265369
  H     -4.506373    1.315520   -1.594998
  H     -5.561640    0.650007   -3.730969
  H     -4.773990   -1.377169   -4.932751
  H     -2.915705   -2.732129   -3.986302
  H     -1.843939   -2.054854   -1.849211
  C     -2.377196   -1.225504    2.426817
  C     -2.923708   -2.054207    3.402951
  C     -4.138807   -2.701607    3.169380
  C     -4.805427   -2.517892    1.957599
  C     -4.264583   -1.681339    0.980942
  H     -1.416572   -0.742639    2.587014
  H     -2.394478   -2.207926    4.339105
  H     -4.559549   -3.357196    3.926721
  H     -5.744700   -3.030292    1.768738
  H     -4.779554   -1.544060    0.034665

----------------------------
CARTESIAN COORDINATES (A.U.)
----------------------------
  NO LB      ZA    FRAG     MASS         X           Y           Z
   0 Rh   17.0000*   0   102.910    0.004824    0.028958   -0.070761
   1 P    15.0000    0    30.974   -4.328013    0.192816   -0.004046
   2 P    15.0000    0    30.974    4.337271    0.197932   -0.055006
   3 H     1.0000    0     1.008   -0.000845    2.444036    1.569004
   4 H     1.0000    0     1.008    0.002135    2.465199   -1.680052
   5 Cl   17.0000    0    35.453    0.014643   -4.498385   -0.071581
   6 C     6.0000    0    12.011    5.761286    3.239746   -0.885250
   7 C     6.0000    0    12.011    5.749509   -0.517653    3.020417
   8 C     6.0000    0    12.011    5.852771   -2.020524   -2.214863
   9 C     6.0000    0    12.011   -5.877090   -0.625462   -2.986814
  10 C     6.0000    0    12.011   -5.763907   -1.938857    2.293959
  11 C     6.0000    0    12.011   -5.706134    3.271125    0.766309
  12 C     6.0000    0    12.011    7.977005    3.398510   -2.325045
  13 C     6.0000    0    12.011    9.050103    5.746910   -2.860055
  14 C     6.0000    0    12.011    7.931836    7.953615   -1.951278
  15 C     6.0000    0    12.011    5.723104    7.808006   -0.514591
  16 C     6.0000    0    12.011    4.635438    5.467426    0.002746
  17 H     1.0000    0     1.008    8.855364    1.685717   -3.034114
  18 H     1.0000    0     1.008   10.761095    5.848341   -3.990372
  19 H     1.0000    0     1.008    8.768441    9.780862   -2.371285
  20 H     1.0000    0     1.008    4.836338    9.520952    0.188657
  21 H     1.0000    0     1.008    2.896066    5.350790    1.085544
  22 C     6.0000    0    12.011    4.710596   -2.408601   -4.572570
  23 C     6.0000    0    12.011    5.799966   -4.047506   -6.317736
  24 C     6.0000    0    12.011    8.022422   -5.335075   -5.710682
  25 C     6.0000    0    12.011    9.151728   -4.976592   -3.355813
  26 C     6.0000    0    12.011    8.074106   -3.320971   -1.609446
  27 H     1.0000    0     1.008    2.947814   -1.447031   -5.005463
  28 H     1.0000    0     1.008    4.899752   -4.345646   -8.138448
  29 H     1.0000    0     1.008    8.859652   -6.632194   -7.064027
  30 H     1.0000    0     1.008   10.867779   -5.994020   -2.870400
  31 H     1.0000    0     1.008    8.945529   -3.052486    0.229069
  32 C     6.0000    0    12.011    4.863082   -2.648120    4.329810
  33 C     6.0000    0    12.011    5.881487   -3.268918    6.675973
  34 C     6.0000    0    12.011    7.768160   -1.765749    7.748482
  35 C     6.0000    0    12.011    8.642487    0.359938    6.459549
  36 C     6.0000    0    12.011    7.642028    0.984373    4.100398
  37 H     1.0000    0     1.008    3.381761   -3.799349    3.491233
  38 H     1.0000    0     1.008    5.190178   -4.923691    7.675863
  39 H     1.0000    0     1.008    8.548677   -2.247213    9.585619
  40 H     1.0000    0     1.008   10.106155    1.538827    7.286612
  41 H     1.0000    0     1.008    8.331731    2.639346    3.103701
  42 C     6.0000    0    12.011   -7.774341    3.517527    2.398338
  43 C     6.0000    0    12.011   -8.808877    5.894409    2.884726
  44 C     6.0000    0    12.011   -7.801687    8.039849    1.733357
  45 C     6.0000    0    12.011   -5.739268    7.806372    0.102690
  46 C     6.0000    0    12.011   -4.686887    5.440062   -0.364424
  47 H     1.0000    0     1.008   -8.569179    1.852090    3.293895
  48 H     1.0000    0     1.008  -10.404191    6.064689    4.165773
  49 H     1.0000    0     1.008   -8.609638    9.888546    2.113354
  50 H     1.0000    0     1.008   -4.939281    9.472033   -0.792094
  51 H     1.0000    0     1.008   -3.058059    5.258290   -1.600341
  52 C     6.0000    0    12.011   -7.855255    0.812503   -3.999571
  53 C     6.0000    0    12.011   -8.979603    0.099528   -6.276005
  54 C     6.0000    0    12.011   -8.143716   -2.051186   -7.549133
  55 C     6.0000    0    12.011   -6.171150   -3.489294   -6.544511
  56 C     6.0000    0    12.011   -5.029952   -2.780513   -4.280927
  57 H     1.0000    0     1.008   -8.515811    2.485973   -3.014109
  58 H     1.0000    0     1.008  -10.509976    1.228335   -7.050510
  59 H     1.0000    0     1.008   -9.021534   -2.602472   -9.321548
  60 H     1.0000    0     1.008   -5.509884   -5.162976   -7.533019
  61 H     1.0000    0     1.008   -3.484540   -3.883111   -3.494502
  62 C     6.0000    0    12.011   -4.492249   -2.315867    4.586020
  63 C     6.0000    0    12.011   -5.525007   -3.881889    6.430645
  64 C     6.0000    0    12.011   -7.821212   -5.105297    5.989260
  65 C     6.0000    0    12.011   -9.080941   -4.758126    3.699326
  66 C     6.0000    0    12.011   -8.058894   -3.177270    1.853712
  67 H     1.0000    0     1.008   -2.676933   -1.403384    4.888748
  68 H     1.0000    0     1.008   -4.524908   -4.172375    8.199720
  69 H     1.0000    0     1.008   -8.616299   -6.344181    7.420427
  70 H     1.0000    0     1.008  -10.855910   -5.726422    3.342430
  71 H     1.0000    0     1.008   -9.032048   -2.917851    0.065507
* core charge reduced due to ECP

--------------------------------
INTERNAL COORDINATES (ANGSTROEM)
--------------------------------
 Rh     0   0   0     0.000000000000     0.00000000     0.00000000
 P      1   0   0     2.294749589048     0.00000000     0.00000000
 P      1   2   0     2.294390200659   175.46790937     0.00000000
 H      1   2   3     1.544749699819    87.60182724    20.27659786
 H      1   2   4     1.545078949484    88.62653194   292.34270864
 Cl     1   2   4     2.395772673911    92.28991802   145.80580958
 C      3   1   4     1.830812292162   116.40245330   310.16438078
 C      3   1   4     1.830425868576   113.77426055    69.89215437
 C      3   1   4     1.824185628649   114.32655176   189.38302179
 C      2   1   4     1.830534302454   115.16556931   140.42172529
 C      2   1   4     1.824445335097   113.76730973   260.35690386
 C      2   1   4     1.830727460726   115.78948979    20.28869998
 C      7   3   1     1.400833908395   121.85418118   217.68935157
 C     13   7   3     1.395339007376   120.29196881   181.87192107
 C     14  13   7     1.394654715326   120.20335537     0.39327954
 C     15  14  13     1.396443563906   119.77990362   359.61865988
 C     16  15  14     1.392950133177   120.12627032   359.79694213
 H     13   7   3     1.085517004120   119.75725034     2.17890224
 H     14  13   7     1.086476795607   119.65987214   180.45550880
 H     15  14  13     1.086443599768   120.11611573   180.07062138
 H     16  15  14     1.086437680812   120.12996905   180.38926888
 H     17  16  15     1.085970415804   120.29490122   181.30616847
 C      9   3   1     1.401465900990   117.54756577    38.71278201
 C     23   9   3     1.391880954804   120.22220890   178.95920467
 C     24  23   9     1.396632644740   120.00849461     0.76629328
 C     25  24  23     1.394986806912   119.99114663   359.94047337
 C     26  25  24     1.395277938169   120.13014470   359.59454838
 H     23   9   3     1.086994043308   119.28288780   357.69523632
 H     24  23   9     1.086330555554   119.82369727   179.72803905
 H     25  24  23     1.086427176559   120.00030433   179.23154526
 H     26  25  24     1.086505078647   120.12281742   179.23296441
 H     27  26  25     1.085986801276   120.13009380   179.54379502
 C      8   3   1     1.403981664323   117.93762956    46.91908620
 C     33   8   3     1.392753857050   120.00440915   179.96392340
 C     34  33   8     1.397000277349   120.29029753     0.62777363
 C     35  34  33     1.394493972729   119.84827752   359.74530276
 C     36  35  34     1.395707411548   120.17360413   359.84387374
 H     33   8   3     1.087436583582   119.29461448     0.00000000
 H     34  33   8     1.086549259357   119.59818563   180.18509434
 H     35  34  33     1.086565568507   120.10850415   179.53504400
 H     36  35  34     1.086571997822   120.17344383   179.84223614
 H     37  36  35     1.085526692321   119.87219591   180.10519873
 C     12   2   1     1.400242813048   122.11035621   222.45359428
 C     43  12   2     1.395705033558   120.28088791   181.65678806
 C     44  43  12     1.394358796986   120.21561404     0.48444701
 C     45  44  43     1.396783156961   119.77482488   359.54402726
 C     46  45  44     1.392562889144   120.11039039   359.76950852
 H     43  12   2     1.085454118461   119.77193331     1.92144314
 H     44  43  12     1.086438958746   119.64315136   180.47883602
 H     45  44  43     1.086407445547   120.12471973   179.97483472
 H     46  45  44     1.086431162166   120.12884899   180.34087972
 H     47  46  45     1.086246844958   120.25356306   181.30496413
 C     10   2   1     1.400726847400   122.41631937   225.72440542
 C     53  10   2     1.395527877296   120.13383855   180.28238152
 C     54  53  10     1.394573360639   120.16030917     0.17610373
 C     55  54  53     1.396911237300   119.85177045   359.81679258
 C     56  55  54     1.392904200735   120.30139682   359.79824218
 H     53  10   2     1.085519009369   120.00139571     0.32483229
 H     54  53  10     1.086568041745   119.65241460   180.14770669
 H     55  54  53     1.086546208640   120.03489159   180.01699768
 H     56  55  54     1.086506679603   120.10076697   180.19369707
 H     57  56  55     1.087389835833   120.71001166   180.44286715
 C     11   2   1     1.401349594671   117.70577026    35.54878052
 C     63  11   2     1.392214643763   120.20483192   178.69125724
 C     64  63  11     1.396476907021   120.01613499     0.71407556
 C     65  64  63     1.395186947182   119.99782435     0.00000000
 C     66  65  64     1.395059873193   120.11766724   359.59213207
 H     63  11   2     1.087023530753   119.25378599   357.45762701
 H     64  63  11     1.086323264768   119.81517582   179.72500257
 H     65  64  63     1.086455778100   120.00756179   179.30181581
 H     66  65  64     1.086487922551   120.12813246   179.23434248
 H     67  66  65     1.086039048751   120.12957891   179.53830482

---------------------------
INTERNAL COORDINATES (A.U.)
---------------------------
 Rh     0   0   0     0.000000000000     0.00000000     0.00000000
 P      1   0   0     4.336448269229     0.00000000     0.00000000
 P      1   2   0     4.335769123599   175.46790937     0.00000000
 H      1   2   3     2.919153878116    87.60182724    20.27659786
 H      1   2   4     2.919776069811    88.62653194   292.34270864
 Cl     1   2   4     4.527354232825    92.28991802   145.80580958
 C      3   1   4     3.459733834804   116.40245330   310.16438078
 C      3   1   4     3.459003600054   113.77426055    69.89215437
 C      3   1   4     3.447211255581   114.32655176   189.38302179
 C      2   1   4     3.459208510387   115.16556931   140.42172529
 C      2   1   4     3.447702029643   113.76730973   260.35690386
 C      2   1   4     3.459573526622   115.78948979    20.28869998
 C      7   3   1     2.647192445977   121.85418118   217.68935157
 C     13   7   3     2.636808587919   120.29196881   181.87192107
 C     14  13   7     2.635515463348   120.20335537     0.39327954
 C     15  14  13     2.638895897259   119.77990362   359.61865988
 C     16  15  14     2.632294269913   120.12627032   359.79694213
 H     13   7   3     2.051329851502   119.75725034     2.17890224
 H     14  13   7     2.053143594558   119.65987214   180.45550880
 H     15  14  13     2.053080863513   120.11611573   180.07062138
 H     16  15  14     2.053069678308   120.12996905   180.38926888
 H     17  16  15     2.052186675410   120.29490122   181.30616847
 C      9   3   1     2.648386738900   117.54756577    38.71278201
 C     23   9   3     2.630273815600   120.22220890   178.95920467
 C     24  23   9     2.639253208253   120.00849461     0.76629328
 C     25  24  23     2.636143025497   119.99114663   359.94047337
 C     26  25  24     2.636693183842   120.13014470   359.59454838
 H     23   9   3     2.054121051055   119.28288780   357.69523632
 H     24  23   9     2.052867240908   119.82369727   179.72803905
 H     25  24  23     2.053049828146   120.00030433   179.23154526
 H     26  25  24     2.053197041757   120.12281742   179.23296441
 H     27  26  25     2.052217639464   120.13009380   179.54379502
 C      8   3   1     2.653140842617   117.93762956    46.91908620
 C     33   8   3     2.631923361788   120.00440915   179.96392340
 C     34  33   8     2.639947933202   120.29029753     0.62777363
 C     35  34  33     2.635211703861   119.84827752   359.74530276
 C     36  35  34     2.637504770910   120.17360413   359.84387374
 H     33   8   3     2.054957330977   119.29461448     0.00000000
 H     34  33   8     2.053280531200   119.59818563   180.18509434
 H     35  34  33     2.053311351027   120.10850415   179.53504400
 H     36  35  34     2.053323500670   120.17344383   179.84223614
 H     37  36  35     2.051348159549   119.87219591   180.10519873
 C     12   2   1     2.646075437653   122.11035621   222.45359428
 C     43  12   2     2.637500277159   120.28088791   181.65678806
 C     44  43  12     2.634956258727   120.21561404     0.48444701
 C     45  44  43     2.639537635130   119.77482488   359.54402726
 C     46  45  44     2.631562484744   120.11039039   359.76950852
 H     43  12   2     2.051211014829   119.77193331     1.92144314
 H     44  43  12     2.053072093252   119.64315136   180.47883602
 H     45  44  43     2.053012541938   120.12471973   179.97483472
 H     46  45  44     2.053057359852   120.12884899   180.34087972
 H     47  46  45     2.052709050807   120.25356306   181.30496413
 C     10   2   1     2.646990130017   122.41631937   225.72440542
 C     53  10   2     2.637165500342   120.13383855   180.28238152
 C     54  53  10     2.635361725271   120.16030917     0.17610373
 C     55  54  53     2.639779671893   119.85177045   359.81679258
 C     56  55  54     2.632207470178   120.30139682   359.79824218
 H     53  10   2     2.051333640873   120.00139571     0.32483229
 H     54  53  10     2.053316024770   119.65241460   180.14770669
 H     55  54  53     2.053274766179   120.03489159   180.01699768
 H     56  55  54     2.053200067125   120.10076697   180.19369707
 H     57  56  55     2.054868990534   120.71001166   180.44286715
 C     11   2   1     2.648166951810   117.70577026    35.54878052
 C     63  11   2     2.630904396347   120.20483192   178.69125724
 C     64  63  11     2.638958906614   120.01613499     0.71407556
 C     65  64  63     2.636521235795   119.99782435     0.00000000
 C     66  65  64     2.636281100758   120.11766724   359.59213207
 H     63  11   2     2.054176774251   119.25378599   357.45762701
 H     64  63  11     2.052853463319   119.81517582   179.72500257
 H     65  64  63     2.053103877225   120.00756179   179.30181581
 H     66  65  64     2.053164621435   120.12813246   179.23434248
 H     67  66  65     2.052316372883   120.12957891   179.53830482

---------------------
BASIS SET INFORMATION
---------------------
There are 5 groups of distinct atoms

 Group   1 Type Rh  : 7s7p6d2f1g contracted to 6s4p3d2f1g pattern {211111/4111/411/11/1}
 Group   2 Type P   : 15s9p4d1f contracted to 6s5p4d1f pattern {732111/51111/1111/1}
 Group   3 Type H   : 5s3p1d contracted to 3s3p1d pattern {311/111/1}
 Group   4 Type Cl  : 15s10p4d1f contracted to 6s6p4d1f pattern {732111/511111/1111/1}
 Group   5 Type C   : 12s6p3d1f contracted to 6s3p3d1f pattern {621111/411/111/1}

Atom   0Rh   basis set group =>   1
Atom   1P    basis set group =>   2
Atom   2P    basis set group =>   2
Atom   3H    basis set group =>   3
Atom   4H    basis set group =>   3
Atom   5Cl   basis set group =>   4
Atom   6C    basis set group =>   5
Atom   7C    basis set group =>   5
Atom   8C    basis set group =>   5
Atom   9C    basis set group =>   5
Atom  10C    basis set group =>   5
Atom  11C    basis set group =>   5
Atom  12C    basis set group =>   5
Atom  13C    basis set group =>   5
Atom  14C    basis set group =>   5
Atom  15C    basis set group =>   5
Atom  16C    basis set group =>   5
Atom  17H    basis set group =>   3
Atom  18H    basis set group =>   3
Atom  19H    basis set group =>   3
Atom  20H    basis set group =>   3
Atom  21H    basis set group =>   3
Atom  22C    basis set group =>   5
Atom  23C    basis set group =>   5
Atom  24C    basis set group =>   5
Atom  25C    basis set group =>   5
Atom  26C    basis set group =>   5
Atom  27H    basis set group =>   3
Atom  28H    basis set group =>   3
Atom  29H    basis set group =>   3
Atom  30H    basis set group =>   3
Atom  31H    basis set group =>   3
Atom  32C    basis set group =>   5
Atom  33C    basis set group =>   5
Atom  34C    basis set group =>   5
Atom  35C    basis set group =>   5
Atom  36C    basis set group =>   5
Atom  37H    basis set group =>   3
Atom  38H    basis set group =>   3
Atom  39H    basis set group =>   3
Atom  40H    basis set group =>   3
Atom  41H    basis set group =>   3
Atom  42C    basis set group =>   5
Atom  43C    basis set group =>   5
Atom  44C    basis set group =>   5
Atom  45C    basis set group =>   5
Atom  46C    basis set group =>   5
Atom  47H    basis set group =>   3
Atom  48H    basis set group =>   3
Atom  49H    basis set group =>   3
Atom  50H    basis set group =>   3
Atom  51H    basis set group =>   3
Atom  52C    basis set group =>   5
Atom  53C    basis set group =>   5
Atom  54C    basis set group =>   5
Atom  55C    basis set group =>   5
Atom  56C    basis set group =>   5
Atom  57H    basis set group =>   3
Atom  58H    basis set group =>   3
Atom  59H    basis set group =>   3
Atom  60H    basis set group =>   3
Atom  61H    basis set group =>   3
Atom  62C    basis set group =>   5
Atom  63C    basis set group =>   5
Atom  64C    basis set group =>   5
Atom  65C    basis set group =>   5
Atom  66C    basis set group =>   5
Atom  67H    basis set group =>   3
Atom  68H    basis set group =>   3
Atom  69H    basis set group =>   3
Atom  70H    basis set group =>   3
Atom  71H    basis set group =>   3
---------------------------------
AUXILIARY/C BASIS SET INFORMATION
---------------------------------
There are 5 groups of distinct atoms

 Group   1 Type Rh  : 8s7p6d5f4g3h1i contracted to 8s7p6d5f4g3h1i pattern {11111111/1111111/111111/11111/1111/111/1}
 Group   2 Type P   : 12s9p8d6f2g contracted to 12s9p8d6f2g pattern {111111111111/111111111/11111111/111111/11}
 Group   3 Type H   : 5s4p3d1f contracted to 5s4p3d1f pattern {11111/1111/111/1}
 Group   4 Type Cl  : 12s9p8d6f2g contracted to 12s9p8d6f2g pattern {111111111111/111111111/11111111/111111/11}
 Group   5 Type C   : 9s7p6d4f1g contracted to 9s7p5d4f1g pattern {111111111/1111111/21111/1111/1}

Atom   0Rh   basis set group =>   1
Atom   1P    basis set group =>   2
Atom   2P    basis set group =>   2
Atom   3H    basis set group =>   3
Atom   4H    basis set group =>   3
Atom   5Cl   basis set group =>   4
Atom   6C    basis set group =>   5
Atom   7C    basis set group =>   5
Atom   8C    basis set group =>   5
Atom   9C    basis set group =>   5
Atom  10C    basis set group =>   5
Atom  11C    basis set group =>   5
Atom  12C    basis set group =>   5
Atom  13C    basis set group =>   5
Atom  14C    basis set group =>   5
Atom  15C    basis set group =>   5
Atom  16C    basis set group =>   5
Atom  17H    basis set group =>   3
Atom  18H    basis set group =>   3
Atom  19H    basis set group =>   3
Atom  20H    basis set group =>   3
Atom  21H    basis set group =>   3
Atom  22C    basis set group =>   5
Atom  23C    basis set group =>   5
Atom  24C    basis set group =>   5
Atom  25C    basis set group =>   5
Atom  26C    basis set group =>   5
Atom  27H    basis set group =>   3
Atom  28H    basis set group =>   3
Atom  29H    basis set group =>   3
Atom  30H    basis set group =>   3
Atom  31H    basis set group =>   3
Atom  32C    basis set group =>   5
Atom  33C    basis set group =>   5
Atom  34C    basis set group =>   5
Atom  35C    basis set group =>   5
Atom  36C    basis set group =>   5
Atom  37H    basis set group =>   3
Atom  38H    basis set group =>   3
Atom  39H    basis set group =>   3
Atom  40H    basis set group =>   3
Atom  41H    basis set group =>   3
Atom  42C    basis set group =>   5
Atom  43C    basis set group =>   5
Atom  44C    basis set group =>   5
Atom  45C    basis set group =>   5
Atom  46C    basis set group =>   5
Atom  47H    basis set group =>   3
Atom  48H    basis set group =>   3
Atom  49H    basis set group =>   3
Atom  50H    basis set group =>   3
Atom  51H    basis set group =>   3
Atom  52C    basis set group =>   5
Atom  53C    basis set group =>   5
Atom  54C    basis set group =>   5
Atom  55C    basis set group =>   5
Atom  56C    basis set group =>   5
Atom  57H    basis set group =>   3
Atom  58H    basis set group =>   3
Atom  59H    basis set group =>   3
Atom  60H    basis set group =>   3
Atom  61H    basis set group =>   3
Atom  62C    basis set group =>   5
Atom  63C    basis set group =>   5
Atom  64C    basis set group =>   5
Atom  65C    basis set group =>   5
Atom  66C    basis set group =>   5
Atom  67H    basis set group =>   3
Atom  68H    basis set group =>   3
Atom  69H    basis set group =>   3
Atom  70H    basis set group =>   3
Atom  71H    basis set group =>   3
----------------------------------
AUXILIARY/JK BASIS SET INFORMATION
----------------------------------
There are 5 groups of distinct atoms

 Group   1 Type Rh  : 13s12p10d9f6g3h2i contracted to 11s10p9d8f6g3h2i pattern {31111111111/3111111111/211111111/21111111/111111/111/11}
 Group   2 Type P   : 16s12p10d4f1g contracted to 13s11p9d4f1g pattern {4111111111111/21111111111/211111111/1111/1}
 Group   3 Type H   : 4s2p2d contracted to 2s2p2d pattern {31/11/11}
 Group   4 Type Cl  : 16s12p10d4f1g contracted to 13s11p9d4f1g pattern {4111111111111/21111111111/211111111/1111/1}
 Group   5 Type C   : 14s10p6d2f1g contracted to 10s8p5d1f1g pattern {5111111111/31111111/21111/2/1}

Atom   0Rh   basis set group =>   1
Atom   1P    basis set group =>   2
Atom   2P    basis set group =>   2
Atom   3H    basis set group =>   3
Atom   4H    basis set group =>   3
Atom   5Cl   basis set group =>   4
Atom   6C    basis set group =>   5
Atom   7C    basis set group =>   5
Atom   8C    basis set group =>   5
Atom   9C    basis set group =>   5
Atom  10C    basis set group =>   5
Atom  11C    basis set group =>   5
Atom  12C    basis set group =>   5
Atom  13C    basis set group =>   5
Atom  14C    basis set group =>   5
Atom  15C    basis set group =>   5
Atom  16C    basis set group =>   5
Atom  17H    basis set group =>   3
Atom  18H    basis set group =>   3
Atom  19H    basis set group =>   3
Atom  20H    basis set group =>   3
Atom  21H    basis set group =>   3
Atom  22C    basis set group =>   5
Atom  23C    basis set group =>   5
Atom  24C    basis set group =>   5
Atom  25C    basis set group =>   5
Atom  26C    basis set group =>   5
Atom  27H    basis set group =>   3
Atom  28H    basis set group =>   3
Atom  29H    basis set group =>   3
Atom  30H    basis set group =>   3
Atom  31H    basis set group =>   3
Atom  32C    basis set group =>   5
Atom  33C    basis set group =>   5
Atom  34C    basis set group =>   5
Atom  35C    basis set group =>   5
Atom  36C    basis set group =>   5
Atom  37H    basis set group =>   3
Atom  38H    basis set group =>   3
Atom  39H    basis set group =>   3
Atom  40H    basis set group =>   3
Atom  41H    basis set group =>   3
Atom  42C    basis set group =>   5
Atom  43C    basis set group =>   5
Atom  44C    basis set group =>   5
Atom  45C    basis set group =>   5
Atom  46C    basis set group =>   5
Atom  47H    basis set group =>   3
Atom  48H    basis set group =>   3
Atom  49H    basis set group =>   3
Atom  50H    basis set group =>   3
Atom  51H    basis set group =>   3
Atom  52C    basis set group =>   5
Atom  53C    basis set group =>   5
Atom  54C    basis set group =>   5
Atom  55C    basis set group =>   5
Atom  56C    basis set group =>   5
Atom  57H    basis set group =>   3
Atom  58H    basis set group =>   3
Atom  59H    basis set group =>   3
Atom  60H    basis set group =>   3
Atom  61H    basis set group =>   3
Atom  62C    basis set group =>   5
Atom  63C    basis set group =>   5
Atom  64C    basis set group =>   5
Atom  65C    basis set group =>   5
Atom  66C    basis set group =>   5
Atom  67H    basis set group =>   3
Atom  68H    basis set group =>   3
Atom  69H    basis set group =>   3
Atom  70H    basis set group =>   3
Atom  71H    basis set group =>   3
-------------------------
ECP PARAMETER INFORMATION
-------------------------

 Group 1, Type Rh ECP Def2-ECP (replacing 28 core electrons, lmax=3)

Atom   0Rh   ECP group =>   1



           ************************************************************
           *        Program running with 24 parallel MPI-processes    *
           *              working on a common directory               *
           ************************************************************
------------------------------------------------------------------------------
                           ORCA GTO INTEGRAL CALCULATION
                           -- RI-GTO INTEGRALS CHOSEN --
------------------------------------------------------------------------------

                         BASIS SET STATISTICS AND STARTUP INFO

Gaussian basis set:
 # of primitive gaussian shells          ... 1191
 # of primitive gaussian functions       ... 2771
 # of contracted shells                  ...  757
 # of contracted basis functions         ... 2079
 Highest angular momentum                ...    4
 Maximum contraction depth               ...    7
Auxiliary gaussian basis set:
 # of primitive gaussian shells          ... 1628
 # of primitive gaussian functions       ... 4824
 # of contracted shells                  ... 1255
 # of contracted aux-basis functions     ... 3915
 Highest angular momentum                ...    6
 Maximum contraction depth               ...    5
Ratio of auxiliary to basis functions    ...  1.88
Integral package used                  ... LIBINT
 One Electron integrals                  
   ECP integrals                         ... done
 Ordering auxiliary basis shells         ... done
 Integral threshhold             Thresh  ...  1.000e-10
 Primitive cut-off               TCut    ...  1.000e-11
 Pre-screening matrix                    ... done
 Shell pair data                         ... 
 Ordering of the shell pairs             ... done (   0.041 sec) 185129 of 286903 pairs
 Determination of significant pairs      ... done (   0.001 sec)
 Creation of shell pair data             ... done (   0.017 sec)
 Storage of shell pair data              ... done (   0.024 sec)
 Shell pair data done in (   0.083 sec)
 Computing two index integrals           ... done
 Cholesky decomposition of the V-matrix  ... done


Timings:
 Total evaluation time                   ...  13.221 sec (  0.220 min)
 One electron matrix time                ...  10.009 sec (  0.167 min) = 75.7%
 Schwartz matrix evaluation time         ...   1.867 sec (  0.031 min) = 14.1%
 Two index repulsion integral time       ...   0.496 sec (  0.008 min) =  3.8%
 Cholesky decomposition of V             ...   0.739 sec (  0.012 min) =  5.6%
 Three index repulsion integral time     ...   0.000 sec (  0.000 min) =  0.0%



           ************************************************************
           *        Program running with 24 parallel MPI-processes    *
           *              working on a common directory               *
           ************************************************************
-------------------------------------------------------------------------------
                                 ORCA SCF
-------------------------------------------------------------------------------

------------
SCF SETTINGS
------------
Hamiltonian:
 Density Functional     Method          .... DFT(GTOs)
 Exchange Functional    Exchange        .... B88
   X-Alpha parameter    XAlpha          ....  0.666667
   Becke's b parameter  XBeta           ....  0.004200
 Correlation Functional Correlation     .... LYP
 LDA part of GGA corr.  LDAOpt          .... VWN-3
 Gradients option       PostSCFGGA      .... off
 Hybrid DFT is turned on
   Fraction HF Exchange ScalHFX         ....  0.530000
   Scaling of DF-GGA-X  ScalDFX         ....  0.470000
   Scaling of DF-GGA-C  ScalDFC         ....  0.730000
   Scaling of DF-LDA-C  ScalLDAC        ....  0.730000
   Perturbative correction              ....  0.270000
   Density functional embedding theory  .... OFF
 RI-approximation to the Coulomb term is turned on
   Number of auxiliary basis functions  .... 3915
   RI-JK (J+K treated both via RI)      .... on


General Settings:
 Integral files         IntName         .... MOR28_pr09
 Hartree-Fock type      HFTyp           .... RHF
 Total Charge           Charge          ....    0
 Multiplicity           Mult            ....    1
 Number of Electrons    NEL             ....  312
 Basis Dimension        Dim             .... 2079
 Nuclear Repulsion      ENuc            ....   5365.2837436785 Eh

Convergence Acceleration:
 DIIS                   CNVDIIS         .... on
   Start iteration      DIISMaxIt       ....    12
   Startup error        DIISStart       ....  0.200000
   # of expansion vecs  DIISMaxEq       ....     5
   Bias factor          DIISBfac        ....   1.050
   Max. coefficient     DIISMaxC        ....  10.000
 Newton-Raphson         CNVNR           .... off
 SOSCF                  CNVSOSCF        .... off
 Level Shifting         CNVShift        .... on
   Level shift para.    LevelShift      ....    0.2500
   Turn off err/grad.   ShiftErr        ....    0.0010
 Zerner damping         CNVZerner       .... off
 Static damping         CNVDamp         .... on
   Fraction old density DampFac         ....    0.7000
   Max. Damping (<1)    DampMax         ....    0.9800
   Min. Damping (>=0)   DampMin         ....    0.0000
   Turn off err/grad.   DampErr         ....    0.1000
 Fernandez-Rico         CNVRico         .... off

SCF Procedure:
 Maximum # iterations   MaxIter         ....   125
 SCF integral mode      SCFMode         .... Direct
   Integral package                     .... LIBINT
 Reset frequency        DirectResetFreq ....    20
 Integral Threshold     Thresh          ....  1.000e-10 Eh
 Primitive CutOff       TCut            ....  1.000e-11 Eh

Convergence Tolerance:
 Convergence Check Mode ConvCheckMode   .... Total+1el-Energy
 Convergence forced     ConvForced      .... 0
 Energy Change          TolE            ....  1.000e-06 Eh
 1-El. energy change                    ....  1.000e-03 Eh
 DIIS Error             TolErr          ....  1.000e-06


Diagonalization of the overlap matrix:
Smallest eigenvalue                        ... 2.955e-07
Time for diagonalization                   ...    0.539 sec
Threshold for overlap eigenvalues          ... 1.000e-08
Number of eigenvalues below threshold      ... 0
Time for construction of square roots      ...    0.609 sec
Total time needed                          ...    1.172 sec

-------------------
DFT GRID GENERATION
-------------------

General Integration Accuracy     IntAcc      ...  4.670
Radial Grid Type                 RadialGrid  ... Gauss-Chebyshev
Angular Grid (max. acc.)         AngularGrid ... Lebedev-302
Angular grid pruning method      GridPruning ... 3 (G Style)
Weight generation scheme         WeightScheme... Becke
Basis function cutoff            BFCut       ...    1.0000e-10
Integration weight cutoff        WCut        ...    1.0000e-14
Grids for H and He will be reduced by one unit

# of grid points (after initial pruning)     ... 363268 (   0.0 sec)
# of grid points (after weights+screening)   ... 308893 (   0.5 sec)
nearest neighbour list constructed           ...    0.0 sec
Grid point re-assignment to atoms done       ...    0.1 sec
Grid point division into batches done        ...    0.9 sec
Reduced shell lists constructed in    3.2 sec

Total number of grid points                  ...   308893
Total number of batches                      ...     4862
Average number of points per batch           ...       63
Average number of grid points per atom       ...     4290
Average number of shells per batch           ...   367.94 (48.60%)
Average number of basis functions per batch  ...   982.58 (47.26%)
Average number of large shells per batch     ...   246.85 (67.09%)
Average number of large basis fcns per batch ...   663.85 (67.56%)
Average number of aux-shells per batch       ...   367.94 (29.32%)
Average number of aux functions per batch    ...   982.58 (25.10%)
Maximum spatial batch extension              ...   2.39,  2.29,  2.72 au
Average spatial batch extension              ...   0.04,  0.04,  0.04 au

Time for grid setup =    4.049 sec

------------------------------
INITIAL GUESS: MODEL POTENTIAL
------------------------------
Loading Hartree-Fock densities                     ... done
  calling /sw/apps/orca/orca_4_2_0_linux_x86-64_openmpi314/orca MOR28_pr09_atom45.inp > MOR28_pr09_atom45.out in order to generate an atomic fitting density for atom 0 (Rh with ECP) on-the-fly... 
    atom 0 (Rh), assumed electronic state with S=4: 1s2 2s2 2p6 3s2 3p6 4s2 3d10 4p6 5s2 4d7           ... done
Calculating cut-offs                               ... done
Setting up the integral package                    ... done
Initializing the effective Hamiltonian             ... done
Starting the Coulomb interaction                   ... done (   0.9 sec)
Reading the grid                                   ... done
Mapping shells                                     ... done
Starting the XC term evaluation                    ... done (   1.9 sec)
  promolecular density results
     # of electrons  =    339.984399097
     EX              =   -401.617538828
     EC              =     -4.320102938
     EX+EC           =   -405.937641766
Transforming the Hamiltonian                       ... done (   0.3 sec)
Diagonalizing the Hamiltonian                      ... done (   0.6 sec)
Back transforming the eigenvectors                 ... done (   0.2 sec)
Now organizing SCF variables                       ... done
                      ------------------
                      INITIAL GUESS DONE (   9.5 sec)
                      ------------------
--------------
SCF ITERATIONS
--------------
ITER       Energy         Delta-E        Max-DP      RMS-DP      [F,P]     Damp
  0  -2640.1953044865   0.000000000000 0.49587662  0.00227996  0.4258885 0.7000
  1  -2639.8947471131   0.300557373459 0.38878825  0.00193847  0.3005592 0.7000
  2  -2640.1683853204  -0.273638207344 0.36619690  0.00142578  0.2027244 0.7000
                               ***Turning on DIIS***
  3  -2640.5817563107  -0.413370990288 0.28675866  0.00100404  0.1392274 0.7000
  4  -2640.9125608423  -0.330804531596 0.75138268  0.00234347  0.0981991 0.0000
  5  -2641.2444576857  -0.331896843456 0.10371218  0.00052526  0.0194071 0.0000
  6  -2641.2491681648  -0.004710479009 0.07832017  0.00030228  0.0140815 0.0000
  7  -2641.2501208225  -0.000952657700 0.06778584  0.00024425  0.0106464 0.0000
  8  -2641.2506298300  -0.000509007535 0.09361720  0.00031808  0.0033126 0.0000
  9  -2641.2507350397  -0.000105209745 0.05358500  0.00016327  0.0010132 0.0000
 10  -2641.2507480394  -0.000012999648 0.10398681  0.00029761  0.0001884 0.0000
 11  -2641.2507491787  -0.000001139280 0.07501921  0.00018852  0.0001070 0.0000
 12  -2641.2507493234  -0.000000144765 0.07293790  0.00015546  0.0000871 0.0000
 13  -2641.2507493863  -0.000000062913 0.06279869  0.00015401  0.0000807 0.0000
                 **** Energy Check signals convergence ****

               *****************************************************
               *                     SUCCESS                       *
               *           SCF CONVERGED AFTER  14 CYCLES          *
               *****************************************************


----------------
TOTAL SCF ENERGY
----------------

Total Energy       :        -2641.25074940 Eh          -71872.08680 eV

Components:
Nuclear Repulsion  :         5365.28374368 Eh          145996.79300 eV
Electronic Energy  :        -8006.53449308 Eh         -217868.87980 eV
One Electron Energy:       -14343.75615457 Eh         -390313.44812 eV
Two Electron Energy:         6337.22166149 Eh          172444.56832 eV

Virial components:
Potential Energy   :        -5206.17650898 Eh         -141667.26503 eV
Kinetic Energy     :         2564.92575958 Eh           69795.17824 eV
Virial Ratio       :            2.02975719


DFT components:
N(Alpha)           :      155.999766134785 electrons
N(Beta)            :      155.999766134785 electrons
N(Total)           :      311.999532269571 electrons
E(X)               :     -132.631423031251 Eh       
E(C)               :       -7.960424445954 Eh       
E(XC)              :     -140.591847477205 Eh       
DFET-embed. en.    :        0.000000000000 Eh       

---------------
SCF CONVERGENCE
---------------

  Last Energy change         ...   -1.3581e-08  Tolerance :   1.0000e-06
  Last MAX-Density change    ...    6.3020e-02  Tolerance :   1.0000e-05
  Last RMS-Density change    ...    1.6736e-04  Tolerance :   1.0000e-06
  Last DIIS Error            ...    5.1768e-05  Tolerance :   1.0000e-06

             **** THE GBW FILE WAS UPDATED (MOR28_pr09.gbw) ****
             **** DENSITY FILE WAS UPDATED (MOR28_pr09.scfp) ****
             **** ENERGY FILE WAS UPDATED (MOR28_pr09.en.tmp) ****
             **** THE GBW FILE WAS UPDATED (MOR28_pr09.gbw) ****
             **** DENSITY FILE WAS UPDATED (MOR28_pr09.scfp) ****
----------------
ORBITAL ENERGIES
----------------

  NO   OCC          E(Eh)            E(eV) 
   0   2.0000    -102.809608     -2797.5917 
   1   2.0000     -78.293650     -2130.4785 
   2   2.0000     -78.293603     -2130.4773 
   3   2.0000     -10.632816      -289.3336 
   4   2.0000     -10.632657      -289.3293 
   5   2.0000     -10.630268      -289.2643 
   6   2.0000     -10.630026      -289.2577 
   7   2.0000     -10.629481      -289.2429 
   8   2.0000     -10.629245      -289.2365 
   9   2.0000     -10.629215      -289.2357 
  10   2.0000     -10.628978      -289.2292 
  11   2.0000     -10.628550      -289.2175 
  12   2.0000     -10.628466      -289.2153 
  13   2.0000     -10.627345      -289.1848 
  14   2.0000     -10.627336      -289.1845 
  15   2.0000     -10.627224      -289.1815 
  16   2.0000     -10.627110      -289.1784 
  17   2.0000     -10.626760      -289.1688 
  18   2.0000     -10.626566      -289.1636 
  19   2.0000     -10.625838      -289.1437 
  20   2.0000     -10.625630      -289.1381 
  21   2.0000     -10.625298      -289.1291 
  22   2.0000     -10.625075      -289.1230 
  23   2.0000     -10.624272      -289.1011 
  24   2.0000     -10.624113      -289.0968 
  25   2.0000     -10.623915      -289.0914 
  26   2.0000     -10.623671      -289.0848 
  27   2.0000     -10.623294      -289.0745 
  28   2.0000     -10.623065      -289.0683 
  29   2.0000     -10.622914      -289.0642 
  30   2.0000     -10.622686      -289.0580 
  31   2.0000     -10.621409      -289.0232 
  32   2.0000     -10.621101      -289.0148 
  33   2.0000     -10.621079      -289.0142 
  34   2.0000     -10.620707      -289.0041 
  35   2.0000     -10.620462      -288.9975 
  36   2.0000     -10.620159      -288.9892 
  37   2.0000     -10.619505      -288.9714 
  38   2.0000     -10.619113      -288.9608 
  39   2.0000      -9.815719      -267.0993 
  40   2.0000      -7.452791      -202.8008 
  41   2.0000      -7.451543      -202.7668 
  42   2.0000      -7.450710      -202.7441 
  43   2.0000      -6.960978      -189.4178 
  44   2.0000      -6.960919      -189.4162 
  45   2.0000      -5.012378      -136.3938 
  46   2.0000      -5.012321      -136.3922 
  47   2.0000      -5.012275      -136.3909 
  48   2.0000      -5.012218      -136.3894 
  49   2.0000      -5.010035      -136.3300 
  50   2.0000      -5.009974      -136.3283 
  51   2.0000      -3.462325       -94.2147 
  52   2.0000      -2.161491       -58.8172 
  53   2.0000      -2.157099       -58.6977 
  54   2.0000      -2.145711       -58.3878 
  55   2.0000      -0.991715       -26.9859 
  56   2.0000      -0.991550       -26.9814 
  57   2.0000      -0.982042       -26.7227 
  58   2.0000      -0.981959       -26.7205 
  59   2.0000      -0.979084       -26.6422 
  60   2.0000      -0.979022       -26.6405 
  61   2.0000      -0.894799       -24.3487 
  62   2.0000      -0.893895       -24.3241 
  63   2.0000      -0.867133       -23.5959 
  64   2.0000      -0.866999       -23.5922 
  65   2.0000      -0.863414       -23.4947 
  66   2.0000      -0.863082       -23.4857 
  67   2.0000      -0.861489       -23.4423 
  68   2.0000      -0.861193       -23.4343 
  69   2.0000      -0.858551       -23.3624 
  70   2.0000      -0.858429       -23.3590 
  71   2.0000      -0.856562       -23.3082 
  72   2.0000      -0.856499       -23.3065 
  73   2.0000      -0.829101       -22.5610 
  74   2.0000      -0.758193       -20.6315 
  75   2.0000      -0.755406       -20.5556 
  76   2.0000      -0.707675       -19.2568 
  77   2.0000      -0.707326       -19.2473 
  78   2.0000      -0.703855       -19.1529 
  79   2.0000      -0.703374       -19.1398 
  80   2.0000      -0.701815       -19.0974 
  81   2.0000      -0.701492       -19.0886 
  82   2.0000      -0.692230       -18.8365 
  83   2.0000      -0.692189       -18.8354 
  84   2.0000      -0.689819       -18.7709 
  85   2.0000      -0.689753       -18.7691 
  86   2.0000      -0.650512       -17.7013 
  87   2.0000      -0.647503       -17.6194 
  88   2.0000      -0.602525       -16.3955 
  89   2.0000      -0.602122       -16.3846 
  90   2.0000      -0.598468       -16.2851 
  91   2.0000      -0.598221       -16.2784 
  92   2.0000      -0.579889       -15.7796 
  93   2.0000      -0.577292       -15.7089 
  94   2.0000      -0.537983       -14.6393 
  95   2.0000      -0.537922       -14.6376 
  96   2.0000      -0.537533       -14.6270 
  97   2.0000      -0.536028       -14.5861 
  98   2.0000      -0.533532       -14.5181 
  99   2.0000      -0.532289       -14.4843 
 100   2.0000      -0.526410       -14.3243 
 101   2.0000      -0.526179       -14.3181 
 102   2.0000      -0.525425       -14.2975 
 103   2.0000      -0.525243       -14.2926 
 104   2.0000      -0.519008       -14.1229 
 105   2.0000      -0.517444       -14.0804 
 106   2.0000      -0.500820       -13.6280 
 107   2.0000      -0.499130       -13.5820 
 108   2.0000      -0.494695       -13.4613 
 109   2.0000      -0.494445       -13.4545 
 110   2.0000      -0.493854       -13.4385 
 111   2.0000      -0.493127       -13.4187 
 112   2.0000      -0.484763       -13.1911 
 113   2.0000      -0.484666       -13.1884 
 114   2.0000      -0.480283       -13.0692 
 115   2.0000      -0.479731       -13.0542 
 116   2.0000      -0.455338       -12.3904 
 117   2.0000      -0.442494       -12.0409 
 118   2.0000      -0.436036       -11.8651 
 119   2.0000      -0.433359       -11.7923 
 120   2.0000      -0.430903       -11.7255 
 121   2.0000      -0.430454       -11.7133 
 122   2.0000      -0.430231       -11.7072 
 123   2.0000      -0.427487       -11.6325 
 124   2.0000      -0.422673       -11.5015 
 125   2.0000      -0.416641       -11.3374 
 126   2.0000      -0.415220       -11.2987 
 127   2.0000      -0.411729       -11.2037 
 128   2.0000      -0.411390       -11.1945 
 129   2.0000      -0.410327       -11.1656 
 130   2.0000      -0.409638       -11.1468 
 131   2.0000      -0.398153       -10.8343 
 132   2.0000      -0.396611       -10.7923 
 133   2.0000      -0.392928       -10.6921 
 134   2.0000      -0.392755       -10.6874 
 135   2.0000      -0.389572       -10.6008 
 136   2.0000      -0.375156       -10.2085 
 137   2.0000      -0.350265        -9.5312 
 138   2.0000      -0.342203        -9.3118 
 139   2.0000      -0.337696        -9.1892 
 140   2.0000      -0.317922        -8.6511 
 141   2.0000      -0.309388        -8.4189 
 142   2.0000      -0.303254        -8.2520 
 143   2.0000      -0.302752        -8.2383 
 144   2.0000      -0.301335        -8.1997 
 145   2.0000      -0.301012        -8.1909 
 146   2.0000      -0.299112        -8.1392 
 147   2.0000      -0.298028        -8.1097 
 148   2.0000      -0.292907        -7.9704 
 149   2.0000      -0.292271        -7.9531 
 150   2.0000      -0.291459        -7.9310 
 151   2.0000      -0.289654        -7.8819 
 152   2.0000      -0.288270        -7.8442 
 153   2.0000      -0.277861        -7.5610 
 154   2.0000      -0.276824        -7.5328 
 155   2.0000      -0.260423        -7.0865 
 156   0.0000      -0.003227        -0.0878 
 157   0.0000       0.010579         0.2879 
 158   0.0000       0.017038         0.4636 
 159   0.0000       0.017630         0.4797 
 160   0.0000       0.019547         0.5319 
 161   0.0000       0.022386         0.6091 
 162   0.0000       0.022463         0.6112 
 163   0.0000       0.024410         0.6642 
 164   0.0000       0.025288         0.6881 
 165   0.0000       0.030454         0.8287 
 166   0.0000       0.034106         0.9281 
 167   0.0000       0.036144         0.9835 
 168   0.0000       0.038456         1.0464 
 169   0.0000       0.042374         1.1530 
 170   0.0000       0.042873         1.1666 
 171   0.0000       0.044077         1.1994 
 172   0.0000       0.044871         1.2210 
 173   0.0000       0.046423         1.2632 
 174   0.0000       0.047147         1.2829 
 175   0.0000       0.051226         1.3939 
 176   0.0000       0.055560         1.5119 
 177   0.0000       0.055842         1.5195 
 178   0.0000       0.059818         1.6277 
 179   0.0000       0.063807         1.7363 
 180   0.0000       0.065668         1.7869 
 181   0.0000       0.066763         1.8167 
 182   0.0000       0.069763         1.8984 
 183   0.0000       0.075985         2.0677 
 184   0.0000       0.076288         2.0759 
 185   0.0000       0.079606         2.1662 
 186   0.0000       0.081611         2.2207 
 187   0.0000       0.082995         2.2584 
 188   0.0000       0.087127         2.3709 
 189   0.0000       0.088923         2.4197 
 190   0.0000       0.092089         2.5059 
 191   0.0000       0.096585         2.6282 
 192   0.0000       0.097232         2.6458 
 193   0.0000       0.099543         2.7087 
 194   0.0000       0.102517         2.7896 
 195   0.0000       0.104651         2.8477 
 196   0.0000       0.106905         2.9090 
 197   0.0000       0.108343         2.9482 
 198   0.0000       0.114367         3.1121 
 199   0.0000       0.115477         3.1423 
 200   0.0000       0.118476         3.2239 
 201   0.0000       0.120173         3.2701 
 202   0.0000       0.127796         3.4775 
 203   0.0000       0.129179         3.5151 
 204   0.0000       0.134138         3.6501 
 205   0.0000       0.137262         3.7351 
 206   0.0000       0.140210         3.8153 
 207   0.0000       0.143657         3.9091 
 208   0.0000       0.145372         3.9558 
 209   0.0000       0.147197         4.0054 
 210   0.0000       0.148406         4.0383 
 211   0.0000       0.151763         4.1297 
 212   0.0000       0.153044         4.1645 
 213   0.0000       0.154273         4.1980 
 214   0.0000       0.156331         4.2540 
 215   0.0000       0.157082         4.2744 
 216   0.0000       0.158928         4.3247 
 217   0.0000       0.161030         4.3819 
 218   0.0000       0.163153         4.4396 
 219   0.0000       0.164620         4.4795 
 220   0.0000       0.166543         4.5319 
 221   0.0000       0.167032         4.5452 
 222   0.0000       0.168686         4.5902 
 223   0.0000       0.170633         4.6431 
 224   0.0000       0.177395         4.8272 
 225   0.0000       0.179868         4.8945 
 226   0.0000       0.182238         4.9589 
 227   0.0000       0.182816         4.9747 
 228   0.0000       0.183913         5.0045 
 229   0.0000       0.186308         5.0697 
 230   0.0000       0.187569         5.1040 
 231   0.0000       0.191582         5.2132 
 232   0.0000       0.191738         5.2175 
 233   0.0000       0.192452         5.2369 
 234   0.0000       0.193374         5.2620 
 235   0.0000       0.193957         5.2778 
 236   0.0000       0.197097         5.3633 
 237   0.0000       0.198504         5.4016 
 238   0.0000       0.199800         5.4368 
 239   0.0000       0.201031         5.4703 
 240   0.0000       0.201987         5.4963 
 241   0.0000       0.203934         5.5493 
 242   0.0000       0.204390         5.5617 
 243   0.0000       0.206240         5.6121 
 244   0.0000       0.207461         5.6453 
 245   0.0000       0.207988         5.6596 
 246   0.0000       0.211266         5.7488 
 247   0.0000       0.212735         5.7888 
 248   0.0000       0.215093         5.8530 
 249   0.0000       0.218386         5.9426 
 250   0.0000       0.219338         5.9685 
 251   0.0000       0.224288         6.1032 
 252   0.0000       0.226098         6.1524 
 253   0.0000       0.226826         6.1722 
 254   0.0000       0.229511         6.2453 
 255   0.0000       0.230172         6.2633 
 256   0.0000       0.234719         6.3870 
 257   0.0000       0.236628         6.4390 
 258   0.0000       0.236708         6.4412 
 259   0.0000       0.237331         6.4581 
 260   0.0000       0.238239         6.4828 
 261   0.0000       0.240648         6.5484 
 262   0.0000       0.241054         6.5594 
 263   0.0000       0.244589         6.6556 
 264   0.0000       0.246238         6.7005 
 265   0.0000       0.247374         6.7314 
 266   0.0000       0.247650         6.7389 
 267   0.0000       0.248693         6.7673 
 268   0.0000       0.250830         6.8254 
 269   0.0000       0.251237         6.8365 
 270   0.0000       0.251940         6.8556 
 271   0.0000       0.253052         6.8859 
 272   0.0000       0.253594         6.9006 
 273   0.0000       0.254734         6.9317 
 274   0.0000       0.256778         6.9873 
 275   0.0000       0.257501         7.0070 
 276   0.0000       0.258479         7.0336 
 277   0.0000       0.260564         7.0903 
 278   0.0000       0.260672         7.0932 
 279   0.0000       0.261188         7.1073 
 280   0.0000       0.263843         7.1795 
 281   0.0000       0.265230         7.2173 
 282   0.0000       0.268058         7.2942 
 283   0.0000       0.269679         7.3383 
 284   0.0000       0.270663         7.3651 
 285   0.0000       0.274061         7.4576 
 286   0.0000       0.275566         7.4985 
 287   0.0000       0.276238         7.5168 
 288   0.0000       0.277809         7.5596 
 289   0.0000       0.281948         7.6722 
 290   0.0000       0.282138         7.6774 
 291   0.0000       0.283375         7.7110 
 292   0.0000       0.285550         7.7702 
 293   0.0000       0.286116         7.7856 
 294   0.0000       0.287185         7.8147 
 295   0.0000       0.287556         7.8248 
 296   0.0000       0.290026         7.8920 
 297   0.0000       0.290709         7.9106 
 298   0.0000       0.293732         7.9928 
 299   0.0000       0.296654         8.0724 
 300   0.0000       0.296916         8.0795 
 301   0.0000       0.299486         8.1494 
 302   0.0000       0.301258         8.1976 
 303   0.0000       0.303013         8.2454 
 304   0.0000       0.303480         8.2581 
 305   0.0000       0.304890         8.2965 
 306   0.0000       0.305326         8.3083 
 307   0.0000       0.306122         8.3300 
 308   0.0000       0.308401         8.3920 
 309   0.0000       0.308865         8.4047 
 310   0.0000       0.311490         8.4761 
 311   0.0000       0.314469         8.5571 
 312   0.0000       0.316441         8.6108 
 313   0.0000       0.316601         8.6151 
 314   0.0000       0.317885         8.6501 
 315   0.0000       0.318484         8.6664 
 316   0.0000       0.320426         8.7192 
 317   0.0000       0.321927         8.7601 
 318   0.0000       0.322983         8.7888 
 319   0.0000       0.324410         8.8276 
 320   0.0000       0.326557         8.8861 
 321   0.0000       0.327303         8.9064 
 322   0.0000       0.329447         8.9647 
 323   0.0000       0.330714         8.9992 
 324   0.0000       0.331380         9.0173 
 325   0.0000       0.332925         9.0594 
 326   0.0000       0.335595         9.1320 
 327   0.0000       0.336674         9.1614 
 328   0.0000       0.338421         9.2089 
 329   0.0000       0.338761         9.2182 
 330   0.0000       0.340742         9.2721 
 331   0.0000       0.341280         9.2867 
 332   0.0000       0.341985         9.3059 
 333   0.0000       0.342569         9.3218 
 334   0.0000       0.344207         9.3664 
 335   0.0000       0.345042         9.3891 
 336   0.0000       0.346393         9.4258 
 337   0.0000       0.351646         9.5688 
 338   0.0000       0.352439         9.5903 
 339   0.0000       0.354327         9.6417 
 340   0.0000       0.356020         9.6878 
 341   0.0000       0.356990         9.7142 
 342   0.0000       0.358823         9.7641 
 343   0.0000       0.359452         9.7812 
 344   0.0000       0.360534         9.8106 
 345   0.0000       0.360917         9.8211 
 346   0.0000       0.362488         9.8638 
 347   0.0000       0.364526         9.9193 
 348   0.0000       0.365315         9.9407 
 349   0.0000       0.366422         9.9708 
 350   0.0000       0.367650        10.0043 
 351   0.0000       0.371236        10.1019 
 352   0.0000       0.371535        10.1100 
 353   0.0000       0.372873        10.1464 
 354   0.0000       0.373725        10.1696 
 355   0.0000       0.376758        10.2521 
 356   0.0000       0.379167        10.3176 
 357   0.0000       0.379929        10.3384 
 358   0.0000       0.381072        10.3695 
 359   0.0000       0.381734        10.3875 
 360   0.0000       0.382637        10.4121 
 361   0.0000       0.385808        10.4984 
 362   0.0000       0.386522        10.5178 
 363   0.0000       0.387594        10.5470 
 364   0.0000       0.389052        10.5866 
 365   0.0000       0.391006        10.6398 
 366   0.0000       0.392807        10.6888 
 367   0.0000       0.393946        10.7198 
 368   0.0000       0.394996        10.7484 
 369   0.0000       0.396569        10.7912 
 370   0.0000       0.397117        10.8061 
 371   0.0000       0.398693        10.8490 
 372   0.0000       0.400316        10.8931 
 373   0.0000       0.400739        10.9047 
 374   0.0000       0.401912        10.9366 
 375   0.0000       0.402622        10.9559 
 376   0.0000       0.404089        10.9958 
 377   0.0000       0.406347        11.0573 
 378   0.0000       0.406888        11.0720 
 379   0.0000       0.407973        11.1015 
 380   0.0000       0.409079        11.1316 
 381   0.0000       0.410613        11.1733 
 382   0.0000       0.413311        11.2468 
 383   0.0000       0.414514        11.2795 
 384   0.0000       0.416678        11.3384 
 385   0.0000       0.418020        11.3749 
 386   0.0000       0.420234        11.4351 
 387   0.0000       0.420945        11.4545 
 388   0.0000       0.422695        11.5021 
 389   0.0000       0.423609        11.5270 
 390   0.0000       0.423967        11.5367 
 391   0.0000       0.425077        11.5669 
 392   0.0000       0.425788        11.5863 
 393   0.0000       0.428363        11.6564 
 394   0.0000       0.428576        11.6622 
 395   0.0000       0.428969        11.6728 
 396   0.0000       0.430645        11.7184 
 397   0.0000       0.430818        11.7231 
 398   0.0000       0.434174        11.8145 
 399   0.0000       0.435129        11.8405 
 400   0.0000       0.436426        11.8758 
 401   0.0000       0.437221        11.8974 
 402   0.0000       0.438968        11.9449 
 403   0.0000       0.440309        11.9814 
 404   0.0000       0.440723        11.9927 
 405   0.0000       0.444985        12.1086 
 406   0.0000       0.447624        12.1805 
 407   0.0000       0.449624        12.2349 
 408   0.0000       0.451033        12.2732 
 409   0.0000       0.454675        12.3723 
 410   0.0000       0.454982        12.3807 
 411   0.0000       0.456194        12.4137 
 412   0.0000       0.457629        12.4527 
 413   0.0000       0.458095        12.4654 
 414   0.0000       0.461454        12.5568 
 415   0.0000       0.463853        12.6221 
 416   0.0000       0.465680        12.6718 
 417   0.0000       0.465995        12.6804 
 418   0.0000       0.467139        12.7115 
 419   0.0000       0.467913        12.7325 
 420   0.0000       0.470248        12.7961 
 421   0.0000       0.471233        12.8229 
 422   0.0000       0.474592        12.9143 
 423   0.0000       0.477262        12.9870 
 424   0.0000       0.478036        13.0080 
 425   0.0000       0.479000        13.0343 
 426   0.0000       0.481596        13.1049 
 427   0.0000       0.482628        13.1330 
 428   0.0000       0.484447        13.1825 
 429   0.0000       0.485244        13.2042 
 430   0.0000       0.486237        13.2312 
 431   0.0000       0.487012        13.2523 
 432   0.0000       0.489734        13.3263 
 433   0.0000       0.491633        13.3780 
 434   0.0000       0.493819        13.4375 
 435   0.0000       0.495049        13.4710 
 436   0.0000       0.496563        13.5122 
 437   0.0000       0.497440        13.5360 
 438   0.0000       0.499085        13.5808 
 439   0.0000       0.501286        13.6407 
 440   0.0000       0.502506        13.6739 
 441   0.0000       0.503173        13.6920 
 442   0.0000       0.506092        13.7715 
 443   0.0000       0.508583        13.8393 
 444   0.0000       0.509573        13.8662 
 445   0.0000       0.510997        13.9049 
 446   0.0000       0.512741        13.9524 
 447   0.0000       0.514196        13.9920 
 448   0.0000       0.515498        14.0274 
 449   0.0000       0.516934        14.0665 
 450   0.0000       0.518964        14.1217 
 451   0.0000       0.519673        14.1410 
 452   0.0000       0.520721        14.1695 
 453   0.0000       0.523895        14.2559 
 454   0.0000       0.524282        14.2664 
 455   0.0000       0.526850        14.3363 
 456   0.0000       0.529277        14.4024 
 457   0.0000       0.530208        14.4277 
 458   0.0000       0.532434        14.4883 
 459   0.0000       0.535160        14.5624 
 460   0.0000       0.536900        14.6098 
 461   0.0000       0.539584        14.6828 
 462   0.0000       0.542204        14.7541 
 463   0.0000       0.542266        14.7558 
 464   0.0000       0.546070        14.8593 
 465   0.0000       0.549370        14.9491 
 466   0.0000       0.550688        14.9850 
 467   0.0000       0.551879        15.0174 
 468   0.0000       0.553669        15.0661 
 469   0.0000       0.556325        15.1384 
 470   0.0000       0.558047        15.1852 
 471   0.0000       0.558839        15.2068 
 472   0.0000       0.559615        15.2279 
 473   0.0000       0.563169        15.3246 
 474   0.0000       0.564165        15.3517 
 475   0.0000       0.566216        15.4075 
 476   0.0000       0.566994        15.4287 
 477   0.0000       0.567811        15.4509 
 478   0.0000       0.570714        15.5299 
 479   0.0000       0.571852        15.5609 
 480   0.0000       0.573118        15.5953 
 481   0.0000       0.574930        15.6446 
 482   0.0000       0.575663        15.6646 
 483   0.0000       0.577309        15.7094 
 484   0.0000       0.578316        15.7368 
 485   0.0000       0.580149        15.7867 
 486   0.0000       0.582153        15.8412 
 487   0.0000       0.582914        15.8619 
 488   0.0000       0.583560        15.8795 
 489   0.0000       0.585806        15.9406 
 490   0.0000       0.589116        16.0307 
 491   0.0000       0.590410        16.0659 
 492   0.0000       0.592267        16.1164 
 493   0.0000       0.594422        16.1750 
 494   0.0000       0.595074        16.1928 
 495   0.0000       0.596123        16.2213 
 496   0.0000       0.596723        16.2376 
 497   0.0000       0.597557        16.2604 
 498   0.0000       0.600311        16.3353 
 499   0.0000       0.600564        16.3422 
 500   0.0000       0.603263        16.4156 
 501   0.0000       0.606447        16.5023 
 502   0.0000       0.610010        16.5992 
 503   0.0000       0.613464        16.6932 
 504   0.0000       0.614204        16.7134 
 505   0.0000       0.617726        16.8092 
 506   0.0000       0.618619        16.8335 
 507   0.0000       0.621176        16.9031 
 508   0.0000       0.623351        16.9622 
 509   0.0000       0.625689        17.0259 
 510   0.0000       0.626449        17.0466 
 511   0.0000       0.628651        17.1065 
 512   0.0000       0.629825        17.1384 
 513   0.0000       0.630571        17.1587 
 514   0.0000       0.631583        17.1862 
 515   0.0000       0.632220        17.2036 
 516   0.0000       0.635824        17.3017 
 517   0.0000       0.636707        17.3257 
 518   0.0000       0.637265        17.3408 
 519   0.0000       0.638766        17.3817 
 520   0.0000       0.640212        17.4211 
 521   0.0000       0.642559        17.4849 
 522   0.0000       0.643761        17.5176 
 523   0.0000       0.644328        17.5331 
 524   0.0000       0.646345        17.5879 
 525   0.0000       0.647505        17.6195 
 526   0.0000       0.648060        17.6346 
 527   0.0000       0.648986        17.6598 
 528   0.0000       0.649553        17.6752 
 529   0.0000       0.652197        17.7472 
 530   0.0000       0.653191        17.7742 
 531   0.0000       0.653950        17.7949 
 532   0.0000       0.657161        17.8822 
 533   0.0000       0.658547        17.9200 
 534   0.0000       0.659684        17.9509 
 535   0.0000       0.663451        18.0534 
 536   0.0000       0.664973        18.0948 
 537   0.0000       0.665275        18.1030 
 538   0.0000       0.667705        18.1692 
 539   0.0000       0.667799        18.1717 
 540   0.0000       0.669992        18.2314 
 541   0.0000       0.670845        18.2546 
 542   0.0000       0.673072        18.3152 
 543   0.0000       0.674852        18.3637 
 544   0.0000       0.676105        18.3977 
 545   0.0000       0.678586        18.4653 
 546   0.0000       0.679526        18.4908 
 547   0.0000       0.680893        18.5280 
 548   0.0000       0.681807        18.5529 
 549   0.0000       0.682881        18.5821 
 550   0.0000       0.683742        18.6056 
 551   0.0000       0.685947        18.6656 
 552   0.0000       0.687102        18.6970 
 553   0.0000       0.688364        18.7313 
 554   0.0000       0.689508        18.7625 
 555   0.0000       0.693524        18.8717 
 556   0.0000       0.694413        18.8959 
 557   0.0000       0.696139        18.9429 
 558   0.0000       0.696711        18.9585 
 559   0.0000       0.698967        19.0198 
 560   0.0000       0.700551        19.0630 
 561   0.0000       0.703397        19.1404 
 562   0.0000       0.703882        19.1536 
 563   0.0000       0.706261        19.2183 
 564   0.0000       0.707885        19.2625 
 565   0.0000       0.708620        19.2825 
 566   0.0000       0.709946        19.3186 
 567   0.0000       0.710741        19.3402 
 568   0.0000       0.712695        19.3934 
 569   0.0000       0.713575        19.4174 
 570   0.0000       0.714864        19.4524 
 571   0.0000       0.716267        19.4906 
 572   0.0000       0.718791        19.5593 
 573   0.0000       0.719423        19.5765 
 574   0.0000       0.720260        19.5993 
 575   0.0000       0.722547        19.6615 
 576   0.0000       0.725026        19.7289 
 577   0.0000       0.726181        19.7604 
 578   0.0000       0.727384        19.7931 
 579   0.0000       0.728053        19.8113 
 580   0.0000       0.729648        19.8547 
 581   0.0000       0.730320        19.8730 
 582   0.0000       0.732460        19.9313 
 583   0.0000       0.733416        19.9573 
 584   0.0000       0.735099        20.0031 
 585   0.0000       0.736307        20.0359 
 586   0.0000       0.737949        20.0806 
 587   0.0000       0.738398        20.0928 
 588   0.0000       0.739869        20.1329 
 589   0.0000       0.742423        20.2024 
 590   0.0000       0.744417        20.2566 
 591   0.0000       0.744760        20.2659 
 592   0.0000       0.746460        20.3122 
 593   0.0000       0.748430        20.3658 
[...]
  0 Rh    18.3447    17.0000    -1.3447     4.8560     4.8560    -0.0000
  1 P     12.6196    15.0000     2.3804     0.8708     0.8708     0.0000
  2 P     12.6024    15.0000     2.3976     0.8156     0.8156    -0.0000
  3 H      1.0830     1.0000    -0.0830     1.0266     1.0266     0.0000
  4 H      1.0671     1.0000    -0.0671     1.0196     1.0196    -0.0000
  5 Cl    17.9062    17.0000    -0.9062     0.2944     0.2944    -0.0000
  6 C      5.9604     6.0000     0.0396     2.9981     2.9981     0.0000
  7 C      5.8569     6.0000     0.1431     2.8524     2.8524    -0.0000
  8 C      5.8084     6.0000     0.1916     2.9518     2.9518    -0.0000
  9 C      5.9060     6.0000     0.0940     2.9196     2.9196     0.0000
 10 C      5.8482     6.0000     0.1518     3.0917     3.0917    -0.0000
 11 C      5.8898     6.0000     0.1102     2.7656     2.7656     0.0000
 12 C      5.7282     6.0000     0.2718     2.9226     2.9226    -0.0000
 13 C      6.3049     6.0000    -0.3049     3.1701     3.1701     0.0000
 14 C      5.8952     6.0000     0.1048     3.0283     3.0283     0.0000
 15 C      6.3892     6.0000    -0.3892     3.2096     3.2096     0.0000
 16 C      6.0846     6.0000    -0.0846     3.3765     3.3765     0.0000
 17 H      0.9550     1.0000     0.0450     0.8037     0.8037     0.0000
 18 H      1.0503     1.0000    -0.0503     0.9704     0.9704     0.0000
 19 H      1.0232     1.0000    -0.0232     0.9154     0.9154     0.0000
 20 H      1.0381     1.0000    -0.0381     0.9627     0.9627     0.0000
 21 H      1.0121     1.0000    -0.0121     0.8535     0.8535     0.0000
 22 C      6.0528     6.0000    -0.0528     3.7178     3.7178     0.0000
 23 C      6.3422     6.0000    -0.3422     3.1269     3.1269     0.0000
 24 C      5.9044     6.0000     0.0956     3.0664     3.0664    -0.0000
 25 C      6.2901     6.0000    -0.2901     3.2454     3.2454     0.0000
 26 C      5.8557     6.0000     0.1443     2.8585     2.8585     0.0000
 27 H      1.1077     1.0000    -0.1077     0.8897     0.8897     0.0000
 28 H      1.0580     1.0000    -0.0580     0.9642     0.9642     0.0000
 29 H      1.0265     1.0000    -0.0265     0.9223     0.9223    -0.0000
 30 H      1.0593     1.0000    -0.0593     0.9678     0.9678     0.0000
 31 H      0.9744     1.0000     0.0256     0.8475     0.8475     0.0000
 32 C      6.1578     6.0000    -0.1578     3.5073     3.5073    -0.0000
 33 C      6.3894     6.0000    -0.3894     3.1561     3.1561    -0.0000
 34 C      5.9133     6.0000     0.0867     3.0241     3.0241    -0.0000
 35 C      6.2844     6.0000    -0.2844     3.2214     3.2214     0.0000
 36 C      5.7791     6.0000     0.2209     2.6673     2.6673     0.0000
 37 H      0.8152     1.0000     0.1848     0.6657     0.6657    -0.0000
 38 H      1.0391     1.0000    -0.0391     0.9768     0.9768     0.0000
 39 H      1.0254     1.0000    -0.0254     0.9186     0.9186     0.0000
 40 H      1.0505     1.0000    -0.0505     0.9658     0.9658     0.0000
 41 H      0.9738     1.0000     0.0262     0.8445     0.8445     0.0000
 42 C      5.7283     6.0000     0.2717     2.8541     2.8541    -0.0000
 43 C      6.2997     6.0000    -0.2997     3.1996     3.1996    -0.0000
 44 C      5.8970     6.0000     0.1030     3.0455     3.0455    -0.0000
 45 C      6.3990     6.0000    -0.3990     3.1850     3.1850    -0.0000
 46 C      6.0498     6.0000    -0.0498     3.3837     3.3837    -0.0000
 47 H      0.9572     1.0000     0.0428     0.8206     0.8206    -0.0000
 48 H      1.0522     1.0000    -0.0522     0.9719     0.9719    -0.0000
 49 H      1.0244     1.0000    -0.0244     0.9178     0.9178    -0.0000
 50 H      1.0399     1.0000    -0.0399     0.9637     0.9637    -0.0000
 51 H      1.0598     1.0000    -0.0598     0.9119     0.9119    -0.0000
 52 C      5.7637     6.0000     0.2363     2.6204     2.6204     0.0000
 53 C      6.2944     6.0000    -0.2944     3.2179     3.2179     0.0000
 54 C      5.9005     6.0000     0.0995     3.0099     3.0099    -0.0000
 55 C      6.3517     6.0000    -0.3517     3.1562     3.1562    -0.0000
 56 C      6.1686     6.0000    -0.1686     3.4002     3.4002     0.0000
 57 H      0.9644     1.0000     0.0356     0.8333     0.8333     0.0000
 58 H      1.0512     1.0000    -0.0512     0.9685     0.9685     0.0000
 59 H      1.0225     1.0000    -0.0225     0.9176     0.9176    -0.0000
 60 H      1.0424     1.0000    -0.0424     0.9783     0.9783    -0.0000
 61 H      0.7920     1.0000     0.2080     0.6190     0.6190     0.0000
 62 C      6.0549     6.0000    -0.0549     3.7035     3.7035    -0.0000
 63 C      6.3416     6.0000    -0.3416     3.1074     3.1074     0.0000
 64 C      5.9082     6.0000     0.0918     3.0557     3.0557     0.0000
 65 C      6.3011     6.0000    -0.3011     3.2489     3.2489     0.0000
 66 C      5.8681     6.0000     0.1319     2.9151     2.9151    -0.0000
 67 H      1.0756     1.0000    -0.0756     0.8470     0.8470    -0.0000
 68 H      1.0560     1.0000    -0.0560     0.9641     0.9641     0.0000
 69 H      1.0254     1.0000    -0.0254     0.9205     0.9205    -0.0000
 70 H      1.0574     1.0000    -0.0574     0.9656     0.9656    -0.0000
 71 H      0.9804     1.0000     0.0196     0.8436     0.8436     0.0000

  Mayer bond orders larger than 0.100000
B(  0-Rh,  1-P ) :   0.3681 B(  0-Rh,  2-P ) :   0.3183 B(  0-Rh,  3-H ) :   1.1042 
B(  0-Rh,  4-H ) :   1.0946 B(  0-Rh,  5-Cl) :   0.7658 B(  0-Rh,  7-C ) :   0.1029 
B(  0-Rh,  8-C ) :   0.1138 B(  0-Rh,  9-C ) :   0.1126 B(  0-Rh, 10-C ) :   0.1143 
B(  0-Rh, 16-C ) :   0.1327 B(  0-Rh, 22-C ) :   0.1123 B(  0-Rh, 46-C ) :   0.1281 
B(  0-Rh, 62-C ) :   0.1332 B(  0-Rh, 66-C ) :  -0.1017 B(  1-P ,  2-P ) :   0.3585 
B(  1-P ,  3-H ) :  -0.2038 B(  1-P ,  5-Cl) :  -0.2999 B(  1-P ,  9-C ) :   0.4419 
B(  1-P , 10-C ) :   0.5868 B(  1-P , 11-C ) :   0.4024 B(  2-P ,  3-H ) :  -0.1254 
B(  2-P ,  4-H ) :  -0.2240 B(  2-P ,  5-Cl) :  -0.3037 B(  2-P ,  6-C ) :   0.4668 
B(  2-P ,  7-C ) :   0.4496 B(  2-P ,  8-C ) :   0.5429 B(  3-H ,  4-H ) :   0.1079 
B(  5-Cl, 22-C ) :   0.1719 B(  5-Cl, 37-H ) :  -0.1024 B(  5-Cl, 61-H ) :  -0.1188 
B(  5-Cl, 62-C ) :   0.1640 B(  6-C ,  7-C ) :   0.4434 B(  6-C ,  8-C ) :   0.3282 
B(  6-C , 12-C ) :   1.0186 B(  6-C , 16-C ) :   1.1866 B(  6-C , 21-H ) :  -0.1188 
B(  6-C , 32-C ) :  -0.1725 B(  7-C ,  8-C ) :   0.3846 B(  7-C , 32-C ) :   1.2133 
B(  7-C , 33-C ) :  -0.1618 B(  7-C , 35-C ) :  -0.1525 B(  7-C , 36-C ) :   0.7806 
B(  8-C , 16-C ) :  -0.1770 B(  8-C , 22-C ) :   1.2218 B(  8-C , 25-C ) :  -0.1268 
B(  8-C , 26-C ) :   0.9276 B(  9-C , 10-C ) :   0.4356 B(  9-C , 11-C ) :   0.4572 
B(  9-C , 42-C ) :  -0.1005 B(  9-C , 52-C ) :   0.7750 B(  9-C , 53-C ) :  -0.1473 
B(  9-C , 55-C ) :  -0.1471 B(  9-C , 56-C ) :   1.2048 B( 10-C , 11-C ) :   0.3139 
B( 10-C , 46-C ) :  -0.1819 B( 10-C , 62-C ) :   1.2597 B( 10-C , 65-C ) :  -0.1235 
B( 10-C , 66-C ) :   0.9480 B( 11-C , 42-C ) :   0.9520 B( 11-C , 43-C ) :  -0.1045 
B( 11-C , 46-C ) :   1.1829 B( 11-C , 51-H ) :  -0.1172 B( 11-C , 56-C ) :  -0.1607 
B( 12-C , 13-C ) :   1.1051 B( 12-C , 17-H ) :   1.0424 B( 12-C , 18-H ) :  -0.1053 
B( 12-C , 32-C ) :   0.1171 B( 13-C , 14-C ) :   1.0860 B( 13-C , 15-C ) :   0.1134 
B( 13-C , 17-H ) :  -0.1392 B( 13-C , 18-H ) :   1.1782 B( 13-C , 19-H ) :  -0.1284 
B( 14-C , 15-C ) :   1.0844 B( 14-C , 18-H ) :  -0.1256 B( 14-C , 19-H ) :   1.1533 
B( 14-C , 20-H ) :  -0.1225 B( 15-C , 16-C ) :   1.1945 B( 15-C , 19-H ) :  -0.1240 
B( 15-C , 20-H ) :   1.1634 B( 15-C , 21-H ) :  -0.1157 B( 16-C , 20-H ) :  -0.1053 
B( 16-C , 21-H ) :   1.0180 B( 16-C , 26-C ) :   0.1489 B( 22-C , 23-C ) :   1.1657 
B( 22-C , 27-H ) :   1.0485 B( 23-C , 24-C ) :   1.1059 B( 23-C , 27-H ) :  -0.1633 
B( 23-C , 28-H ) :   1.1692 B( 23-C , 29-H ) :  -0.1181 B( 24-C , 25-C ) :   1.1475 
B( 24-C , 28-H ) :  -0.1290 B( 24-C , 29-H ) :   1.1442 B( 24-C , 30-H ) :  -0.1255 
B( 25-C , 26-C ) :   1.1338 B( 25-C , 29-H ) :  -0.1162 B( 25-C , 30-H ) :   1.1757 
B( 25-C , 31-H ) :  -0.1309 B( 26-C , 31-H ) :   1.0697 B( 26-C , 36-C ) :  -0.1764 
B( 32-C , 33-C ) :   1.2781 B( 32-C , 35-C ) :   0.1195 B( 32-C , 36-C ) :  -0.1079 
B( 32-C , 37-H ) :   0.9542 B( 32-C , 38-H ) :  -0.1087 B( 33-C , 34-C ) :   1.0564 
B( 33-C , 37-H ) :  -0.1631 B( 33-C , 38-H ) :   1.1829 B( 33-C , 39-H ) :  -0.1266 
B( 34-C , 35-C ) :   1.1011 B( 34-C , 38-H ) :  -0.1282 B( 34-C , 39-H ) :   1.1547 
B( 34-C , 40-H ) :  -0.1306 B( 35-C , 36-C ) :   1.1753 B( 35-C , 39-H ) :  -0.1215 
B( 35-C , 40-H ) :   1.1730 B( 35-C , 41-H ) :  -0.1489 B( 36-C , 41-H ) :   1.0510 
B( 42-C , 43-C ) :   1.1206 B( 42-C , 47-H ) :   1.0498 B( 42-C , 48-H ) :  -0.1068 
B( 42-C , 56-C ) :   0.1086 B( 43-C , 44-C ) :   1.1034 B( 43-C , 45-C ) :   0.1099 
B( 43-C , 47-H ) :  -0.1398 B( 43-C , 48-H ) :   1.1810 B( 43-C , 49-H ) :  -0.1268 
B( 44-C , 45-C ) :   1.0867 B( 44-C , 48-H ) :  -0.1256 B( 44-C , 49-H ) :   1.1526 
B( 44-C , 50-H ) :  -0.1251 B( 45-C , 46-C ) :   1.1904 B( 45-C , 49-H ) :  -0.1234 
B( 45-C , 50-H ) :   1.1680 B( 45-C , 51-H ) :  -0.1284 B( 46-C , 50-H ) :  -0.1002 
B( 46-C , 51-H ) :   1.0305 B( 46-C , 66-C ) :   0.1628 B( 52-C , 53-C ) :   1.1621 
B( 52-C , 57-H ) :   1.0402 B( 52-C , 62-C ) :   0.1108 B( 52-C , 66-C ) :  -0.1645 
B( 53-C , 54-C ) :   1.1028 B( 53-C , 56-C ) :   0.1171 B( 53-C , 57-H ) :  -0.1494 
B( 53-C , 58-H ) :   1.1764 B( 53-C , 59-H ) :  -0.1214 B( 54-C , 55-C ) :   1.0548 
B( 54-C , 58-H ) :  -0.1311 B( 54-C , 59-H ) :   1.1509 B( 54-C , 60-H ) :  -0.1334 
B( 55-C , 56-C ) :   1.2675 B( 55-C , 59-H ) :  -0.1240 B( 55-C , 60-H ) :   1.1836 
B( 55-C , 61-H ) :  -0.1705 B( 56-C , 60-H ) :  -0.1034 B( 56-C , 61-H ) :   0.9397 
B( 62-C , 63-C ) :   1.1627 B( 62-C , 65-C ) :   0.1108 B( 62-C , 67-H ) :   1.0287 
B( 63-C , 64-C ) :   1.0999 B( 63-C , 67-H ) :  -0.1603 B( 63-C , 68-H ) :   1.1701 
B( 63-C , 69-H ) :  -0.1206 B( 64-C , 65-C ) :   1.1427 B( 64-C , 68-H ) :  -0.1265 
B( 64-C , 69-H ) :   1.1447 B( 64-C , 70-H ) :  -0.1275 B( 65-C , 66-C ) :   1.1272 
B( 65-C , 69-H ) :  -0.1158 B( 65-C , 70-H ) :   1.1766 B( 65-C , 71-H ) :  -0.1308 
B( 66-C , 71-H ) :   1.0637 

-------
TIMINGS
-------

Total SCF time: 0 days 0 hours 23 min 49 sec 

Total time                  ....    1429.702 sec
Sum of individual times     ....    1424.351 sec  ( 99.6%)

Fock matrix formation       ....    1383.087 sec  ( 96.7%)
  XC integration            ....      32.206 sec  (  2.3% of F)
    Basis function eval.    ....       5.656 sec  ( 17.6% of XC)
    Density eval.           ....      14.847 sec  ( 46.1% of XC)
    XC-Functional eval.     ....       0.162 sec  (  0.5% of XC)
    XC-Potential eval.      ....       8.822 sec  ( 27.4% of XC)
Diagonalization             ....      11.805 sec  (  0.8%)
Density matrix formation    ....       0.843 sec  (  0.1%)
Population analysis         ....       1.756 sec  (  0.1%)
Initial guess               ....       5.409 sec  (  0.4%)
Orbital Transformation      ....       0.000 sec  (  0.0%)
Orbital Orthonormalization  ....       0.000 sec  (  0.0%)
DIIS solution               ....      17.402 sec  (  1.2%)
Grid generation             ....       4.049 sec  (  0.3%)


           ************************************************************
           *        Program running with 24 parallel MPI-processes    *
           *              working on a common directory               *
           ************************************************************

------------------------------------------------------------------------------
                                ORCA  MP2 
------------------------------------------------------------------------------

Freezing NCore=102 chemical core electrons

-------------
RI-MP2 ENERGY
-------------
Dimension of the basis                    ... 2079
Memory devoted to MP2                     ... 5000 MB   
Data format for buffers                   ... DOUBLE
Compression type for matrix containers    ... UNCOMPRESSED
Overall scaling of the MP2 energy         ...   2.700e-01
Calculating two index integrals           ... done (    0.177 sec)
Cholesky decomposition of V**-1           ... done (    3.331 sec)

-----------------
RI-TRANSFORMATION (AUX index driven)
-----------------

Dimension of the orbital-basis         ... 2079
Dimension of the aux-basis             ... 5153
Transformation of internal/external MOs...   51- 155 to  156-2078
Number Format for Storage              ... Double (8 Byte)
Integral mode                          ... Direct

First Phase: integral generation and transformation of MO indices
  Aux angular momentum 0               ... done (    2.621 sec)
  Aux angular momentum 1               ... done (    5.475 sec)
  Aux angular momentum 2               ... done (    6.552 sec)
  Aux angular momentum 3               ... done (    6.029 sec)
  Aux angular momentum 4               ... done (    1.596 sec)
  Aux angular momentum 5               ... done (    1.012 sec)
  Aux angular momentum 6               ... done (    1.325 sec)
Closing buffer VIA ( 7.75 GB; CompressionRatio= 1.00)
  Phase 1 completed in    24.981 sec
Second Phase: sorting and transformation of aux index

IA-Transformation
Memory available                       ... 4452 MB 
Max. # MO pairs treated in a batch     ... 5    
# of internal orbitals                 ... 105
# batches for internal orbitals        ... 1
Closing buffer IAV ( 0.37 GB; CompressionRatio= 1.00)
(ia|v) transformation done in    11.003 sec

  Phase 2 completed in    20.564 sec
RI-Integral transformation completed in    45.670 sec
Opening buffers                              ... done

Starting loop over batches of integrals:

Operator 0  - window                       ... ( 51-155)x(156-2078)
Operator 0  - Memory available             ...  5000 MB
Operator 0  - Memory needed per MO         ...  75.6 MB
Operator 0  - Number of orbitals per batch ... 5
Operator 0  - Number of batches            ... 1

OPERATOR  0   PASS   0:  MOs    51 ...   55 +   56 ...   60 +   61 ...   65 +   66 ...   70
                            +   71 ...   75 +   76 ...   80 +   81 ...   85 +   86 ...   90
                            +   91 ...   95 +   96 ...  100 +  101 ...  105 +  106 ...  110
                            +  111 ...  115 +  116 ...  120 +  121 ...  125 +  126 ...  130
                            +  131 ...  135 +  136 ...  140 +  141 ...  145 +  146 ...  150
                            +  151 ...  155
  Reading integrals       ... ok
  Internal MO  53
Time spent in pair loops =    10.982 sec
Deleting buffer (Ka|jb)[aa] ...done

-----------------------------------------------
 RI-MP2 CORRELATION ENERGY:     -2.318380957 Eh
-----------------------------------------------


-------
TIMINGS
-------

Total time                :  375.542 sec
Integral trafo            :   45.698 sec ( 12.2%)
I/O of integrals          :    0.430 sec (  0.1%)
K(i,j) Operators          :    9.157 sec (  2.4%)
T(i,j) pair energies      :    0.912 sec (  0.2%)
V-calculation             :    0.177 sec (  0.0%)
V**(-1/2)                 :    3.331 sec (  0.9%)
Gamma(ia|P)               :    0.000 sec (  0.0%)
Gamma-Trafo               :    0.000 sec (  0.0%)
D(virtual)                :    0.000 sec (  0.0%)
D(internal)               :    0.000 sec (  0.0%)
W(virtual)                :    0.000 sec (  0.0%)
W(internal)               :    0.000 sec (  0.0%)
L(virtual)                :    0.000 sec (  0.0%)
L(internal)               :    0.000 sec (  0.0%)
G(D)                      :    0.000 sec (  0.0%)
G(Z)                      :    0.000 sec (  0.0%)
Z-Vector Solution         :    0.000 sec (  0.0%)
Z-Vector Solution         :    0.000 sec (  0.0%)
3-Index Derivative 
+ Separable RIJ part      :    0.000 sec (  0.0%)
2-Index Derivative 
+ Separable RIJ part      :    0.000 sec (  0.0%)
Separable Gradient (X)    :    0.000 sec (  0.0%)


---------------------------------------
MP2 TOTAL ENERGY:    -2643.569130357 Eh
---------------------------------------


-------------------------------------------------------------------------------
                          DFT DISPERSION CORRECTION                            
                                                                               
                              DFTD3 V3.1  Rev 1                                
                          USING Becke-Johnson damping                          
-------------------------------------------------------------------------------
The B2PLYP functional is recognized
Active option DFTDOPT                   ...         4   

molecular C6(AA) [au] = 81757.763751 


            DFT-D V3
 parameters
 s6 scaling factor         :     0.6400 
 a1 scaling factor         :     0.3065 
 s8 scaling factor         :     0.9147 
 a2 scaling factor         :     5.0570 
 ad hoc parameters k1-k3   :    16.0000     1.3333    -4.0000 

 Edisp/kcal,au: -68.265237950189  -0.108787569734 
 E6   /kcal   : -36.267396218 
 E8   /kcal   : -31.997841732 
 % E8         :  46.872819451 

-------------------------   ----------------
Dispersion correction           -0.108787570
-------------------------   ----------------


-------------------------   --------------------
FINAL SINGLE POINT ENERGY     -2643.677917926399
-------------------------   --------------------


                            ***************************************
                            *     ORCA property calculations      *
                            ***************************************


  WARNING: The energy has been calculated at the MP2 level but the densities
           used in the property calculations are still SCF densities
           MP2 response densities have not been calculated 
           use %mp2 Density relaxed end
           or  %mp2 Density unrelaxed end

                                    ---------------------
                                    Active property flags
                                    ---------------------
   (+) Dipole Moment


------------------------------------------------------------------------------
                       ORCA ELECTRIC PROPERTIES CALCULATION
------------------------------------------------------------------------------

Dipole Moment Calculation                       ... on
Quadrupole Moment Calculation                   ... off
Polarizability Calculation                      ... off
GBWName                                         ... MOR28_pr09.gbw
Electron density file                           ... MOR28_pr09.scfp
The origin for moment calculation is the CENTER OF MASS  = ( 0.000333, -0.027738 -0.002715)

-------------
DIPOLE MOMENT
-------------
                                X             Y             Z
Electronic contribution:      0.23814      -6.55914      -2.79193
Nuclear contribution   :     -0.23889       7.84350       2.82850
                        -----------------------------------------
Total Dipole Moment    :     -0.00074       1.28437       0.03658
                        -----------------------------------------
Magnitude (a.u.)       :      1.28489
Magnitude (Debye)      :      3.26593



--------------------
Rotational spectrum 
--------------------
 
Rotational constants in cm-1:     0.003375     0.001837     0.001796 
Rotational constants in MHz :   101.191459    55.075356    53.852243 

 Dipole components along the rotational axes: 
x,y,z [a.u.] :     0.000639     1.284484     0.032260 
x,y,z [Debye]:     0.001624     3.264898     0.081998 

 

Timings for individual modules:

Sum of individual times         ...     1820.492 sec (=  30.342 min)
GTO integral calculation        ...       13.651 sec (=   0.228 min)   0.7 %
SCF iterations                  ...     1430.176 sec (=  23.836 min)  78.6 %
MP2 module                      ...      376.664 sec (=   6.278 min)  20.7 %
                             ****ORCA TERMINATED NORMALLY****
TOTAL RUN TIME: 0 days 0 hours 30 minutes 21 seconds 760 msec
