
                                 *****************
                                 * O   R   C   A *
                                 *****************

           --- An Ab Initio, DFT and Semiempirical electronic structure package ---

                  #######################################################
                  #                        -***-                        #
                  #          Department of theory and spectroscopy      #
                  #               Directorship: Frank Neese             #
                  #        Max Planck Institute fuer Kohlenforschung    #
                  #                Kaiser Wilhelm Platz 1               #
                  #                 D-45470 Muelheim/Ruhr               #
                  #                      Germany                        #
                  #                                                     #
                  #                  All rights reserved                #
                  #                        -***-                        #
                  #######################################################


                         Program Version 4.2.0 -  RELEASE  -


 With contributions from (in alphabetic order):
   Daniel Aravena         : Magnetic Suceptibility
   Michael Atanasov       : Ab Initio Ligand Field Theory (pilot matlab implementation)
   Alexander A. Auer      : GIAO ZORA, VPT2
   Ute Becker             : Parallelization
   Giovanni Bistoni       : ED, misc. LED, open-shell LED, HFLED
   Martin Brehm           : Molecular dynamics
   Dmytro Bykov           : SCF Hessian
   Vijay G. Chilkuri      : MRCI spin determinant printing, contributions to CSF-ICE
   Dipayan Datta          : RHF DLPNO-CCSD density
   Achintya Kumar Dutta   : EOM-CC, STEOM-CC
   Dmitry Ganyushin       : Spin-Orbit,Spin-Spin,Magnetic field MRCI
   Miquel Garcia          : C-PCM Hessian, Gaussian charge scheme
   Yang Guo               : DLPNO-NEVPT2, CIM, IAO-localization
   Andreas Hansen         : Spin unrestricted coupled pair/coupled cluster methods
   Benjamin Helmich-Paris : CASSCF linear response (MC-RPA)
   Lee Huntington         : MR-EOM, pCC
   Robert Izsak           : Overlap fitted RIJCOSX, COSX-SCS-MP3, EOM
   Christian Kollmar      : KDIIS, OOCD, Brueckner-CCSD(T), CCSD density
   Simone Kossmann        : Meta GGA functionals, TD-DFT gradient, OOMP2, MP2 Hessian
   Martin Krupicka        : AUTO-CI
   Lucas Lang             : DCDCAS
   Dagmar Lenk            : GEPOL surface, SMD
   Dimitrios Liakos       : Extrapolation schemes; Compound Job, initial MDCI parallelization
   Dimitrios Manganas     : Further ROCIS development; embedding schemes
   Dimitrios Pantazis     : SARC Basis sets
   Taras Petrenko         : DFT Hessian,TD-DFT gradient, ASA, ECA, R-Raman, ABS, FL, XAS/XES, NRVS
   Peter Pinski           : DLPNO-MP2, DLPNO-MP2 Gradient
   Christoph Reimann      : Effective Core Potentials
   Marius Retegan         : Local ZFS, SOC
   Christoph Riplinger    : Optimizer, TS searches, QM/MM, DLPNO-CCSD(T), (RO)-DLPNO pert. Triples
   Tobias Risthaus        : Range-separated hybrids, TD-DFT gradient, RPA, STAB
   Michael Roemelt        : Original ROCIS implementation
   Masaaki Saitow         : Open-shell DLPNO-CCSD energy and density
   Barbara Sandhoefer     : DKH picture change effects
   Avijit Sen             : IP-ROCIS
   Kantharuban Sivalingam : CASSCF convergence, NEVPT2, FIC-MRCI
   Bernardo de Souza      : ESD, SOC TD-DFT
   Georgi Stoychev        : AutoAux, RI-MP2 NMR
   Willem Van den Heuvel  : Paramagnetic NMR
   Boris Wezisla          : Elementary symmetry handling
   Frank Wennmohs         : Technical directorship


 We gratefully acknowledge several colleagues who have allowed us to
 interface, adapt or use parts of their codes:
   Stefan Grimme, W. Hujo, H. Kruse,             : VdW corrections, initial TS optimization,
                  C. Bannwarth                     DFT functionals, gCP, sTDA/sTD-DF
   Ed Valeev, F. Pavosevic, A. Kumar             : LibInt (2-el integral package), F12 methods
   Garnet Chan, S. Sharma, J. Yang, R. Olivares  : DMRG
   Ulf Ekstrom                                   : XCFun DFT Library
   Mihaly Kallay                                 : mrcc  (arbitrary order and MRCC methods)
   Andreas Klamt, Michael Diedenhofen            : otool_cosmo (COSMO solvation model)
   Jiri Pittner, Ondrej Demel                    : Mk-CCSD
   Frank Weinhold                                : gennbo (NPA and NBO analysis)
   Christopher J. Cramer and Donald G. Truhlar   : smd solvation model
   Lars Goerigk                                  : TD-DFT with DH, B97 family of functionals
   V. Asgeirsson, H. Jonsson                     : NEB implementation
   FAccTs GmbH                                   : IRC, NEB, NEB-TS, Multilevel, MM, QM/MM, CI optimization
   S Lehtola, MJT Oliveira, MAL Marques          : LibXC Library


 Your calculation uses the libint2 library for the computation of 2-el integrals
 For citations please refer to: http://libint.valeyev.net

 Your ORCA version has been built with support for libXC version: 4.2.3
 For citations please refer to: https://tddft.org/programs/libxc/

 This ORCA versions uses:
   CBLAS   interface :  Fast vector & matrix operations
   LAPACKE interface :  Fast linear algebra routines
   SCALAPACK package :  Parallel linear algebra routines


Your calculation utilizes the atom-pairwise dispersion correction
with the Becke-Johnson damping scheme (D3BJ)
Cite in your paper:
S.Grimme, S.Ehrlich, L.Goerigk, J Comput Chem, (2011), 32, 1456–1465 
S.Grimme, J.Antony, S.Ehrlich and H.Krieg, J.Chem.Phys., 132, (2010), 154104 
   

----- Orbital basis set information -----
Your calculation utilizes the basis: def2-TZVPPD
   F. Weigend and R. Ahlrichs, Phys. Chem. Chem. Phys. 7, 3297 (2005).
   D. Rappoport and F. Furche, J. Chem. Phys. 133 134105 (2010).

----- AuxC basis set information -----
Your calculation utilizes the auxiliary basis: def2-TZVPPD/C
   A. Hellweg, C. Hattig, S. Hofener and W. Klopper, Theor. Chem. Acc. 117, 587 (2007).

----- AuxJK basis set information -----
Your calculation utilizes the auxiliary basis: def2/JK
   H-Ba, Hf-Rn: F. Weigend, J. Comput. Chem. 29, 167 (2008).

cite the ECPs for Pd [Def2-ECP], I  [Def2-ECP] as follows:
Ce-Yb(ecp-28): M. Dolg, H. Stoll, H.Preuss, J. Chem. Phys., 1989, 90, 1730-1734.
Y-Cd(ecp-28), Hf-Hg(ecp-46): D. Andrae,U. Haeussermann, M. Dolg, H. Stoll, H. Preuss, Theor. Chim. Acta, 1990, 77, 123-141.
In-Sb(ecp-28), Tl-Bi(ecp-46): B. Metz, H. Stoll, M. Dolg, J. Chem. Phys., 2000, 113, 2563-2569.
Te-Xe(ecp-28), Po-Rn(ecp-46): K. A. Peterson, D. Figgen, E. Goll, H. Stoll, M. Dolg, J. Chem. Phys., 2003, 119, 11113-11123.
Rb(ecp-28), Cs(ecp-46): T. Leininger, A. Nicklass, W. Kuechle, H. Stoll, M. Dolg, A. Bergner, Chem. Phys. Lett., 1996, 255, 274-280.
Sr(ecp-28), Ba(ecp-46): M. Kaupp, P. V. Schleyer, H. Stoll and H. Preuss, J. Chem. Phys., 1991, 94, 1360-1366.
La(ecp-46): M. Dolg, H. Stoll, A. Savin, H. Preuss, Theor. Chim. Acta, 1989, 75, 173-194.
Lu(ecp-28): X. Cao, M. Dolg, J. Chem. Phys., 2001, 115, 7348-7355.

ECP parameters for Pd [Def2-ECP], I  [Def2-ECP] have been obtained from:
TURBOMOLE (7.0.2)

================================================================================
                                        WARNINGS
                       Please study these warnings very carefully!
================================================================================


WARNING: No MP2 level density has been requested!
         To caclulate MP2 level properties use
         %mp2 Density relaxed end
         or
         %mp2 Density unrelaxed end
         Otherwise for double-hybrid DFT only the energy is correct!

WARNING: The frozen-core approximation is turned on by default for 
         the MP2 part of double-hybrid DFT.

INFO   : the flag for use of LIBINT has been found!

================================================================================
                                       INPUT FILE
================================================================================
NAME = MOR29_pr11.in
|  1> #
|  2> # MOR29_pr11 ri-B2PLYP-D3BJ/Def2-TZVPPD
|  3> #
|  4> ! rijk ri-b2plyp d3bj def2-tzvppd def2/jk def2-tzvppd/c grid4 nofinalgrid
|  5> 
|  6> *xyz 0 1
|  7> C       -1.039290   -2.639432    0.178033 
|  8> C       -2.178017   -3.305635   -0.258724 
|  9> C       -3.296391   -2.550827   -0.605540 
| 10> C       -3.231094   -1.166811   -0.503382 
| 11> H       -0.140242   -3.178187    0.457229 
| 12> H       -2.180740   -4.388297   -0.324253 
| 13> H       -4.206388   -3.031472   -0.950846 
| 14> H       -4.092575   -0.563880   -0.765153 
| 15> N       -0.970920   -1.306381    0.272680 
| 16> C       -2.050199   -0.559703   -0.062217 
| 17> C       -1.896627    0.903347    0.053727 
| 18> N       -0.715899    1.344389    0.547476 
| 19> C       -0.493208    2.660516    0.650101 
| 20> C       -2.657172    3.172580   -0.229603 
| 21> C       -1.435330    3.611046    0.276469 
| 22> H        0.481431    2.944320    1.031789 
| 23> H       -1.207232    4.666962    0.373432 
| 24> C       -2.888209    1.807210   -0.342538 
| 25> H       -3.826394    1.449184   -0.749672 
| 26> H       -3.416704    3.882938   -0.540755 
| 27> Pd       0.796966   -0.183618    0.920224 
| 28> C        2.296006    1.038742    1.594093 
| 29> H        1.829551    1.776866    2.255021 
| 30> H        2.734263    1.506656    0.710942 
| 31> H        3.050202    0.480142    2.149825 
| 32> C        2.162541   -1.690695    1.159536 
| 33> H        3.086547   -1.399047    0.660601 
| 34> H        1.744149   -2.568037    0.656862 
| 35> H        2.334771   -1.896294    2.218292 
| 36> I        1.451603    0.093477   -1.772045 
| 37> C        0.284011   -0.444486    2.913651 
| 38> H       -0.123661   -1.453796    3.016265 
| 39> H       -0.476481    0.304111    3.153737 
| 40> H        1.159721   -0.321172    3.551993 
| 41> *
| 42> 
| 43> %maxcore 5000
| 44> 
| 45> %pal
| 46> nprocs = 24
| 47> end
| 48> 
| 49> 
| 50>                          ****END OF INPUT****
================================================================================

                       ****************************
                       * Single Point Calculation *
                       ****************************

---------------------------------
CARTESIAN COORDINATES (ANGSTROEM)
---------------------------------
  C     -1.039290   -2.639432    0.178033
  C     -2.178017   -3.305635   -0.258724
  C     -3.296391   -2.550827   -0.605540
  C     -3.231094   -1.166811   -0.503382
  H     -0.140242   -3.178187    0.457229
  H     -2.180740   -4.388297   -0.324253
  H     -4.206388   -3.031472   -0.950846
  H     -4.092575   -0.563880   -0.765153
  N     -0.970920   -1.306381    0.272680
  C     -2.050199   -0.559703   -0.062217
  C     -1.896627    0.903347    0.053727
  N     -0.715899    1.344389    0.547476
  C     -0.493208    2.660516    0.650101
  C     -2.657172    3.172580   -0.229603
  C     -1.435330    3.611046    0.276469
  H      0.481431    2.944320    1.031789
  H     -1.207232    4.666962    0.373432
  C     -2.888209    1.807210   -0.342538
  H     -3.826394    1.449184   -0.749672
  H     -3.416704    3.882938   -0.540755
  Pd     0.796966   -0.183618    0.920224
  C      2.296006    1.038742    1.594093
  H      1.829551    1.776866    2.255021
  H      2.734263    1.506656    0.710942
  H      3.050202    0.480142    2.149825
  C      2.162541   -1.690695    1.159536
  H      3.086547   -1.399047    0.660601
  H      1.744149   -2.568037    0.656862
  H      2.334771   -1.896294    2.218292
  I      1.451603    0.093477   -1.772045
  C      0.284011   -0.444486    2.913651
  H     -0.123661   -1.453796    3.016265
  H     -0.476481    0.304111    3.153737
  H      1.159721   -0.321172    3.551993

----------------------------
CARTESIAN COORDINATES (A.U.)
----------------------------
  NO LB      ZA    FRAG     MASS         X           Y           Z
   0 C     6.0000    0    12.011   -1.963973   -4.987804    0.336434
   1 C     6.0000    0    12.011   -4.115856   -6.246745   -0.488918
   2 C     6.0000    0    12.011   -6.229276   -4.820364   -1.144305
   3 C     6.0000    0    12.011   -6.105883   -2.204953   -0.951254
   4 H     1.0000    0     1.008   -0.265019   -6.005903    0.864038
   5 H     1.0000    0     1.008   -4.121001   -8.292680   -0.612749
   6 H     1.0000    0     1.008   -7.948921   -5.728652   -1.796839
   7 H     1.0000    0     1.008   -7.733846   -1.065579   -1.445930
   8 N     7.0000    0    14.007   -1.834773   -2.468702    0.515291
   9 C     6.0000    0    12.011   -3.874315   -1.057685   -0.117573
  10 C     6.0000    0    12.011   -3.584106    1.707078    0.101529
  11 N     7.0000    0    14.007   -1.352853    2.540527    1.034580
  12 C     6.0000    0    12.011   -0.932028    5.027647    1.228513
  13 C     6.0000    0    12.011   -5.021327    5.995307   -0.433887
  14 C     6.0000    0    12.011   -2.712381    6.823888    0.522451
  15 H     1.0000    0     1.008    0.909773    5.563958    1.949799
  16 H     1.0000    0     1.008   -2.281338    8.819280    0.705684
  17 C     6.0000    0    12.011   -5.457924    3.415132   -0.647303
  18 H     1.0000    0     1.008   -7.230837    2.738561   -1.416675
  19 H     1.0000    0     1.008   -6.456635    7.337689   -1.021879
  20 Pd   18.0000*   0   106.400    1.506047   -0.346988    1.738971
  21 C     6.0000    0    12.011    4.338823    1.962938    3.012399
  22 H     1.0000    0     1.008    3.457350    3.357790    4.261372
  23 H     1.0000    0     1.008    5.167008    2.847167    1.343486
  24 H     1.0000    0     1.008    5.764046    0.907337    4.062580
  25 C     6.0000    0    12.011    4.086610   -3.194951    2.191205
  26 H     1.0000    0     1.008    5.832729   -2.643816    1.248355
  27 H     1.0000    0     1.008    3.295964   -4.852887    1.241289
  28 H     1.0000    0     1.008    4.412078   -3.583476    4.191964
  29 I    25.0000*   0   126.900    2.743132    0.176646   -3.348680
  30 C     6.0000    0    12.011    0.536703   -0.839957    5.506002
  31 H     1.0000    0     1.008   -0.233685   -2.747276    5.699915
  32 H     1.0000    0     1.008   -0.900419    0.574687    5.959699
  33 H     1.0000    0     1.008    2.191555   -0.606927    6.712294
* core charge reduced due to ECP

--------------------------------
INTERNAL COORDINATES (ANGSTROEM)
--------------------------------
 C      0   0   0     0.000000000000     0.00000000     0.00000000
 C      1   0   0     1.389705830306     0.00000000     0.00000000
 C      2   1   0     1.393117675789   118.44448162     0.00000000
 C      3   2   1     1.389316466263   118.92792810     0.05916770
 H      1   2   3     1.084663386837   121.46415666   180.20842894
 H      2   1   3     1.084646703224   119.97032286   179.91547136
 H      3   2   1     1.085518488866   120.81502284   180.04090038
 H      4   3   2     1.083604799068   119.94451291   180.23859788
 N      1   2   3     1.338154505321   122.79604946   359.66649001
 C      9   1   2     1.354447192080   119.40469273     0.28057599
 C     10   9   1     1.475649915400   116.37321805   180.62123412
 N     11  10   9     1.353670835450   116.26117034   356.75580447
 C     12  11  10     1.338773114547   119.56094190   178.36476360
 C     13  12  11     2.391407297180    91.82154270     0.33278804
 C     13  12  11     1.389497036776   122.62337423     0.46576057
 H     13  12  11     1.084505242072   115.70454357   181.36799837
 H     15  13  12     1.084614733456   119.95702003   180.30734640
 C     14  13  12     1.389376711513    88.27785414   359.75311469
 H     18  14  13     1.083573626874   119.94847000   181.01490311
 H     14  13  12     1.085501227218   151.48938411   180.72399266
 Pd    12  11  10     2.182316881614   116.03024856     4.95678126
 C     21  12  11     2.048263733107    98.37756521   179.07231697
 H     22  21  12     1.095095031303   106.80230978    41.78024171
 H     22  21  12     1.091314985807   106.47156584   282.25304466
 H     22  21  12     1.090726190315   111.59517464   161.30211664
 C     21  12  11     2.047766197079   175.99432652    31.93596921
 H     26  21  22     1.089854016905   108.35691892   309.55325171
 H     26  21  22     1.094286069044   106.34397680   192.30149991
 H     26  21  22     1.092198878061   110.91510338    71.78789321
 I     21  12  11     2.784536516039    85.88022312    84.64449556
 C     21  12  11     2.074831595522    94.63156578   266.26163143
 H     31  21  12     1.093358481323   107.36250332   113.53064485
 H     31  21  12     1.093794696398   107.26120474   354.62995155
 H     31  21  12     1.090667160806   110.46263830   233.97833980

---------------------------
INTERNAL COORDINATES (A.U.)
---------------------------
 C      0   0   0     0.000000000000     0.00000000     0.00000000
 C      1   0   0     2.626163425992     0.00000000     0.00000000
 C      2   1   0     2.632610879566   118.44448162     0.00000000
 C      3   2   1     2.625427634584   118.92792810     0.05916770
 H      1   2   3     2.049716748614   121.46415666   180.20842894
 H      2   1   3     2.049685221153   119.97032286   179.91547136
 H      3   2   1     2.051332657265   120.81502284   180.04090038
 H      4   3   2     2.047716307641   119.94451291   180.23859788
 N      1   2   3     2.528745539929   122.79604946   359.66649001
 C      9   1   2     2.559534255890   119.40469273     0.28057599
 C     10   9   1     2.788574209650   116.37321805   180.62123412
 N     11  10   9     2.558067154478   116.26117034   356.75580447
 C     12  11  10     2.529914541951   119.56094190   178.36476360
 C     13  12  11     4.519104866332    91.82154270     0.33278804
 C     13  12  11     2.625768863401   122.62337423     0.46576057
 H     13  12  11     2.049417898317   115.70454357   181.36799837
 H     15  13  12     2.049624807047   119.95702003   180.30734640
 C     14  13  12     2.625541481607    88.27785414   359.75311469
 H     18  14  13     2.047657400732   119.94847000   181.01490311
 H     14  13  12     2.051300037478   151.48938411   180.72399266
 Pd    12  11  10     4.123981243684   116.03024856     4.95678126
 C     21  12  11     3.870657505615    98.37756521   179.07231697
 H     22  21  12     2.069429699781   106.80230978    41.78024171
 H     22  21  12     2.062286449019   106.47156584   282.25304466
 H     22  21  12     2.061173786791   111.59517464   161.30211664
 C     21  12  11     3.869717298780   175.99432652    31.93596921
 H     26  21  22     2.059525617905   108.35691892   309.55325171
 H     26  21  22     2.067900982659   106.34397680   192.30149991
 H     26  21  22     2.063956763311   110.91510338    71.78789321
 I     21  12  11     5.262011425217    85.88022312    84.64449556
 C     21  12  11     3.920863489544    94.63156578   266.26163143
 H     31  21  12     2.066148095900   107.36250332   113.53064485
 H     31  21  12     2.066972422928   107.26120474   354.62995155
 H     31  21  12     2.061062237184   110.46263830   233.97833980

---------------------
BASIS SET INFORMATION
---------------------
There are 5 groups of distinct atoms

 Group   1 Type C   : 12s6p3d1f contracted to 6s3p3d1f pattern {621111/411/111/1}
 Group   2 Type H   : 5s3p1d contracted to 3s3p1d pattern {311/111/1}
 Group   3 Type N   : 12s6p3d1f contracted to 6s3p3d1f pattern {621111/411/111/1}
 Group   4 Type Pd  : 7s7p6d2f1g contracted to 6s4p3d2f1g pattern {211111/4111/411/11/1}
 Group   5 Type I   : 12s11p9d2f contracted to 7s6p4d2f pattern {5211111/341111/6111/11}

Atom   0C    basis set group =>   1
Atom   1C    basis set group =>   1
Atom   2C    basis set group =>   1
Atom   3C    basis set group =>   1
Atom   4H    basis set group =>   2
Atom   5H    basis set group =>   2
Atom   6H    basis set group =>   2
Atom   7H    basis set group =>   2
Atom   8N    basis set group =>   3
Atom   9C    basis set group =>   1
Atom  10C    basis set group =>   1
Atom  11N    basis set group =>   3
Atom  12C    basis set group =>   1
Atom  13C    basis set group =>   1
Atom  14C    basis set group =>   1
Atom  15H    basis set group =>   2
Atom  16H    basis set group =>   2
Atom  17C    basis set group =>   1
Atom  18H    basis set group =>   2
Atom  19H    basis set group =>   2
Atom  20Pd   basis set group =>   4
Atom  21C    basis set group =>   1
Atom  22H    basis set group =>   2
Atom  23H    basis set group =>   2
Atom  24H    basis set group =>   2
Atom  25C    basis set group =>   1
Atom  26H    basis set group =>   2
Atom  27H    basis set group =>   2
Atom  28H    basis set group =>   2
Atom  29I    basis set group =>   5
Atom  30C    basis set group =>   1
Atom  31H    basis set group =>   2
Atom  32H    basis set group =>   2
Atom  33H    basis set group =>   2
---------------------------------
AUXILIARY/C BASIS SET INFORMATION
---------------------------------
There are 5 groups of distinct atoms

 Group   1 Type C   : 9s7p6d4f1g contracted to 9s7p5d4f1g pattern {111111111/1111111/21111/1111/1}
 Group   2 Type H   : 5s4p3d1f contracted to 5s4p3d1f pattern {11111/1111/111/1}
 Group   3 Type N   : 9s7p6d4f1g contracted to 9s7p5d4f1g pattern {111111111/1111111/21111/1111/1}
 Group   4 Type Pd  : 8s7p6d5f4g3h1i contracted to 8s7p6d5f4g3h1i pattern {11111111/1111111/111111/11111/1111/111/1}
 Group   5 Type I   : 10s9p9d7f4g3h contracted to 10s9p9d7f4g3h pattern {1111111111/111111111/111111111/1111111/1111/111}

Atom   0C    basis set group =>   1
Atom   1C    basis set group =>   1
Atom   2C    basis set group =>   1
Atom   3C    basis set group =>   1
Atom   4H    basis set group =>   2
Atom   5H    basis set group =>   2
Atom   6H    basis set group =>   2
Atom   7H    basis set group =>   2
Atom   8N    basis set group =>   3
Atom   9C    basis set group =>   1
Atom  10C    basis set group =>   1
Atom  11N    basis set group =>   3
Atom  12C    basis set group =>   1
Atom  13C    basis set group =>   1
Atom  14C    basis set group =>   1
Atom  15H    basis set group =>   2
Atom  16H    basis set group =>   2
Atom  17C    basis set group =>   1
Atom  18H    basis set group =>   2
Atom  19H    basis set group =>   2
Atom  20Pd   basis set group =>   4
Atom  21C    basis set group =>   1
Atom  22H    basis set group =>   2
Atom  23H    basis set group =>   2
Atom  24H    basis set group =>   2
Atom  25C    basis set group =>   1
Atom  26H    basis set group =>   2
Atom  27H    basis set group =>   2
Atom  28H    basis set group =>   2
Atom  29I    basis set group =>   5
Atom  30C    basis set group =>   1
Atom  31H    basis set group =>   2
Atom  32H    basis set group =>   2
Atom  33H    basis set group =>   2
----------------------------------
AUXILIARY/JK BASIS SET INFORMATION
----------------------------------
There are 5 groups of distinct atoms

 Group   1 Type C   : 14s10p6d2f1g contracted to 10s8p5d1f1g pattern {5111111111/31111111/21111/2/1}
 Group   2 Type H   : 4s2p2d contracted to 2s2p2d pattern {31/11/11}
 Group   3 Type N   : 14s10p6d2f1g contracted to 10s8p4d2f1g pattern {5111111111/31111111/3111/11/1}
 Group   4 Type Pd  : 13s12p10d9f6g3h2i contracted to 11s10p9d8f6g3h2i pattern {31111111111/3111111111/211111111/21111111/111111/111/11}
 Group   5 Type I   : 13s12p11d8f6g3h contracted to 11s10p10d7f5g3h pattern {31111111111/3111111111/2111111111/2111111/21111/111}

Atom   0C    basis set group =>   1
Atom   1C    basis set group =>   1
Atom   2C    basis set group =>   1
Atom   3C    basis set group =>   1
Atom   4H    basis set group =>   2
Atom   5H    basis set group =>   2
Atom   6H    basis set group =>   2
Atom   7H    basis set group =>   2
Atom   8N    basis set group =>   3
Atom   9C    basis set group =>   1
Atom  10C    basis set group =>   1
Atom  11N    basis set group =>   3
Atom  12C    basis set group =>   1
Atom  13C    basis set group =>   1
Atom  14C    basis set group =>   1
Atom  15H    basis set group =>   2
Atom  16H    basis set group =>   2
Atom  17C    basis set group =>   1
Atom  18H    basis set group =>   2
Atom  19H    basis set group =>   2
Atom  20Pd   basis set group =>   4
Atom  21C    basis set group =>   1
Atom  22H    basis set group =>   2
Atom  23H    basis set group =>   2
Atom  24H    basis set group =>   2
Atom  25C    basis set group =>   1
Atom  26H    basis set group =>   2
Atom  27H    basis set group =>   2
Atom  28H    basis set group =>   2
Atom  29I    basis set group =>   5
Atom  30C    basis set group =>   1
Atom  31H    basis set group =>   2
Atom  32H    basis set group =>   2
Atom  33H    basis set group =>   2
-------------------------
ECP PARAMETER INFORMATION
-------------------------

 Group 1, Type Pd ECP Def2-ECP (replacing 28 core electrons, lmax=3)
 Group 2, Type I  ECP Def2-ECP (replacing 28 core electrons, lmax=3)

Atom  20Pd   ECP group =>   1
Atom  29I    ECP group =>   2



           ************************************************************
           *        Program running with 24 parallel MPI-processes    *
           *              working on a common directory               *
           ************************************************************
------------------------------------------------------------------------------
                           ORCA GTO INTEGRAL CALCULATION
                           -- RI-GTO INTEGRALS CHOSEN --
------------------------------------------------------------------------------

                         BASIS SET STATISTICS AND STARTUP INFO

Gaussian basis set:
 # of primitive gaussian shells          ...  540
 # of primitive gaussian functions       ... 1288
 # of contracted shells                  ...  349
 # of contracted basis functions         ...  959
 Highest angular momentum                ...    4
 Maximum contraction depth               ...    6
Auxiliary gaussian basis set:
 # of primitive gaussian shells          ...  739
 # of primitive gaussian functions       ... 2317
 # of contracted shells                  ...  572
 # of contracted aux-basis functions     ... 1908
 Highest angular momentum                ...    6
 Maximum contraction depth               ...    5
Ratio of auxiliary to basis functions    ...  1.99
Integral package used                  ... LIBINT
 One Electron integrals                  
   ECP integrals                         ... done
 Ordering auxiliary basis shells         ... done
 Integral threshhold             Thresh  ...  1.000e-10
 Primitive cut-off               TCut    ...  1.000e-11
 Pre-screening matrix                    ... done
 Shell pair data                         ... 
 Ordering of the shell pairs             ... done (   0.009 sec) 50588 of 61075 pairs
 Determination of significant pairs      ... done (   0.000 sec)
 Creation of shell pair data             ... done (   0.005 sec)
 Storage of shell pair data              ... done (   0.036 sec)
 Shell pair data done in (   0.051 sec)
 Computing two index integrals           ... done
 Cholesky decomposition of the V-matrix  ... done


Timings:
 Total evaluation time                   ...   6.711 sec (  0.112 min)
 One electron matrix time                ...   5.765 sec (  0.096 min) = 85.9%
 Schwartz matrix evaluation time         ...   0.501 sec (  0.008 min) =  7.5%
 Two index repulsion integral time       ...   0.199 sec (  0.003 min) =  3.0%
 Cholesky decomposition of V             ...   0.161 sec (  0.003 min) =  2.4%
 Three index repulsion integral time     ...   0.000 sec (  0.000 min) =  0.0%



           ************************************************************
           *        Program running with 24 parallel MPI-processes    *
           *              working on a common directory               *
           ************************************************************
-------------------------------------------------------------------------------
                                 ORCA SCF
-------------------------------------------------------------------------------

------------
SCF SETTINGS
------------
Hamiltonian:
 Density Functional     Method          .... DFT(GTOs)
 Exchange Functional    Exchange        .... B88
   X-Alpha parameter    XAlpha          ....  0.666667
   Becke's b parameter  XBeta           ....  0.004200
 Correlation Functional Correlation     .... LYP
 LDA part of GGA corr.  LDAOpt          .... VWN-3
 Gradients option       PostSCFGGA      .... off
 Hybrid DFT is turned on
   Fraction HF Exchange ScalHFX         ....  0.530000
   Scaling of DF-GGA-X  ScalDFX         ....  0.470000
   Scaling of DF-GGA-C  ScalDFC         ....  0.730000
   Scaling of DF-LDA-C  ScalLDAC        ....  0.730000
   Perturbative correction              ....  0.270000
   Density functional embedding theory  .... OFF
 RI-approximation to the Coulomb term is turned on
   Number of auxiliary basis functions  .... 1908
   RI-JK (J+K treated both via RI)      .... on


General Settings:
 Integral files         IntName         .... MOR29_pr11
 Hartree-Fock type      HFTyp           .... RHF
 Total Charge           Charge          ....    0
 Multiplicity           Mult            ....    1
 Number of Electrons    NEL             ....  152
 Basis Dimension        Dim             ....  959
 Nuclear Repulsion      ENuc            ....   1690.8617730577 Eh

Convergence Acceleration:
 DIIS                   CNVDIIS         .... on
   Start iteration      DIISMaxIt       ....    12
   Startup error        DIISStart       ....  0.200000
   # of expansion vecs  DIISMaxEq       ....     5
   Bias factor          DIISBfac        ....   1.050
   Max. coefficient     DIISMaxC        ....  10.000
 Newton-Raphson         CNVNR           .... off
 SOSCF                  CNVSOSCF        .... off
 Level Shifting         CNVShift        .... on
   Level shift para.    LevelShift      ....    0.2500
   Turn off err/grad.   ShiftErr        ....    0.0010
 Zerner damping         CNVZerner       .... off
 Static damping         CNVDamp         .... on
   Fraction old density DampFac         ....    0.7000
   Max. Damping (<1)    DampMax         ....    0.9800
   Min. Damping (>=0)   DampMin         ....    0.0000
   Turn off err/grad.   DampErr         ....    0.1000
 Fernandez-Rico         CNVRico         .... off

SCF Procedure:
 Maximum # iterations   MaxIter         ....   125
 SCF integral mode      SCFMode         .... Direct
   Integral package                     .... LIBINT
 Reset frequency        DirectResetFreq ....    20
 Integral Threshold     Thresh          ....  1.000e-10 Eh
 Primitive CutOff       TCut            ....  1.000e-11 Eh

Convergence Tolerance:
 Convergence Check Mode ConvCheckMode   .... Total+1el-Energy
 Convergence forced     ConvForced      .... 0
 Energy Change          TolE            ....  1.000e-06 Eh
 1-El. energy change                    ....  1.000e-03 Eh
 DIIS Error             TolErr          ....  1.000e-06


Diagonalization of the overlap matrix:
Smallest eigenvalue                        ... 1.498e-07
Time for diagonalization                   ...    0.173 sec
Threshold for overlap eigenvalues          ... 1.000e-08
Number of eigenvalues below threshold      ... 0
Time for construction of square roots      ...    0.113 sec
Total time needed                          ...    0.288 sec

-------------------
DFT GRID GENERATION
-------------------

General Integration Accuracy     IntAcc      ...  4.670
Radial Grid Type                 RadialGrid  ... Gauss-Chebyshev
Angular Grid (max. acc.)         AngularGrid ... Lebedev-302
Angular grid pruning method      GridPruning ... 3 (G Style)
Weight generation scheme         WeightScheme... Becke
Basis function cutoff            BFCut       ...    1.0000e-10
Integration weight cutoff        WCut        ...    1.0000e-14
Grids for H and He will be reduced by one unit

# of grid points (after initial pruning)     ... 172302 (   0.0 sec)
# of grid points (after weights+screening)   ... 150815 (   0.1 sec)
nearest neighbour list constructed           ...    0.0 sec
Grid point re-assignment to atoms done       ...    0.0 sec
Grid point division into batches done        ...    0.5 sec
Reduced shell lists constructed in    1.1 sec

Total number of grid points                  ...   150815
Total number of batches                      ...     2375
Average number of points per batch           ...       63
Average number of grid points per atom       ...     4436
Average number of shells per batch           ...   192.56 (55.17%)
Average number of basis functions per batch  ...   517.28 (53.94%)
Average number of large shells per batch     ...   141.18 (73.32%)
Average number of large basis fcns per batch ...   382.50 (73.94%)
Average number of aux-shells per batch       ...   192.56 (33.66%)
Average number of aux functions per batch    ...   517.28 (27.11%)
Maximum spatial batch extension              ...  15.50, 20.34, 20.40 au
Average spatial batch extension              ...   0.07,  0.08,  0.07 au

Time for grid setup =    1.417 sec

------------------------------
INITIAL GUESS: MODEL POTENTIAL
------------------------------
Loading Hartree-Fock densities                     ... done
  calling /sw/apps/orca/orca_4_2_0_linux_x86-64_openmpi314/orca MOR29_pr11_atom46.inp > MOR29_pr11_atom46.out in order to generate an atomic fitting density for atom 20 (Pd with ECP) on-the-fly... 
    atom 20 (Pd), assumed electronic state with S=3: 1s2 2s2 2p6 3s2 3p6 4s2 3d10 4p6 5s2 4d8           ... done
  calling /sw/apps/orca/orca_4_2_0_linux_x86-64_openmpi314/orca MOR29_pr11_atom53.inp > MOR29_pr11_atom53.out in order to generate an atomic fitting density for atom 29 (I  with ECP) on-the-fly... 
    atom 29 (I ), assumed electronic state with S=2: 1s2 2s2 2p6 3s2 3p6 4s2 3d10 4p6 5s2 4d10 5p5           ... done
Calculating cut-offs                               ... done
Setting up the integral package                    ... done
Initializing the effective Hamiltonian             ... done
Starting the Coulomb interaction                   ... done (   0.1 sec)
Reading the grid                                   ... done
Mapping shells                                     ... done
Starting the XC term evaluation                    ... done (   0.6 sec)
  promolecular density results
     # of electrons  =    207.985699172
     EX              =   -398.143971861
     EC              =     -3.118061228
     EX+EC           =   -401.262033088
Transforming the Hamiltonian                       ... done (   0.1 sec)
Diagonalizing the Hamiltonian                      ... done (   0.2 sec)
Back transforming the eigenvectors                 ... done (   0.0 sec)
Now organizing SCF variables                       ... done
                      ------------------
                      INITIAL GUESS DONE (   4.5 sec)
                      ------------------
--------------
SCF ITERATIONS
--------------
ITER       Energy         Delta-E        Max-DP      RMS-DP      [F,P]     Damp
  0   -769.1586518437   0.000000000000112.10946913  0.50135187  6.8307138 0.7000
  1   -931.7135979121-162.554946068350111.00890383  0.33517645  2.8110659 0.7000
  2   -966.4659187280 -34.75232081590489.56271795  0.28403816  0.9134015 0.7000
  3   -990.5666127951 -24.10069406716061.58469578  0.19229040  0.6084944 0.7000
  4  -1004.2677865854 -13.70117379028848.92412806  0.15330463  0.4726086 0.7000
  5  -1014.6391629592 -10.37137637377134.77708165  0.11193642  0.3470002 0.7000
  6  -1022.0358223059  -7.39665934674924.78439850  0.07952752  0.2563405 0.7000
  7  -1027.1982535323  -5.16243122640617.85987184  0.05621343  0.2049561 0.7000
                               ***Turning on DIIS***
  8  -1030.7642002764  -3.56594674401012.84707915  0.03987937  0.1563657 0.7000
  9  -1033.2217590580  -2.457558781649 9.25037670  0.02853195  0.1158925 0.7000
 10  -1034.9089598360  -1.68720077801321.27508313  0.06624974  0.0821612 0.0000
 11  -1038.9540908741  -4.045131038116 0.11942231  0.00056656  0.0406487 0.0000
 12  -1038.9607219677  -0.006631093516 0.43860560  0.00126435  0.0113609 0.0000
 13  -1038.9609875678  -0.000265600189 0.09717152  0.00031891  0.0120903 0.0000
 14  -1038.9613710126  -0.000383444763 0.40676659  0.00188365  0.0012518 0.0000
 15  -1038.9613900447  -0.000019032098 0.30491583  0.00088741  0.0005394 0.0000
 16  -1038.9613964550  -0.000006410345 0.26179626  0.00096248  0.0003179 0.0000
 17  -1038.9613973331  -0.000000878009 0.17174030  0.00073197  0.0001605 0.0000
 18  -1038.9613975706  -0.000000237562 0.23382279  0.00093307  0.0000569 0.0000
 19  -1038.9613976176  -0.000000046973 0.18074527  0.00068207  0.0000364 0.0000
 20  -1038.9613976326  -0.000000015035 0.13052846  0.00069883  0.0000327 0.0000
                 **** Energy Check signals convergence ****

               *****************************************************
               *                     SUCCESS                       *
               *           SCF CONVERGED AFTER  21 CYCLES          *
               *****************************************************


----------------
TOTAL SCF ENERGY
----------------

Total Energy       :        -1038.96139763 Eh          -28271.57693 eV

Components:
Nuclear Repulsion  :         1690.86177306 Eh           46010.68798 eV
Electronic Energy  :        -2729.82317069 Eh          -74282.26491 eV
One Electron Energy:        -4939.81859906 Eh         -134419.29783 eV
Two Electron Energy:         2209.99542837 Eh           60137.03291 eV

Virial components:
Potential Energy   :        -1811.87418874 Eh          -49303.60322 eV
Kinetic Energy     :          772.91279112 Eh           21032.02629 eV
Virial Ratio       :            2.34421556


DFT components:
N(Alpha)           :       76.000086594605 electrons
N(Beta)            :       76.000086594605 electrons
N(Total)           :      152.000173189210 electrons
E(X)               :      -56.391181402368 Eh       
E(C)               :       -3.897651397982 Eh       
E(XC)              :      -60.288832800350 Eh       
DFET-embed. en.    :        0.000000000000 Eh       

---------------
SCF CONVERGENCE
---------------

  Last Energy change         ...    2.8015e-09  Tolerance :   1.0000e-06
  Last MAX-Density change    ...    1.7924e-01  Tolerance :   1.0000e-05
  Last RMS-Density change    ...    4.4269e-04  Tolerance :   1.0000e-06
  Last DIIS Error            ...    1.2367e-05  Tolerance :   1.0000e-06

             **** THE GBW FILE WAS UPDATED (MOR29_pr11.gbw) ****
             **** DENSITY FILE WAS UPDATED (MOR29_pr11.scfp) ****
             **** ENERGY FILE WAS UPDATED (MOR29_pr11.en.tmp) ****
             **** THE GBW FILE WAS UPDATED (MOR29_pr11.gbw) ****
             **** DENSITY FILE WAS UPDATED (MOR29_pr11.scfp) ****
----------------
ORBITAL ENERGIES
----------------

  NO   OCC          E(Eh)            E(eV) 
   0   2.0000     -14.894902      -405.3109 
   1   2.0000     -14.894104      -405.2892 
   2   2.0000     -10.706538      -291.3397 
   3   2.0000     -10.705610      -291.3144 
   4   2.0000     -10.690115      -290.8928 
   5   2.0000     -10.688899      -290.8597 
   6   2.0000     -10.672322      -290.4086 
   7   2.0000     -10.671369      -290.3827 
   8   2.0000     -10.664235      -290.1886 
   9   2.0000     -10.663462      -290.1675 
  10   2.0000     -10.659225      -290.0523 
  11   2.0000     -10.658073      -290.0209 
  12   2.0000     -10.600173      -288.4454 
  13   2.0000     -10.596180      -288.3367 
  14   2.0000     -10.594585      -288.2933 
  15   2.0000      -7.114176      -193.5866 
  16   2.0000      -5.063339      -137.7804 
  17   2.0000      -5.059566      -137.6778 
  18   2.0000      -5.059489      -137.6757 
  19   2.0000      -3.750773      -102.0637 
  20   2.0000      -2.367260       -64.4164 
  21   2.0000      -2.364468       -64.3405 
  22   2.0000      -2.363945       -64.3262 
  23   2.0000      -1.965337       -53.4795 
  24   2.0000      -1.963994       -53.4430 
  25   2.0000      -1.963923       -53.4411 
  26   2.0000      -1.960325       -53.3432 
  27   2.0000      -1.960313       -53.3428 
  28   2.0000      -1.133967       -30.8568 
  29   2.0000      -1.106569       -30.1113 
  30   2.0000      -0.963801       -26.2263 
  31   2.0000      -0.955250       -25.9937 
  32   2.0000      -0.949163       -25.8280 
  33   2.0000      -0.890169       -24.2227 
  34   2.0000      -0.793126       -21.5821 
  35   2.0000      -0.782703       -21.2984 
  36   2.0000      -0.781843       -21.2750 
  37   2.0000      -0.756612       -20.5885 
  38   2.0000      -0.755004       -20.5447 
  39   2.0000      -0.743501       -20.2317 
  40   2.0000      -0.732985       -19.9455 
  41   2.0000      -0.677473       -18.4350 
  42   2.0000      -0.661398       -17.9976 
  43   2.0000      -0.617104       -16.7922 
  44   2.0000      -0.616306       -16.7705 
  45   2.0000      -0.595102       -16.1936 
  46   2.0000      -0.577510       -15.7149 
  47   2.0000      -0.554641       -15.0925 
  48   2.0000      -0.540806       -14.7161 
  49   2.0000      -0.529435       -14.4067 
  50   2.0000      -0.528728       -14.3874 
  51   2.0000      -0.520631       -14.1671 
  52   2.0000      -0.496941       -13.5225 
  53   2.0000      -0.489582       -13.3222 
  54   2.0000      -0.481853       -13.1119 
  55   2.0000      -0.478945       -13.0328 
  56   2.0000      -0.472710       -12.8631 
  57   2.0000      -0.465598       -12.6696 
  58   2.0000      -0.439911       -11.9706 
  59   2.0000      -0.436881       -11.8881 
  60   2.0000      -0.433368       -11.7926 
  61   2.0000      -0.431721       -11.7477 
  62   2.0000      -0.419347       -11.4110 
  63   2.0000      -0.389516       -10.5993 
  64   2.0000      -0.383531       -10.4364 
  65   2.0000      -0.376350       -10.2410 
  66   2.0000      -0.368522       -10.0280 
  67   2.0000      -0.359480        -9.7820 
  68   2.0000      -0.351412        -9.5624 
  69   2.0000      -0.350057        -9.5255 
  70   2.0000      -0.326801        -8.8927 
  71   2.0000      -0.310528        -8.4499 
  72   2.0000      -0.305232        -8.3058 
  73   2.0000      -0.241686        -6.5766 
  74   2.0000      -0.231014        -6.2862 
  75   2.0000      -0.230466        -6.2713 
  76   0.0000      -0.048105        -1.3090 
  77   0.0000      -0.016440        -0.4474 
  78   0.0000      -0.001291        -0.0351 
  79   0.0000       0.012162         0.3309 
  80   0.0000       0.016667         0.4535 
  81   0.0000       0.024666         0.6712 
  82   0.0000       0.029342         0.7984 
  83   0.0000       0.033759         0.9186 
  84   0.0000       0.045946         1.2503 
  85   0.0000       0.046113         1.2548 
  86   0.0000       0.049251         1.3402 
  87   0.0000       0.050914         1.3854 
  88   0.0000       0.062018         1.6876 
  89   0.0000       0.064039         1.7426 
  90   0.0000       0.065569         1.7842 
  91   0.0000       0.068163         1.8548 
  92   0.0000       0.075898         2.0653 
  93   0.0000       0.085202         2.3185 
  94   0.0000       0.093299         2.5388 
  95   0.0000       0.094272         2.5653 
  96   0.0000       0.103580         2.8186 
  97   0.0000       0.106827         2.9069 
  98   0.0000       0.118655         3.2288 
  99   0.0000       0.123936         3.3725 
 100   0.0000       0.128155         3.4873 
 101   0.0000       0.131964         3.5909 
 102   0.0000       0.134138         3.6501 
 103   0.0000       0.137747         3.7483 
 104   0.0000       0.138994         3.7822 
 105   0.0000       0.143866         3.9148 
 106   0.0000       0.146788         3.9943 
 107   0.0000       0.155560         4.2330 
 108   0.0000       0.156426         4.2566 
 109   0.0000       0.162019         4.4088 
 110   0.0000       0.164846         4.4857 
 111   0.0000       0.171080         4.6553 
 112   0.0000       0.174339         4.7440 
 113   0.0000       0.178401         4.8545 
 114   0.0000       0.181493         4.9387 
 115   0.0000       0.184942         5.0325 
 116   0.0000       0.188755         5.1363 
 117   0.0000       0.191684         5.2160 
 118   0.0000       0.194865         5.3025 
 119   0.0000       0.197316         5.3692 
 120   0.0000       0.201719         5.4891 
 121   0.0000       0.205906         5.6030 
 122   0.0000       0.211421         5.7531 
 123   0.0000       0.214018         5.8237 
 124   0.0000       0.215756         5.8710 
 125   0.0000       0.216838         5.9005 
 126   0.0000       0.220207         5.9921 
 127   0.0000       0.226565         6.1651 
 128   0.0000       0.227984         6.2038 
 129   0.0000       0.230622         6.2755 
 130   0.0000       0.232378         6.3233 
 131   0.0000       0.234322         6.3762 
 132   0.0000       0.235801         6.4165 
 133   0.0000       0.239585         6.5195 
 134   0.0000       0.243227         6.6185 
 135   0.0000       0.249616         6.7924 
 136   0.0000       0.254528         6.9261 
 137   0.0000       0.258192         7.0258 
 138   0.0000       0.261820         7.1245 
 139   0.0000       0.263149         7.1607 
 140   0.0000       0.267402         7.2764 
 141   0.0000       0.269558         7.3350 
 142   0.0000       0.276966         7.5366 
 143   0.0000       0.279504         7.6057 
 144   0.0000       0.280188         7.6243 
 145   0.0000       0.283219         7.7068 
 146   0.0000       0.286639         7.7998 
 147   0.0000       0.288056         7.8384 
 148   0.0000       0.293131         7.9765 
 149   0.0000       0.294667         8.0183 
 150   0.0000       0.299273         8.1436 
 151   0.0000       0.300264         8.1706 
 152   0.0000       0.305869         8.3231 
 153   0.0000       0.312104         8.4928 
 154   0.0000       0.314909         8.5691 
 155   0.0000       0.318224         8.6593 
 156   0.0000       0.321017         8.7353 
 157   0.0000       0.323234         8.7956 
 158   0.0000       0.326356         8.8806 
 159   0.0000       0.327988         8.9250 
 160   0.0000       0.328904         8.9499 
 161   0.0000       0.332932         9.0595 
 162   0.0000       0.335382         9.1262 
 163   0.0000       0.336625         9.1600 
 164   0.0000       0.337399         9.1811 
 165   0.0000       0.338672         9.2157 
 166   0.0000       0.343617         9.3503 
 167   0.0000       0.346033         9.4160 
 168   0.0000       0.349892         9.5210 
 169   0.0000       0.353666         9.6237 
 170   0.0000       0.357678         9.7329 
 171   0.0000       0.360413         9.8073 
 172   0.0000       0.361957         9.8494 
 173   0.0000       0.364025         9.9056 
 174   0.0000       0.365475         9.9451 
 175   0.0000       0.366488         9.9727 
 176   0.0000       0.368134        10.0174 
 177   0.0000       0.371483        10.1086 
 178   0.0000       0.375199        10.2097 
 179   0.0000       0.378659        10.3038 
 180   0.0000       0.382645        10.4123 
 181   0.0000       0.383836        10.4447 
 182   0.0000       0.385560        10.4916 
 183   0.0000       0.387610        10.5474 
 184   0.0000       0.393321        10.7028 
 185   0.0000       0.396418        10.7871 
 186   0.0000       0.397927        10.8281 
 187   0.0000       0.401660        10.9297 
 188   0.0000       0.406942        11.0735 
 189   0.0000       0.408107        11.1052 
 190   0.0000       0.410697        11.1756 
 191   0.0000       0.414262        11.2726 
 192   0.0000       0.419315        11.4101 
 193   0.0000       0.424261        11.5447 
 194   0.0000       0.428135        11.6501 
 195   0.0000       0.431200        11.7336 
 196   0.0000       0.433996        11.8096 
 197   0.0000       0.435323        11.8457 
 198   0.0000       0.439072        11.9477 
 199   0.0000       0.442829        12.0500 
 200   0.0000       0.444309        12.0903 
 201   0.0000       0.446993        12.1633 
 202   0.0000       0.449390        12.2285 
 203   0.0000       0.457981        12.4623 
 204   0.0000       0.462200        12.5771 
 205   0.0000       0.463468        12.6116 
 206   0.0000       0.467610        12.7243 
 207   0.0000       0.468293        12.7429 
 208   0.0000       0.475128        12.9289 
 209   0.0000       0.475772        12.9464 
 210   0.0000       0.478507        13.0208 
 211   0.0000       0.482853        13.1391 
 212   0.0000       0.486367        13.2347 
 213   0.0000       0.487692        13.2708 
 214   0.0000       0.491885        13.3849 
 215   0.0000       0.496176        13.5016 
 216   0.0000       0.500841        13.6286 
 217   0.0000       0.505155        13.7460 
 218   0.0000       0.509982        13.8773 
 219   0.0000       0.511132        13.9086 
 220   0.0000       0.515452        14.0262 
 221   0.0000       0.519182        14.1276 
 222   0.0000       0.521932        14.2025 
 223   0.0000       0.523955        14.2575 
 224   0.0000       0.527898        14.3648 
 225   0.0000       0.530019        14.4226 
 226   0.0000       0.534554        14.5459 
 227   0.0000       0.537346        14.6219 
 228   0.0000       0.539958        14.6930 
 229   0.0000       0.542439        14.7605 
 230   0.0000       0.548490        14.9252 
 231   0.0000       0.553155        15.0521 
 232   0.0000       0.554770        15.0961 
 233   0.0000       0.557886        15.1809 
 234   0.0000       0.563385        15.3305 
 235   0.0000       0.569356        15.4930 
 236   0.0000       0.571598        15.5540 
 237   0.0000       0.576346        15.6832 
 238   0.0000       0.580886        15.8067 
 239   0.0000       0.582631        15.8542 
 240   0.0000       0.584828        15.9140 
 241   0.0000       0.594305        16.1718 
 242   0.0000       0.596382        16.2284 
 243   0.0000       0.598823        16.2948 
 244   0.0000       0.600032        16.3277 
 245   0.0000       0.600893        16.3511 
 246   0.0000       0.608096        16.5471 
 247   0.0000       0.615124        16.7384 
 248   0.0000       0.617677        16.8078 
 249   0.0000       0.626000        17.0343 
 250   0.0000       0.626714        17.0537 
 251   0.0000       0.633430        17.2365 
 252   0.0000       0.637538        17.3483 
 253   0.0000       0.639659        17.4060 
 254   0.0000       0.642135        17.4734 
 255   0.0000       0.647272        17.6132 
 256   0.0000       0.647643        17.6233 
 257   0.0000       0.649965        17.6865 
 258   0.0000       0.654426        17.8078 
 259   0.0000       0.656048        17.8520 
 260   0.0000       0.658363        17.9150 
 261   0.0000       0.661480        17.9998 
 262   0.0000       0.669066        18.2062 
 263   0.0000       0.672352        18.2956 
 264   0.0000       0.673594        18.3294 
 265   0.0000       0.675586        18.3836 
 266   0.0000       0.682103        18.5610 
 267   0.0000       0.684382        18.6230 
 268   0.0000       0.685905        18.6644 
 269   0.0000       0.690341        18.7851 
 270   0.0000       0.691504        18.8168 
 271   0.0000       0.694929        18.9100 
 272   0.0000       0.698211        18.9993 
 273   0.0000       0.699575        19.0364 
 274   0.0000       0.701784        19.0965 
 275   0.0000       0.706263        19.2184 
 276   0.0000       0.708201        19.2711 
 277   0.0000       0.710222        19.3261 
 278   0.0000       0.713320        19.4104 
 279   0.0000       0.716075        19.4854 
 280   0.0000       0.722631        19.6638 
 281   0.0000       0.727370        19.7927 
 282   0.0000       0.731192        19.8967 
 283   0.0000       0.733774        19.9670 
 284   0.0000       0.737016        20.0552 
 285   0.0000       0.744745        20.2656 
 286   0.0000       0.744953        20.2712 
 287   0.0000       0.747646        20.3445 
 288   0.0000       0.753425        20.5017 
 289   0.0000       0.759280        20.6611 
 290   0.0000       0.761260        20.7149 
 291   0.0000       0.762847        20.7581 
 292   0.0000       0.767642        20.8886 
 293   0.0000       0.769797        20.9472 
 294   0.0000       0.776865        21.1396 
 295   0.0000       0.781257        21.2591 
 296   0.0000       0.783902        21.3310 
 297   0.0000       0.785386        21.3714 
 298   0.0000       0.787262        21.4225 
 299   0.0000       0.790155        21.5012 
 300   0.0000       0.793801        21.6004 
 301   0.0000       0.799356        21.7516 
 302   0.0000       0.800053        21.7706 
 303   0.0000       0.803281        21.8584 
 304   0.0000       0.809593        22.0301 
 305   0.0000       0.814380        22.1604 
 306   0.0000       0.815759        22.1979 
 307   0.0000       0.821751        22.3610 
 308   0.0000       0.824495        22.4356 
 309   0.0000       0.827308        22.5122 
 310   0.0000       0.830046        22.5867 
 311   0.0000       0.833484        22.6803 
 312   0.0000       0.836958        22.7748 
 313   0.0000       0.838312        22.8116 
 314   0.0000       0.845339        23.0029 
 315   0.0000       0.850340        23.1389 
 316   0.0000       0.851925        23.1821 
 317   0.0000       0.855190        23.2709 
 318   0.0000       0.861448        23.4412 
 319   0.0000       0.864284        23.5184 
 320   0.0000       0.871751        23.7216 
 321   0.0000       0.877161        23.8688 
 322   0.0000       0.880472        23.9589 
 323   0.0000       0.884317        24.0635 
 324   0.0000       0.891495        24.2588 
 325   0.0000       0.893296        24.3078 
 326   0.0000       0.899940        24.4886 
 327   0.0000       0.908612        24.7246 
 328   0.0000       0.909463        24.7478 
 329   0.0000       0.920147        25.0385 
 330   0.0000       0.926493        25.2112 
 331   0.0000       0.929509        25.2932 
 332   0.0000       0.933576        25.4039 
 333   0.0000       0.940814        25.6009 
 334   0.0000       0.944696        25.7065 
 335   0.0000       0.951374        25.8882 
 336   0.0000       0.953090        25.9349 
 337   0.0000       0.960863        26.1464 
 338   0.0000       0.969239        26.3743 
 339   0.0000       0.974975        26.5304 
 340   0.0000       0.979712        26.6593 
 341   0.0000       0.989571        26.9276 
 342   0.0000       0.991774        26.9875 
 343   0.0000       0.999954        27.2101 
 344   0.0000       1.005757        27.3680 
 345   0.0000       1.006905        27.3993 
 346   0.0000       1.012131        27.5415 
 347   0.0000       1.017730        27.6938 
 348   0.0000       1.019509        27.7423 
 349   0.0000       1.026356        27.9286 
 350   0.0000       1.028338        27.9825 
 351   0.0000       1.037174        28.2229 
 352   0.0000       1.038573        28.2610 
 353   0.0000       1.045307        28.4443 
 354   0.0000       1.050206        28.5775 
 355   0.0000       1.056863        28.7587 
 356   0.0000       1.062372        28.9086 
 357   0.0000       1.063754        28.9462 
 358   0.0000       1.069998        29.1161 
 359   0.0000       1.076627        29.2965 
 360   0.0000       1.079514        29.3751 
 361   0.0000       1.086109        29.5545 
 362   0.0000       1.091654        29.7054 
 363   0.0000       1.102354        29.9966 
 364   0.0000       1.103053        30.0156 
 365   0.0000       1.108472        30.1631 
 366   0.0000       1.114292        30.3214 
 367   0.0000       1.123009        30.5586 
 368   0.0000       1.129833        30.7443 
 369   0.0000       1.131701        30.7951 
 370   0.0000       1.136535        30.9267 
 371   0.0000       1.146730        31.2041 
 372   0.0000       1.154301        31.4101 
 373   0.0000       1.158525        31.5251 
 374   0.0000       1.164667        31.6922 
 375   0.0000       1.168610        31.7995 
 376   0.0000       1.174196        31.9515 
 377   0.0000       1.182122        32.1672 
 378   0.0000       1.186322        32.2815 
 379   0.0000       1.193361        32.4730 
 380   0.0000       1.203031        32.7361 
 381   0.0000       1.205384        32.8002 
 382   0.0000       1.211223        32.9590 
 383   0.0000       1.218193        33.1487 
 384   0.0000       1.220351        33.2075 
 385   0.0000       1.227050        33.3897 
 386   0.0000       1.231370        33.5073 
 387   0.0000       1.246478        33.9184 
 388   0.0000       1.251834        34.0641 
 389   0.0000       1.258238        34.2384 
 390   0.0000       1.264164        34.3997 
 391   0.0000       1.271865        34.6092 
 392   0.0000       1.273965        34.6663 
 393   0.0000       1.279753        34.8239 
 394   0.0000       1.283514        34.9262 
 395   0.0000       1.295526        35.2531 
 396   0.0000       1.301426        35.4136 
 397   0.0000       1.309171        35.6244 
 398   0.0000       1.313126        35.7320 
 399   0.0000       1.318744        35.8848 
 400   0.0000       1.322730        35.9933 
 401   0.0000       1.326636        36.0996 
 402   0.0000       1.337299        36.3898 
 403   0.0000       1.340629        36.4804 
 404   0.0000       1.351000        36.7626 
 405   0.0000       1.352712        36.8092 
 406   0.0000       1.359408        36.9914 
 407   0.0000       1.365106        37.1464 
 408   0.0000       1.366973        37.1972 
 409   0.0000       1.374759        37.4091 
 410   0.0000       1.381559        37.5941 
 411   0.0000       1.384143        37.6645 
 412   0.0000       1.392850        37.9014 
 413   0.0000       1.410096        38.3707 
 414   0.0000       1.415120        38.5074 
 415   0.0000       1.427430        38.8424 
 416   0.0000       1.429663        38.9031 
 417   0.0000       1.431711        38.9588 
 418   0.0000       1.439340        39.1664 
 419   0.0000       1.441132        39.2152 
 420   0.0000       1.444446        39.3054 
 421   0.0000       1.459237        39.7079 
 422   0.0000       1.471231        40.0342 
 423   0.0000       1.477438        40.2031 
 424   0.0000       1.479966        40.2719 
 425   0.0000       1.482811        40.3493 
 426   0.0000       1.487147        40.4673 
 427   0.0000       1.495657        40.6989 
 428   0.0000       1.500205        40.8227 
 429   0.0000       1.505211        40.9589 
 430   0.0000       1.511326        41.1253 
 431   0.0000       1.516389        41.2631 
 432   0.0000       1.521064        41.3902 
 433   0.0000       1.527608        41.5683 
 434   0.0000       1.533889        41.7392 
 435   0.0000       1.545827        42.0641 
 436   0.0000       1.549476        42.1634 
 437   0.0000       1.551462        42.2174 
 438   0.0000       1.568013        42.6678 
 439   0.0000       1.574394        42.8414 
 440   0.0000       1.579536        42.9813 
 441   0.0000       1.585892        43.1543 
 442   0.0000       1.592653        43.3383 
 443   0.0000       1.596563        43.4447 
 444   0.0000       1.602778        43.6138 
 445   0.0000       1.610504        43.8240 
 446   0.0000       1.615420        43.9578 
 447   0.0000       1.621869        44.1333 
 448   0.0000       1.635404        44.5016 
 449   0.0000       1.637579        44.5608 
 450   0.0000       1.642130        44.6846 
 451   0.0000       1.643478        44.7213 
 452   0.0000       1.654549        45.0226 
 453   0.0000       1.658154        45.1207 
 454   0.0000       1.664507        45.2935 
 455   0.0000       1.669535        45.4304 
 456   0.0000       1.686295        45.8864 
 457   0.0000       1.687045        45.9068 
 458   0.0000       1.698800        46.2267 
 459   0.0000       1.705759        46.4161 
 460   0.0000       1.712180        46.5908 
 461   0.0000       1.730788        47.0971 
 462   0.0000       1.735360        47.2216 
 463   0.0000       1.741449        47.3872 
 464   0.0000       1.747341        47.5476 
 465   0.0000       1.753725        47.7213 
 466   0.0000       1.756827        47.8057 
 467   0.0000       1.767711        48.1019 
 468   0.0000       1.781029        48.4643 
 469   0.0000       1.785702        48.5914 
 470   0.0000       1.792672        48.7811 
 471   0.0000       1.795981        48.8711 
 472   0.0000       1.800547        48.9954 
 473   0.0000       1.812912        49.3319 
 474   0.0000       1.817507        49.4569 
 475   0.0000       1.824621        49.6505 
 476   0.0000       1.827270        49.7225 
 477   0.0000       1.835660        49.9508 
 478   0.0000       1.838193        50.0198 
 479   0.0000       1.840732        50.0889 
 480   0.0000       1.847141        50.2633 
 481   0.0000       1.854874        50.4737 
 482   0.0000       1.861094        50.6429 
 483   0.0000       1.866904        50.8010 
 484   0.0000       1.874132        50.9977 
 485   0.0000       1.881607        51.2011 
 486   0.0000       1.888394        51.3858 
 487   0.0000       1.893036        51.5121 
 488   0.0000       1.898338        51.6564 
 489   0.0000       1.900820        51.7239 
 490   0.0000       1.909964        51.9728 
 491   0.0000       1.911554        52.0160 
 492   0.0000       1.919445        52.2308 
 493   0.0000       1.924817        52.3769 
 494   0.0000       1.931132        52.5488 
 495   0.0000       1.934015        52.6272 
 496   0.0000       1.937321        52.7172 
 497   0.0000       1.947808        53.0025 
 498   0.0000       1.953024        53.1445 
 499   0.0000       1.962392        53.3994 
 500   0.0000       1.966037        53.4986 
 501   0.0000       1.980407        53.8896 
 502   0.0000       1.986879        54.0657 
 503   0.0000       1.995654        54.3045 
 504   0.0000       2.002895        54.5015 
 505   0.0000       2.009858        54.6910 
 506   0.0000       2.015579        54.8467 
 507   0.0000       2.023595        55.0648 
 508   0.0000       2.040711        55.5306 
 509   0.0000       2.043241        55.5994 
 510   0.0000       2.054186        55.8972 
 511   0.0000       2.073777        56.4303 
 512   0.0000       2.084296        56.7166 
 513   0.0000       2.087758        56.8108 
 514   0.0000       2.101667        57.1893 
 515   0.0000       2.113325        57.5065 
 516   0.0000       2.124326        57.8058 
 517   0.0000       2.128742        57.9260 
 518   0.0000       2.134378        58.0794 
 519   0.0000       2.149791        58.4988 
 520   0.0000       2.158452        58.7345 
 521   0.0000       2.173518        59.1444 
 522   0.0000       2.183984        59.4292 
 523   0.0000       2.189213        59.5715 
 524   0.0000       2.217308        60.3360 
 525   0.0000       2.235924        60.8426 
 526   0.0000       2.244629        61.0795 
 527   0.0000       2.256271        61.3963 
 528   0.0000       2.262829        61.5747 
 529   0.0000       2.267452        61.7005 
 530   0.0000       2.276151        61.9372 
 531   0.0000       2.280932        62.0673 
 532   0.0000       2.293351        62.4053 
 533   0.0000       2.305632        62.7394 
 534   0.0000       2.317909        63.0735 
 535   0.0000       2.328896        63.3725 
 536   0.0000       2.340241        63.6812 
 537   0.0000       2.349398        63.9304 
 538   0.0000       2.358176        64.1692 
 539   0.0000       2.397331        65.2347 
 540   0.0000       2.411388        65.6172 
 541   0.0000       2.416946        65.7684 
 542   0.0000       2.438824        66.3638 
 543   0.0000       2.451533        66.7096 
 544   0.0000       2.459146        66.9168 
 545   0.0000       2.464875        67.0727 
 546   0.0000       2.482754        67.5592 
 547   0.0000       2.502920        68.1079 
 548   0.0000       2.507990        68.2459 
 549   0.0000       2.520392        68.5834 
 550   0.0000       2.529301        68.8258 
 551   0.0000       2.534009        68.9539 
 552   0.0000       2.571906        69.9851 
 553   0.0000       2.574718        70.0616 
 554   0.0000       2.580119        70.2086 
 555   0.0000       2.601784        70.7981 
 556   0.0000       2.604892        70.8827 
 557   0.0000       2.619359        71.2764 
 558   0.0000       2.625767        71.4508 
 559   0.0000       2.630723        71.5856 
 560   0.0000       2.639628        71.8279 
 561   0.0000       2.658738        72.3479 
 562   0.0000       2.679158        72.9036 
 563   0.0000       2.685716        73.0821 
 564   0.0000       2.709890        73.7399 
 565   0.0000       2.720461        74.0275 
 566   0.0000       2.739514        74.5460 
 567   0.0000       2.764303        75.2205 
 568   0.0000       2.768836        75.3439 
 569   0.0000       2.773366        75.4671 
 570   0.0000       2.789890        75.9168 
 571   0.0000       2.799899        76.1891 
 572   0.0000       2.812061        76.5201 
 573   0.0000       2.821249        76.7701 
 574   0.0000       2.829947        77.0068 
 575   0.0000       2.840113        77.2834 
 576   0.0000       2.851750        77.6001 
 577   0.0000       2.861224        77.8579 
 578   0.0000       2.875344        78.2421 
 579   0.0000       2.886252        78.5389 
 580   0.0000       2.914110        79.2970 
 581   0.0000       2.938616        79.9638 
 582   0.0000       2.949211        80.2521 
 583   0.0000       2.953789        80.3767 
 584   0.0000       2.964678        80.6730 
 585   0.0000       2.976754        81.0016 
 586   0.0000       2.994531        81.4853 
 587   0.0000       3.003320        81.7245 
 588   0.0000       3.007088        81.8270 
 589   0.0000       3.015328        82.0512 
 590   0.0000       3.019262        82.1583 
 591   0.0000       3.022654        82.2506 
 592   0.0000       3.040035        82.7236 
 593   0.0000       3.050014        82.9951 
 594   0.0000       3.053283        83.0841 
 595   0.0000       3.059702        83.2587 
 596   0.0000       3.062443        83.3333 
 597   0.0000       3.067653        83.4751 
 598   0.0000       3.069713        83.5311 
 599   0.0000       3.085436        83.9590 
 600   0.0000       3.089033        84.0569 
 601   0.0000       3.097159        84.2780 
 602   0.0000       3.108273        84.5804 
 603   0.0000       3.112925        84.7070 
 604   0.0000       3.117245        84.8246 
 605   0.0000       3.126302        85.0710 
 606   0.0000       3.131231        85.2051 
 607   0.0000       3.137172        85.3668 
 608   0.0000       3.140910        85.4685 
 609   0.0000       3.152143        85.7742 
 610   0.0000       3.163201        86.0751 
 611   0.0000       3.164029        86.0976 
 612   0.0000       3.176641        86.4408 
 613   0.0000       3.179273        86.5124 
 614   0.0000       3.186133        86.6991 
 615   0.0000       3.187335        86.7318 
 616   0.0000       3.190849        86.8274 
 617   0.0000       3.196016        86.9680 
 618   0.0000       3.206890        87.2639 
 619   0.0000       3.210562        87.3638 
 620   0.0000       3.222001        87.6751 
 621   0.0000       3.230723        87.9124 
 622   0.0000       3.235048        88.0301 
 623   0.0000       3.251640        88.4816 
 624   0.0000       3.255032        88.5739 
 625   0.0000       3.261634        88.7536 
 626   0.0000       3.265818        88.8674 
 627   0.0000       3.269281        88.9616 
 628   0.0000       3.277234        89.1781 
 629   0.0000       3.281363        89.2904 
 630   0.0000       3.283963        89.3612 
 631   0.0000       3.289914        89.5231 
 632   0.0000       3.294199        89.6397 
 633   0.0000       3.294399        89.6452 
 634   0.0000       3.308902        90.0398 
 635   0.0000       3.311630        90.1140 
 636   0.0000       3.318170        90.2920 
 637   0.0000       3.330055        90.6154 
 638   0.0000       3.331973        90.6676 
 639   0.0000       3.344763        91.0156 
 640   0.0000       3.360054        91.4317 
 641   0.0000       3.367338        91.6299 
 642   0.0000       3.371097        91.7322 
 643   0.0000       3.374129        91.8147 
 644   0.0000       3.377177        91.8976 
 645   0.0000       3.382203        92.0344 
 646   0.0000       3.391101        92.2765 
 647   0.0000       3.392840        92.3239 
 648   0.0000       3.401267        92.5532 
 649   0.0000       3.405663        92.6728 
 650   0.0000       3.415157        92.9311 
 651   0.0000       3.419514        93.0497 
 652   0.0000       3.422213        93.1232 
 653   0.0000       3.427076        93.2555 
 654   0.0000       3.436291        93.5062 
 655   0.0000       3.440277        93.6147 
 656   0.0000       3.447180        93.8025 
 657   0.0000       3.454629        94.0052 
 658   0.0000       3.457032        94.0706 
 659   0.0000       3.461754        94.1991 
 660   0.0000       3.464785        94.2816 
 661   0.0000       3.468449        94.3813 
 662   0.0000       3.474194        94.5376 
 663   0.0000       3.477611        94.6306 
 664   0.0000       3.480547        94.7105 
 665   0.0000       3.493442        95.0614 
 666   0.0000       3.499641        95.2301 
 667   0.0000       3.502888        95.3184 
 668   0.0000       3.512822        95.5888 
 669   0.0000       3.521847        95.8343 
 670   0.0000       3.526177        95.9522 
 671   0.0000       3.531055        96.0849 
 672   0.0000       3.538606        96.2904 
 673   0.0000       3.544331        96.4461 
 674   0.0000       3.557318        96.7995 
 675   0.0000       3.561586        96.9157 
 676   0.0000       3.574194        97.2588 
 677   0.0000       3.581372        97.4541 
 678   0.0000       3.593545        97.7853 
 679   0.0000       3.597909        97.9041 
 680   0.0000       3.601686        98.0069 
 681   0.0000       3.608352        98.1882 
 682   0.0000       3.611426        98.2719 
 683   0.0000       3.616976        98.4229 
 684   0.0000       3.621236        98.5388 
 685   0.0000       3.626008        98.6687 
 686   0.0000       3.634370        98.8962 
 687   0.0000       3.637019        98.9683 
 688   0.0000       3.643270        99.1384 
 689   0.0000       3.644997        99.1854 
 690   0.0000       3.650591        99.3376 
 691   0.0000       3.651589        99.3648 
 692   0.0000       3.658893        99.5635 
 693   0.0000       3.668711        99.8307 
 694   0.0000       3.676968       100.0554 
 695   0.0000       3.679794       100.1323 
 696   0.0000       3.687364       100.3383 
 697   0.0000       3.703916       100.7887 
 698   0.0000       3.707779       100.8938 
 699   0.0000       3.709284       100.9348 
 700   0.0000       3.713412       101.0471 
 701   0.0000       3.722010       101.2810 
 702   0.0000       3.729870       101.4949 
 703   0.0000       3.734043       101.6085 
 704   0.0000       3.751251       102.0767 
 705   0.0000       3.774491       102.7091 
 706   0.0000       3.781146       102.8902 
 707   0.0000       3.792087       103.1879 
 708   0.0000       3.794451       103.2523 
 709   0.0000       3.808971       103.6474 
 710   0.0000       3.814437       103.7961 
 711   0.0000       3.819970       103.9467 
 712   0.0000       3.830078       104.2217 
 713   0.0000       3.836603       104.3993 
 714   0.0000       3.841730       104.5388 
 715   0.0000       3.847904       104.7068 
 716   0.0000       3.849261       104.7437 
 717   0.0000       3.856591       104.9432 
 718   0.0000       3.863965       105.1438 
 719   0.0000       3.865508       105.1858 
 720   0.0000       3.875474       105.4570 
 721   0.0000       3.884006       105.6892 
 722   0.0000       3.887258       105.7777 
 723   0.0000       3.894185       105.9662 
 724   0.0000       3.900195       106.1297 
 725   0.0000       3.915453       106.5449 
 726   0.0000       3.932668       107.0133 
 727   0.0000       3.937802       107.1531 
 728   0.0000       3.949338       107.4669 
 729   0.0000       3.956360       107.6580 
 730   0.0000       3.964131       107.8695 
 731   0.0000       3.972261       108.0907 
 732   0.0000       3.979426       108.2857 
 733   0.0000       3.988685       108.5376 
 734   0.0000       3.990602       108.5898 
 735   0.0000       4.013921       109.2244 
 736   0.0000       4.041123       109.9646 
 737   0.0000       4.051997       110.2604 
 738   0.0000       4.058938       110.4493 
 739   0.0000       4.065430       110.6260 
 740   0.0000       4.075016       110.8868 
 741   0.0000       4.077975       110.9673 
 742   0.0000       4.082256       111.0838 
 743   0.0000       4.089443       111.2794 
 744   0.0000       4.102749       111.6415 
 745   0.0000       4.111050       111.8674 
 746   0.0000       4.111236       111.8724 
 747   0.0000       4.119865       112.1072 
 748   0.0000       4.123446       112.2047 
 749   0.0000       4.132780       112.4587 
 750   0.0000       4.137996       112.6006 
 751   0.0000       4.144965       112.7902 
 752   0.0000       4.148248       112.8796 
 753   0.0000       4.172687       113.5446 
 754   0.0000       4.173690       113.5719 
 755   0.0000       4.183593       113.8414 
 756   0.0000       4.190569       114.0312 
 757   0.0000       4.197006       114.2063 
 758   0.0000       4.200801       114.3096 
 759   0.0000       4.201950       114.3409 
 760   0.0000       4.214615       114.6855 
 761   0.0000       4.226869       115.0190 
 762   0.0000       4.252256       115.7098 
 763   0.0000       4.269614       116.1821 
 764   0.0000       4.287466       116.6679 
 765   0.0000       4.290998       116.7640 
 766   0.0000       4.296723       116.9198 
 767   0.0000       4.303101       117.0933 
 768   0.0000       4.304650       117.1355 
 769   0.0000       4.309919       117.2789 
 770   0.0000       4.312217       117.3414 
 771   0.0000       4.325117       117.6924 
 772   0.0000       4.328415       117.7822 
 773   0.0000       4.335625       117.9783 
 774   0.0000       4.347058       118.2895 
 775   0.0000       4.349092       118.3448 
 776   0.0000       4.356044       118.5340 
 777   0.0000       4.370390       118.9244 
 778   0.0000       4.380970       119.2123 
 779   0.0000       4.391697       119.5041 
 780   0.0000       4.401771       119.7783 
 781   0.0000       4.405613       119.8828 
 782   0.0000       4.430689       120.5652 
 783   0.0000       4.437777       120.7581 
 784   0.0000       4.449195       121.0688 
 785   0.0000       4.453414       121.1836 
 786   0.0000       4.458856       121.3316 
 787   0.0000       4.468200       121.5859 
 788   0.0000       4.480501       121.9206 
 789   0.0000       4.494958       122.3140 
 790   0.0000       4.499702       122.4431 
 791   0.0000       4.507070       122.6436 
 792   0.0000       4.513010       122.8052 
 793   0.0000       4.517409       122.9249 
 794   0.0000       4.522156       123.0541 
 795   0.0000       4.527133       123.1895 
 796   0.0000       4.541798       123.5886 
 797   0.0000       4.543597       123.6376 
 798   0.0000       4.547415       123.7414 
 799   0.0000       4.551954       123.8650 
 800   0.0000       4.572026       124.4112 
 801   0.0000       4.593346       124.9913 
 802   0.0000       4.595099       125.0390 
 803   0.0000       4.602245       125.2334 
 804   0.0000       4.612780       125.5201 
 805   0.0000       4.617938       125.6605 
 806   0.0000       4.631826       126.0384 
 807   0.0000       4.640620       126.2777 
 808   0.0000       4.649883       126.5298 
 809   0.0000       4.665908       126.9658 
 810   0.0000       4.671346       127.1138 
 811   0.0000       4.677468       127.2804 
 812   0.0000       4.690400       127.6323 
 813   0.0000       4.692771       127.6968 
 814   0.0000       4.695580       127.7732 
 815   0.0000       4.735123       128.8492 
 816   0.0000       4.747703       129.1916 
 817   0.0000       4.757031       129.4454 
 818   0.0000       4.779766       130.0640 
 819   0.0000       4.804539       130.7382 
 820   0.0000       4.821842       131.2090 
 821   0.0000       4.829393       131.4145 
 822   0.0000       4.837962       131.6476 
 823   0.0000       4.842926       131.7827 
 824   0.0000       4.850365       131.9851 
 825   0.0000       4.861398       132.2854 
 826   0.0000       4.873866       132.6246 
 827   0.0000       4.890256       133.0706 
 828   0.0000       4.892895       133.1424 
 829   0.0000       4.905359       133.4816 
 830   0.0000       4.912568       133.6778 
 831   0.0000       4.924062       133.9906 
 832   0.0000       4.930574       134.1677 
 833   0.0000       4.932722       134.2262 
 834   0.0000       4.960022       134.9691 
 835   0.0000       4.960856       134.9918 
 836   0.0000       4.966440       135.1437 
 837   0.0000       4.979407       135.4966 
 838   0.0000       4.991487       135.8253 
 839   0.0000       5.012198       136.3888 
 840   0.0000       5.022365       136.6655 
 841   0.0000       5.043873       137.2508 
 842   0.0000       5.051543       137.4595 
 843   0.0000       5.056922       137.6059 
 844   0.0000       5.080780       138.2550 
 845   0.0000       5.103405       138.8707 
 846   0.0000       5.124687       139.4498 
 847   0.0000       5.135047       139.7317 
 848   0.0000       5.156133       140.3055 
 849   0.0000       5.163280       140.5000 
 850   0.0000       5.173286       140.7723 
 851   0.0000       5.180272       140.9624 
 852   0.0000       5.191350       141.2638 
 853   0.0000       5.200191       141.5044 
 854   0.0000       5.204157       141.6123 
 855   0.0000       5.211592       141.8146 
 856   0.0000       5.222946       142.1236 
 857   0.0000       5.227426       142.2455 
 858   0.0000       5.232473       142.3828 
 859   0.0000       5.239849       142.5835 
 860   0.0000       5.260516       143.1459 
 861   0.0000       5.266437       143.3070 
 862   0.0000       5.284330       143.7939 
 863   0.0000       5.288184       143.8988 
 864   0.0000       5.294295       144.0651 
 865   0.0000       5.305074       144.3584 
 866   0.0000       5.305440       144.3684 
 867   0.0000       5.317332       144.6919 
 868   0.0000       5.323260       144.8533 
 869   0.0000       5.335915       145.1976 
 870   0.0000       5.348542       145.5412 
 871   0.0000       5.354439       145.7017 
 872   0.0000       5.354793       145.7113 
 873   0.0000       5.371364       146.1623 
 874   0.0000       5.376635       146.3057 
 875   0.0000       5.380080       146.3994 
 876   0.0000       5.397375       146.8700 
 877   0.0000       5.400147       146.9455 
 878   0.0000       5.409982       147.2131 
 879   0.0000       5.417297       147.4121 
 880   0.0000       5.428425       147.7150 
 881   0.0000       5.445115       148.1691 
 882   0.0000       5.454236       148.4173 
 883   0.0000       5.463417       148.6671 
 884   0.0000       5.477434       149.0486 
 885   0.0000       5.483701       149.2191 
 886   0.0000       5.492862       149.4684 
 887   0.0000       5.494090       149.5018 
 888   0.0000       5.507442       149.8651 
 889   0.0000       5.522822       150.2836 
 890   0.0000       5.532588       150.5494 
 891   0.0000       5.535826       150.6375 
 892   0.0000       5.541355       150.7879 
 893   0.0000       5.557253       151.2205 
 894   0.0000       5.569796       151.5619 
 895   0.0000       5.582931       151.9193 
 896   0.0000       5.586078       152.0049 
 897   0.0000       5.601349       152.4205 
 898   0.0000       5.609590       152.6447 
 899   0.0000       5.620741       152.9481 
 900   0.0000       5.627587       153.1344 
 901   0.0000       5.640411       153.4834 
 902   0.0000       5.647049       153.6640 
 903   0.0000       5.650547       153.7592 
 904   0.0000       5.656415       153.9189 
 905   0.0000       5.683026       154.6430 
 906   0.0000       5.707090       155.2978 
 907   0.0000       5.710600       155.3933 
 908   0.0000       5.728376       155.8770 
 909   0.0000       5.751582       156.5085 
 910   0.0000       5.802651       157.8982 
[...]
      g+2     :     0.000019
      g-2     :     0.000072
      g+3     :     0.000038
      g-3     :     0.000055
      g+4     :     0.000109
      g-4     :     0.000078
 21 C s       :     2.702063  s :     2.702063
      pz      :     0.959869  p :     2.743769
      px      :     0.894286
      py      :     0.889614
      dz2     :     0.080558  d :     0.499561
      dxz     :     0.110291
      dyz     :     0.120613
      dx2y2   :     0.070656
      dxy     :     0.117442
      f0      :     0.003308  f :     0.023162
      f+1     :     0.002980
      f-1     :     0.002870
      f+2     :     0.002324
      f-2     :     0.005091
      f+3     :     0.003171
      f-3     :     0.003418
 22 H s       :     0.721460  s :     0.721460
      pz      :     0.113391  p :     0.342712
      px      :     0.107448
      py      :     0.121873
      dz2     :     0.006647  d :     0.029730
      dxz     :     0.004542
      dyz     :     0.007315
      dx2y2   :     0.005534
      dxy     :     0.005692
 23 H s       :     0.724941  s :     0.724941
      pz      :     0.160265  p :     0.363875
      px      :     0.102581
      py      :     0.101029
      dz2     :     0.007981  d :     0.029858
      dxz     :     0.007538
      dyz     :     0.007699
      dx2y2   :     0.002857
      dxy     :     0.003783
 24 H s       :     0.715434  s :     0.715434
      pz      :     0.105833  p :     0.340685
      px      :     0.117944
      py      :     0.116908
      dz2     :     0.005451  d :     0.030079
      dxz     :     0.006766
      dyz     :     0.004690
      dx2y2   :     0.006772
      dxy     :     0.006400
 25 C s       :     2.703433  s :     2.703433
      pz      :     0.962128  p :     2.742280
      px      :     0.907053
      py      :     0.873099
      dz2     :     0.117141  d :     0.506596
      dxz     :     0.085055
      dyz     :     0.104504
      dx2y2   :     0.102015
      dxy     :     0.097882
      f0      :     0.004742  f :     0.023289
      f+1     :     0.001699
      f-1     :     0.002100
      f+2     :     0.004073
      f-2     :     0.003797
      f+3     :     0.003836
      f-3     :     0.003042
 26 H s       :     0.720196  s :     0.720196
      pz      :     0.115469  p :     0.352918
      px      :     0.135818
      py      :     0.101630
      dz2     :     0.005599  d :     0.030111
      dxz     :     0.007857
      dyz     :     0.002226
      dx2y2   :     0.007226
      dxy     :     0.007204
 27 H s       :     0.722463  s :     0.722463
      pz      :     0.102729  p :     0.357009
      px      :     0.120163
      py      :     0.134117
      dz2     :     0.005633  d :     0.029650
      dxz     :     0.002749
      dyz     :     0.007046
      dx2y2   :     0.007347
      dxy     :     0.006875
 28 H s       :     0.720571  s :     0.720571
      pz      :     0.145999  p :     0.335720
      px      :     0.095609
      py      :     0.094112
      dz2     :     0.009908  d :     0.029797
      dxz     :     0.009437
      dyz     :     0.009216
      dx2y2   :     0.000382
      dxy     :     0.000853
 29 I s       :     3.760712  s :     3.760712
      pz      :     3.515106  p :    11.161410
      px      :     3.806386
      py      :     3.839917
      dz2     :     2.036396  d :    10.128322
      dxz     :     2.038485
      dyz     :     2.035137
      dx2y2   :     2.007175
      dxy     :     2.011129
      f0      :     0.001508  f :     0.004371
      f+1     :     0.001273
      f-1     :     0.001017
      f+2     :     0.000220
      f-2     :     0.000287
      f+3     :     0.000021
      f-3     :     0.000044
 30 C s       :     2.710748  s :     2.710748
      pz      :     0.850444  p :     2.746672
      px      :     0.943884
      py      :     0.952344
      dz2     :     0.097090  d :     0.437882
      dxz     :     0.114314
      dyz     :     0.060699
      dx2y2   :     0.054724
      dxy     :     0.111054
      f0      :     0.003276  f :     0.021932
      f+1     :     0.002893
      f-1     :     0.003885
      f+2     :     0.003902
      f-2     :     0.002423
      f+3     :     0.003724
      f-3     :     0.001830
 31 H s       :     0.731378  s :     0.731378
      pz      :     0.099003  p :     0.331241
      px      :     0.094453
      py      :     0.137785
      dz2     :     0.002786  d :     0.029681
      dxz     :     0.001574
      dyz     :     0.008047
      dx2y2   :     0.008260
      dxy     :     0.009015
 32 H s       :     0.734688  s :     0.734688
      pz      :     0.100406  p :     0.326985
      px      :     0.112310
      py      :     0.114270
      dz2     :     0.003230  d :     0.029550
      dxz     :     0.005342
      dyz     :     0.004607
      dx2y2   :     0.009109
      dxy     :     0.007262
 33 H s       :     0.718771  s :     0.718771
      pz      :     0.119002  p :     0.344665
      px      :     0.133430
      py      :     0.092233
      dz2     :     0.006811  d :     0.030108
      dxz     :     0.008641
      dyz     :     0.002936
      dx2y2   :     0.005153
      dxy     :     0.006567


                      *****************************
                      * MAYER POPULATION ANALYSIS *
                      *****************************

  NA   - Mulliken gross atomic population
  ZA   - Total nuclear charge
  QA   - Mulliken gross atomic charge
  VA   - Mayer's total valence
  BVA  - Mayer's bonded valence
  FA   - Mayer's free valence

  ATOM       NA         ZA         QA         VA         BVA        FA
  0 C      5.7335     6.0000     0.2665     3.3769     3.3769    -0.0000
  1 C      6.1896     6.0000    -0.1896     3.0074     3.0074     0.0000
  2 C      5.8921     6.0000     0.1079     2.9737     2.9737    -0.0000
  3 C      6.2702     6.0000    -0.2702     2.4351     2.4351     0.0000
  4 H      1.0859     1.0000    -0.0859     0.9038     0.9038     0.0000
  5 H      1.0220     1.0000    -0.0220     0.9746     0.9746     0.0000
  6 H      0.9897     1.0000     0.0103     0.9016     0.9016    -0.0000
  7 H      1.1025     1.0000    -0.1025     0.9201     0.9201     0.0000
  8 N      6.4839     7.0000     0.5161     2.6552     2.6552    -0.0000
  9 C      5.4756     6.0000     0.5244     2.4525     2.4525     0.0000
 10 C      5.9569     6.0000     0.0431     3.0452     3.0452     0.0000
 11 N      6.3104     7.0000     0.6896     2.4574     2.4574     0.0000
 12 C      5.7947     6.0000     0.2053     3.5193     3.5193     0.0000
 13 C      5.9526     6.0000     0.0474     3.0127     3.0127    -0.0000
 14 C      6.1652     6.0000    -0.1652     2.9755     2.9755     0.0000
 15 H      1.1144     1.0000    -0.1144     0.9974     0.9974     0.0000
 16 H      1.0279     1.0000    -0.0279     0.9713     0.9713     0.0000
 17 C      6.2622     6.0000    -0.2622     2.3112     2.3112     0.0000
 18 H      1.1006     1.0000    -0.1006     0.9067     0.9067     0.0000
 19 H      0.9921     1.0000     0.0079     0.9031     0.9031    -0.0000
 20 Pd    18.6459    18.0000    -0.6459     4.6578     4.6578     0.0000
 21 C      6.1924     6.0000    -0.1924     3.5180     3.5180     0.0000
 22 H      0.9052     1.0000     0.0948     1.1412     1.1412     0.0000
 23 H      0.9634     1.0000     0.0366     1.3270     1.3270    -0.0000
 24 H      0.8762     1.0000     0.1238     1.0327     1.0327     0.0000
 25 C      6.1009     6.0000    -0.1009     3.4902     3.4902    -0.0000
 26 H      0.9108     1.0000     0.0892     1.1932     1.1932     0.0000
 27 H      0.9821     1.0000     0.0179     1.1707     1.1707    -0.0000
 28 H      0.9158     1.0000     0.0842     1.1998     1.1998     0.0000
 29 I     25.5922    25.0000    -0.5922     0.7756     0.7756     0.0000
 30 C      6.1720     6.0000    -0.1720     3.5437     3.5437     0.0000
 31 H      0.9549     1.0000     0.0451     1.2435     1.2435     0.0000
 32 H      0.9519     1.0000     0.0481     1.2649     1.2649     0.0000
 33 H      0.9143     1.0000     0.0857     1.1338     1.1338     0.0000

  Mayer bond orders larger than 0.100000
B(  0-C ,  1-C ) :   1.1399 B(  0-C ,  4-H ) :   1.1138 B(  0-C ,  5-H ) :  -0.1007 
B(  0-C ,  8-N ) :   1.5685 B(  0-C , 20-Pd) :  -0.1850 B(  1-C ,  2-C ) :   1.1106 
B(  1-C ,  4-H ) :  -0.1451 B(  1-C ,  5-H ) :   1.1359 B(  1-C ,  6-H ) :  -0.1091 
B(  1-C ,  8-N ) :  -0.2881 B(  1-C , 20-Pd) :   0.1543 B(  2-C ,  3-C ) :   0.9962 
B(  2-C ,  6-H ) :   1.1026 B(  2-C ,  7-H ) :  -0.1713 B(  2-C ,  8-N ) :   0.1502 
B(  3-C ,  6-H ) :  -0.1022 B(  3-C ,  7-H ) :   1.2719 B(  3-C ,  8-N ) :  -0.4061 
B(  3-C ,  9-C ) :   0.9432 B(  3-C , 10-C ) :  -0.5843 B(  3-C , 20-Pd) :   0.2455 
B(  7-H ,  9-C ) :  -0.1294 B(  8-N ,  9-C ) :   1.5082 B(  8-N , 10-C ) :   0.2044 
B(  8-N , 11-N ) :  -0.1578 B(  8-N , 20-Pd) :   0.3521 B(  9-C , 10-C ) :   0.9361 
B(  9-C , 11-N ) :   0.2949 B(  9-C , 17-C ) :  -0.7166 B(  9-C , 20-Pd) :  -0.2563 
B(  9-C , 29-I ) :  -0.1095 B( 10-C , 11-N ) :   1.4637 B( 10-C , 17-C ) :   1.0690 
B( 10-C , 18-H ) :  -0.1400 B( 10-C , 29-I ) :   0.1116 B( 11-N , 12-C ) :   1.5702 
B( 11-N , 13-C ) :   0.1291 B( 11-N , 14-C ) :  -0.3292 B( 11-N , 17-C ) :  -0.4835 
B( 11-N , 20-Pd) :   0.2287 B( 11-N , 30-C ) :  -0.1141 B( 12-C , 14-C ) :   1.1248 
B( 12-C , 15-H ) :   1.1515 B( 12-C , 20-Pd) :  -0.1457 B( 13-C , 14-C ) :   1.1305 
B( 13-C , 17-C ) :   0.9647 B( 13-C , 18-H ) :  -0.1741 B( 13-C , 19-H ) :   1.1062 
B( 14-C , 15-H ) :  -0.1310 B( 14-C , 16-H ) :   1.1342 B( 14-C , 19-H ) :  -0.1127 
B( 14-C , 20-Pd) :   0.1450 B( 17-C , 18-H ) :   1.2705 B( 17-C , 19-H ) :  -0.1004 
B( 17-C , 20-Pd) :   0.2936 B( 20-Pd, 21-C ) :   0.8006 B( 20-Pd, 25-C ) :   0.7560 
B( 20-Pd, 27-H ) :   0.1087 B( 20-Pd, 29-I ) :   0.8739 B( 20-Pd, 30-C ) :   0.6943 
B( 20-Pd, 31-H ) :   0.1093 B( 20-Pd, 32-H ) :   0.1552 B( 21-C , 22-H ) :   1.0135 
B( 21-C , 23-H ) :   1.0393 B( 21-C , 24-H ) :   1.0061 B( 21-C , 29-I ) :  -0.1415 
B( 23-H , 29-I ) :   0.1542 B( 25-C , 26-H ) :   1.0338 B( 25-C , 27-H ) :   1.0273 
B( 25-C , 28-H ) :   1.0227 B( 25-C , 29-I ) :  -0.1226 B( 29-I , 30-C ) :   0.1362 
B( 30-C , 31-H ) :   1.0284 B( 30-C , 32-H ) :   1.0275 B( 30-C , 33-H ) :   1.0584 


-------
TIMINGS
-------

Total SCF time: 0 days 0 hours 2 min 55 sec 

Total time                  ....     175.693 sec
Sum of individual times     ....     174.232 sec  ( 99.2%)

Fock matrix formation       ....     159.672 sec  ( 90.9%)
  XC integration            ....      15.372 sec  (  9.6% of F)
    Basis function eval.    ....       2.228 sec  ( 14.5% of XC)
    Density eval.           ....       5.311 sec  ( 34.6% of XC)
    XC-Functional eval.     ....       0.108 sec  (  0.7% of XC)
    XC-Potential eval.      ....       4.724 sec  ( 30.7% of XC)
Diagonalization             ....       6.523 sec  (  3.7%)
Density matrix formation    ....       0.206 sec  (  0.1%)
Population analysis         ....       0.206 sec  (  0.1%)
Initial guess               ....       3.088 sec  (  1.8%)
Orbital Transformation      ....       0.000 sec  (  0.0%)
Orbital Orthonormalization  ....       0.000 sec  (  0.0%)
DIIS solution               ....       3.120 sec  (  1.8%)
Grid generation             ....       1.417 sec  (  0.8%)


           ************************************************************
           *        Program running with 24 parallel MPI-processes    *
           *              working on a common directory               *
           ************************************************************

------------------------------------------------------------------------------
                                ORCA  MP2 
------------------------------------------------------------------------------

Freezing NCore=38 chemical core electrons

-------------
RI-MP2 ENERGY
-------------
Dimension of the basis                    ...  959
Memory devoted to MP2                     ... 5000 MB   
Data format for buffers                   ... DOUBLE
Compression type for matrix containers    ... UNCOMPRESSED
Overall scaling of the MP2 energy         ...   2.700e-01
Calculating two index integrals           ... done (    0.050 sec)
Cholesky decomposition of V**-1           ... done (    0.559 sec)

-----------------
RI-TRANSFORMATION (AUX index driven)
-----------------

Dimension of the orbital-basis         ... 959
Dimension of the aux-basis             ... 2419
Transformation of internal/external MOs...   19-  75 to   76- 958
Number Format for Storage              ... Double (8 Byte)
Integral mode                          ... Direct

First Phase: integral generation and transformation of MO indices
  Aux angular momentum 0               ... done (    0.258 sec)
  Aux angular momentum 1               ... done (    0.507 sec)
  Aux angular momentum 2               ... done (    0.657 sec)
  Aux angular momentum 3               ... done (    0.610 sec)
  Aux angular momentum 4               ... done (    0.195 sec)
  Aux angular momentum 5               ... done (    0.224 sec)
  Aux angular momentum 6               ... done (    0.292 sec)
Closing buffer VIA ( 0.91 GB; CompressionRatio= 1.00)
  Phase 1 completed in     2.879 sec
Second Phase: sorting and transformation of aux index

IA-Transformation
Memory available                       ... 4882 MB 
Max. # MO pairs treated in a batch     ... 3    
# of internal orbitals                 ... 57
# batches for internal orbitals        ... 1
Closing buffer IAV ( 0.05 GB; CompressionRatio= 1.00)
(ia|v) transformation done in     0.798 sec

  Phase 2 completed in     1.758 sec
RI-Integral transformation completed in     4.670 sec
Opening buffers                              ... done

Starting loop over batches of integrals:

Operator 0  - window                       ... ( 19- 75)x( 76-958)
Operator 0  - Memory available             ...  5000 MB
Operator 0  - Memory needed per MO         ...  16.3 MB
Operator 0  - Number of orbitals per batch ... 3
Operator 0  - Number of batches            ... 1

OPERATOR  0   PASS   0:  MOs    19 ...   21 +   22 ...   24 +   25 ...   27 +   28 ...   30
                            +   31 ...   33 +   34 ...   36 +   37 ...   39 +   40 ...   42
                            +   43 ...   45 +   46 ...   48 +   49 ...   51 +   52 ...   54
                            +   55 ...   57 +   58 ...   60 +   61 ...   63 +   64 ...   66
                            +   67 ...   69 +   70 ...   72 +   73 ...   75
  Reading integrals       ... ok
  Internal MO  21
Time spent in pair loops =     0.528 sec
Deleting buffer (Ka|jb)[aa] ...done

-----------------------------------------------
 RI-MP2 CORRELATION ENERGY:     -1.262926732 Eh
-----------------------------------------------


-------
TIMINGS
-------

Total time                :   17.771 sec
Integral trafo            :    4.683 sec ( 26.3%)
I/O of integrals          :    0.047 sec (  0.3%)
K(i,j) Operators          :    0.372 sec (  2.1%)
T(i,j) pair energies      :    0.058 sec (  0.3%)
V-calculation             :    0.050 sec (  0.3%)
V**(-1/2)                 :    0.559 sec (  3.1%)
Gamma(ia|P)               :    0.000 sec (  0.0%)
Gamma-Trafo               :    0.000 sec (  0.0%)
D(virtual)                :    0.000 sec (  0.0%)
D(internal)               :    0.000 sec (  0.0%)
W(virtual)                :    0.000 sec (  0.0%)
W(internal)               :    0.000 sec (  0.0%)
L(virtual)                :    0.000 sec (  0.0%)
L(internal)               :    0.000 sec (  0.0%)
G(D)                      :    0.000 sec (  0.0%)
G(Z)                      :    0.000 sec (  0.0%)
Z-Vector Solution         :    0.000 sec (  0.0%)
Z-Vector Solution         :    0.000 sec (  0.0%)
3-Index Derivative 
+ Separable RIJ part      :    0.000 sec (  0.0%)
2-Index Derivative 
+ Separable RIJ part      :    0.000 sec (  0.0%)
Separable Gradient (X)    :    0.000 sec (  0.0%)


---------------------------------------
MP2 TOTAL ENERGY:    -1040.224324362 Eh
---------------------------------------


-------------------------------------------------------------------------------
                          DFT DISPERSION CORRECTION                            
                                                                               
                              DFTD3 V3.1  Rev 1                                
                          USING Becke-Johnson damping                          
-------------------------------------------------------------------------------
The B2PLYP functional is recognized
Active option DFTDOPT                   ...         4   

molecular C6(AA) [au] = 18368.086065 


            DFT-D V3
 parameters
 s6 scaling factor         :     0.6400 
 a1 scaling factor         :     0.3065 
 s8 scaling factor         :     0.9147 
 a2 scaling factor         :     5.0570 
 ad hoc parameters k1-k3   :    16.0000     1.3333    -4.0000 

 Edisp/kcal,au: -28.743350499838  -0.045805439793 
 E6   /kcal   : -14.843516501 
 E8   /kcal   : -13.899833999 
 % E8         :  48.358433368 

-------------------------   ----------------
Dispersion correction           -0.045805440
-------------------------   ----------------


-------------------------   --------------------
FINAL SINGLE POINT ENERGY     -1040.270129802118
-------------------------   --------------------


                            ***************************************
                            *     ORCA property calculations      *
                            ***************************************


  WARNING: The energy has been calculated at the MP2 level but the densities
           used in the property calculations are still SCF densities
           MP2 response densities have not been calculated 
           use %mp2 Density relaxed end
           or  %mp2 Density unrelaxed end

                                    ---------------------
                                    Active property flags
                                    ---------------------
   (+) Dipole Moment


------------------------------------------------------------------------------
                       ORCA ELECTRIC PROPERTIES CALCULATION
------------------------------------------------------------------------------

Dipole Moment Calculation                       ... on
Quadrupole Moment Calculation                   ... off
Polarizability Calculation                      ... off
GBWName                                         ... MOR29_pr11.gbw
Electron density file                           ... MOR29_pr11.scfp
The origin for moment calculation is the CENTER OF MASS  = ( 0.195003,  0.004756 -0.176087)

-------------
DIPOLE MOMENT
-------------
                                X             Y             Z
Electronic contribution:    145.11085      -3.88188     -70.58550
Nuclear contribution   :   -148.61747       4.04670      71.83695
                        -----------------------------------------
Total Dipole Moment    :     -3.50662       0.16482       1.25145
                        -----------------------------------------
Magnitude (a.u.)       :      3.72689
Magnitude (Debye)      :      9.47300



--------------------
Rotational spectrum 
--------------------
 
Rotational constants in cm-1:     0.010327     0.008787     0.007812 
Rotational constants in MHz :   309.600948   263.417504   234.204311 

 Dipole components along the rotational axes: 
x,y,z [a.u.] :    -3.647008    -0.201008     0.740699 
x,y,z [Debye]:    -9.269958    -0.510922     1.882707 

 

Timings for individual modules:

Sum of individual times         ...      201.711 sec (=   3.362 min)
GTO integral calculation        ...        7.092 sec (=   0.118 min)   3.5 %
SCF iterations                  ...      176.091 sec (=   2.935 min)  87.3 %
MP2 module                      ...       18.527 sec (=   0.309 min)   9.2 %
                             ****ORCA TERMINATED NORMALLY****
TOTAL RUN TIME: 0 days 0 hours 3 minutes 22 seconds 922 msec
