
                                 *****************
                                 * O   R   C   A *
                                 *****************

           --- An Ab Initio, DFT and Semiempirical electronic structure package ---

                  #######################################################
                  #                        -***-                        #
                  #          Department of theory and spectroscopy      #
                  #               Directorship: Frank Neese             #
                  #        Max Planck Institute fuer Kohlenforschung    #
                  #                Kaiser Wilhelm Platz 1               #
                  #                 D-45470 Muelheim/Ruhr               #
                  #                      Germany                        #
                  #                                                     #
                  #                  All rights reserved                #
                  #                        -***-                        #
                  #######################################################


                         Program Version 4.2.0 -  RELEASE  -


 With contributions from (in alphabetic order):
   Daniel Aravena         : Magnetic Suceptibility
   Michael Atanasov       : Ab Initio Ligand Field Theory (pilot matlab implementation)
   Alexander A. Auer      : GIAO ZORA, VPT2
   Ute Becker             : Parallelization
   Giovanni Bistoni       : ED, misc. LED, open-shell LED, HFLED
   Martin Brehm           : Molecular dynamics
   Dmytro Bykov           : SCF Hessian
   Vijay G. Chilkuri      : MRCI spin determinant printing, contributions to CSF-ICE
   Dipayan Datta          : RHF DLPNO-CCSD density
   Achintya Kumar Dutta   : EOM-CC, STEOM-CC
   Dmitry Ganyushin       : Spin-Orbit,Spin-Spin,Magnetic field MRCI
   Miquel Garcia          : C-PCM Hessian, Gaussian charge scheme
   Yang Guo               : DLPNO-NEVPT2, CIM, IAO-localization
   Andreas Hansen         : Spin unrestricted coupled pair/coupled cluster methods
   Benjamin Helmich-Paris : CASSCF linear response (MC-RPA)
   Lee Huntington         : MR-EOM, pCC
   Robert Izsak           : Overlap fitted RIJCOSX, COSX-SCS-MP3, EOM
   Christian Kollmar      : KDIIS, OOCD, Brueckner-CCSD(T), CCSD density
   Simone Kossmann        : Meta GGA functionals, TD-DFT gradient, OOMP2, MP2 Hessian
   Martin Krupicka        : AUTO-CI
   Lucas Lang             : DCDCAS
   Dagmar Lenk            : GEPOL surface, SMD
   Dimitrios Liakos       : Extrapolation schemes; Compound Job, initial MDCI parallelization
   Dimitrios Manganas     : Further ROCIS development; embedding schemes
   Dimitrios Pantazis     : SARC Basis sets
   Taras Petrenko         : DFT Hessian,TD-DFT gradient, ASA, ECA, R-Raman, ABS, FL, XAS/XES, NRVS
   Peter Pinski           : DLPNO-MP2, DLPNO-MP2 Gradient
   Christoph Reimann      : Effective Core Potentials
   Marius Retegan         : Local ZFS, SOC
   Christoph Riplinger    : Optimizer, TS searches, QM/MM, DLPNO-CCSD(T), (RO)-DLPNO pert. Triples
   Tobias Risthaus        : Range-separated hybrids, TD-DFT gradient, RPA, STAB
   Michael Roemelt        : Original ROCIS implementation
   Masaaki Saitow         : Open-shell DLPNO-CCSD energy and density
   Barbara Sandhoefer     : DKH picture change effects
   Avijit Sen             : IP-ROCIS
   Kantharuban Sivalingam : CASSCF convergence, NEVPT2, FIC-MRCI
   Bernardo de Souza      : ESD, SOC TD-DFT
   Georgi Stoychev        : AutoAux, RI-MP2 NMR
   Willem Van den Heuvel  : Paramagnetic NMR
   Boris Wezisla          : Elementary symmetry handling
   Frank Wennmohs         : Technical directorship


 We gratefully acknowledge several colleagues who have allowed us to
 interface, adapt or use parts of their codes:
   Stefan Grimme, W. Hujo, H. Kruse,             : VdW corrections, initial TS optimization,
                  C. Bannwarth                     DFT functionals, gCP, sTDA/sTD-DF
   Ed Valeev, F. Pavosevic, A. Kumar             : LibInt (2-el integral package), F12 methods
   Garnet Chan, S. Sharma, J. Yang, R. Olivares  : DMRG
   Ulf Ekstrom                                   : XCFun DFT Library
   Mihaly Kallay                                 : mrcc  (arbitrary order and MRCC methods)
   Andreas Klamt, Michael Diedenhofen            : otool_cosmo (COSMO solvation model)
   Jiri Pittner, Ondrej Demel                    : Mk-CCSD
   Frank Weinhold                                : gennbo (NPA and NBO analysis)
   Christopher J. Cramer and Donald G. Truhlar   : smd solvation model
   Lars Goerigk                                  : TD-DFT with DH, B97 family of functionals
   V. Asgeirsson, H. Jonsson                     : NEB implementation
   FAccTs GmbH                                   : IRC, NEB, NEB-TS, Multilevel, MM, QM/MM, CI optimization
   S Lehtola, MJT Oliveira, MAL Marques          : LibXC Library


 Your calculation uses the libint2 library for the computation of 2-el integrals
 For citations please refer to: http://libint.valeyev.net

 Your ORCA version has been built with support for libXC version: 4.2.3
 For citations please refer to: https://tddft.org/programs/libxc/

 This ORCA versions uses:
   CBLAS   interface :  Fast vector & matrix operations
   LAPACKE interface :  Fast linear algebra routines
   SCALAPACK package :  Parallel linear algebra routines


Your calculation utilizes the atom-pairwise dispersion correction
with the Becke-Johnson damping scheme (D3BJ)
Cite in your paper:
S.Grimme, S.Ehrlich, L.Goerigk, J Comput Chem, (2011), 32, 1456–1465 
S.Grimme, J.Antony, S.Ehrlich and H.Krieg, J.Chem.Phys., 132, (2010), 154104 
   

----- Orbital basis set information -----
Your calculation utilizes the basis: def2-TZVPPD
   F. Weigend and R. Ahlrichs, Phys. Chem. Chem. Phys. 7, 3297 (2005).
   D. Rappoport and F. Furche, J. Chem. Phys. 133 134105 (2010).

----- AuxC basis set information -----
Your calculation utilizes the auxiliary basis: def2-TZVPPD/C
   A. Hellweg, C. Hattig, S. Hofener and W. Klopper, Theor. Chem. Acc. 117, 587 (2007).

----- AuxJK basis set information -----
Your calculation utilizes the auxiliary basis: def2/JK
   H-Ba, Hf-Rn: F. Weigend, J. Comput. Chem. 29, 167 (2008).

================================================================================
                                        WARNINGS
                       Please study these warnings very carefully!
================================================================================


WARNING: No MP2 level density has been requested!
         To caclulate MP2 level properties use
         %mp2 Density relaxed end
         or
         %mp2 Density unrelaxed end
         Otherwise for double-hybrid DFT only the energy is correct!

WARNING: The frozen-core approximation is turned on by default for 
         the MP2 part of double-hybrid DFT.

INFO   : the flag for use of LIBINT has been found!

================================================================================
                                       INPUT FILE
================================================================================
NAME = MOR23_phseh.in
|  1> #
|  2> # MOR23_phseh ri-B2PLYP-D3BJ/Def2-TZVPPD
|  3> #
|  4> ! rijk ri-b2plyp d3bj def2-tzvppd def2/jk def2-tzvppd/c grid4 nofinalgrid
|  5> 
|  6> *xyz 0 1
|  7> C        0.099641    0.015172    0.000002 
|  8> C        0.811159    1.219454    0.000004 
|  9> C        2.205438    1.200000    0.000001 
| 10> C        2.898295   -0.010923    0.000001 
| 11> C        2.184022   -1.209573    0.000001 
| 12> C        0.790170   -1.202154    0.000003 
| 13> Se      -1.821201   -0.043502   -0.000002 
| 14> H       -1.984560    1.419830   -0.000002 
| 15> H        0.283594    2.168662    0.000009 
| 16> H        2.749671    2.140448   -0.000003 
| 17> H        3.983980   -0.020380    0.000003 
| 18> H        2.711288   -2.159513   -0.000002 
| 19> H        0.244496   -2.141840    0.000007 
| 20> *
| 21> 
| 22> %maxcore 5000
| 23> 
| 24> %pal
| 25> nprocs = 24
| 26> end
| 27> 
| 28> 
| 29>                          ****END OF INPUT****
================================================================================

                       ****************************
                       * Single Point Calculation *
                       ****************************

---------------------------------
CARTESIAN COORDINATES (ANGSTROEM)
---------------------------------
  C      0.099641    0.015172    0.000002
  C      0.811159    1.219454    0.000004
  C      2.205438    1.200000    0.000001
  C      2.898295   -0.010923    0.000001
  C      2.184022   -1.209573    0.000001
  C      0.790170   -1.202154    0.000003
  Se    -1.821201   -0.043502   -0.000002
  H     -1.984560    1.419830   -0.000002
  H      0.283594    2.168662    0.000009
  H      2.749671    2.140448   -0.000003
  H      3.983980   -0.020380    0.000003
  H      2.711288   -2.159513   -0.000002
  H      0.244496   -2.141840    0.000007

----------------------------
CARTESIAN COORDINATES (A.U.)
----------------------------
  NO LB      ZA    FRAG     MASS         X           Y           Z
   0 C     6.0000    0    12.011    0.188294    0.028671    0.000004
   1 C     6.0000    0    12.011    1.532868    2.304434    0.000008
   2 C     6.0000    0    12.011    4.167674    2.267671    0.000002
   3 C     6.0000    0    12.011    5.476984   -0.020641    0.000002
   4 C     6.0000    0    12.011    4.127203   -2.285762    0.000002
   5 C     6.0000    0    12.011    1.493205   -2.271742    0.000006
   6 Se   34.0000    0    78.960   -3.441571   -0.082207   -0.000004
   7 H     1.0000    0     1.008   -3.750275    2.683090   -0.000004
   8 H     1.0000    0     1.008    0.535915    4.098177    0.000017
   9 H     1.0000    0     1.008    5.196125    4.044861   -0.000006
  10 H     1.0000    0     1.008    7.528631   -0.038513    0.000006
  11 H     1.0000    0     1.008    5.123592   -4.080888   -0.000004
  12 H     1.0000    0     1.008    0.462030   -4.047491    0.000013

--------------------------------
INTERNAL COORDINATES (ANGSTROEM)
--------------------------------
 C      0   0   0     0.000000000000     0.00000000     0.00000000
 C      1   0   0     1.398768386779     0.00000000     0.00000000
 C      2   1   0     1.394414711614   119.77620744     0.00000000
 C      3   2   1     1.395129146129   120.57638934     0.00000000
 C      4   3   2     1.395330692355   119.43236668     0.00000000
 C      5   4   3     1.393871744268   120.48566165     0.00000000
 Se     1   2   3     1.921737918462   122.32519984   180.00027818
 H      7   1   2     1.472422054000    94.62022631     0.00000000
 H      2   1   3     1.085965310917   120.35932807   180.00006886
 H      3   2   1     1.086568911302   119.25839146   179.99966238
 H      4   3   2     1.085726187433   120.27607831   180.00026539
 H      5   4   3     1.086460049134   120.17682735   179.99981699
 H      6   5   4     1.086632363262   119.83869653   180.00024439

---------------------------
INTERNAL COORDINATES (A.U.)
---------------------------
 C      0   0   0     0.000000000000     0.00000000     0.00000000
 C      1   0   0     2.643289175799     0.00000000     0.00000000
 C      2   1   0     2.635061922062   119.77620744     0.00000000
 C      3   2   1     2.636412007635   120.57638934     0.00000000
 C      4   3   2     2.636792874806   119.43236668     0.00000000
 C      5   4   3     2.634035862478   120.48566165     0.00000000
 Se     1   2   3     3.631558367066   122.32519984   180.00027818
 H      7   1   2     2.782474435605    94.62022631     0.00000000
 H      2   1   3     2.052177028571   120.35932807   180.00006886
 H      3   2   1     2.053317667995   119.25839146   179.99966238
 H      4   3   2     2.051725150675   120.27607831   180.00026539
 H      5   4   3     2.053111948311   120.17682735   179.99981699
 H      6   5   4     2.053437574821   119.83869653   180.00024439

---------------------
BASIS SET INFORMATION
---------------------
There are 3 groups of distinct atoms

 Group   1 Type C   : 12s6p3d1f contracted to 6s3p3d1f pattern {621111/411/111/1}
 Group   2 Type Se  : 18s14p9d1f contracted to 7s6p5d1f pattern {8421111/641111/51111/1}
 Group   3 Type H   : 5s3p1d contracted to 3s3p1d pattern {311/111/1}

Atom   0C    basis set group =>   1
Atom   1C    basis set group =>   1
Atom   2C    basis set group =>   1
Atom   3C    basis set group =>   1
Atom   4C    basis set group =>   1
Atom   5C    basis set group =>   1
Atom   6Se   basis set group =>   2
Atom   7H    basis set group =>   3
Atom   8H    basis set group =>   3
Atom   9H    basis set group =>   3
Atom  10H    basis set group =>   3
Atom  11H    basis set group =>   3
Atom  12H    basis set group =>   3
---------------------------------
AUXILIARY/C BASIS SET INFORMATION
---------------------------------
There are 3 groups of distinct atoms

 Group   1 Type C   : 9s7p6d4f1g contracted to 9s7p5d4f1g pattern {111111111/1111111/21111/1111/1}
 Group   2 Type Se  : 11s10p9d7f4g1h contracted to 11s10p9d6f4g1h pattern {11111111111/1111111111/111111111/211111/1111/1}
 Group   3 Type H   : 5s4p3d1f contracted to 5s4p3d1f pattern {11111/1111/111/1}

Atom   0C    basis set group =>   1
Atom   1C    basis set group =>   1
Atom   2C    basis set group =>   1
Atom   3C    basis set group =>   1
Atom   4C    basis set group =>   1
Atom   5C    basis set group =>   1
Atom   6Se   basis set group =>   2
Atom   7H    basis set group =>   3
Atom   8H    basis set group =>   3
Atom   9H    basis set group =>   3
Atom  10H    basis set group =>   3
Atom  11H    basis set group =>   3
Atom  12H    basis set group =>   3
----------------------------------
AUXILIARY/JK BASIS SET INFORMATION
----------------------------------
There are 3 groups of distinct atoms

 Group   1 Type C   : 14s10p6d2f1g contracted to 10s8p5d1f1g pattern {5111111111/31111111/21111/2/1}
 Group   2 Type Se  : 20s14p13d10f7g3h contracted to 17s13p12d9f6g3h pattern {41111111111111111/2111111111111/211111111111/211111111/211111/111}
 Group   3 Type H   : 4s2p2d contracted to 2s2p2d pattern {31/11/11}

Atom   0C    basis set group =>   1
Atom   1C    basis set group =>   1
Atom   2C    basis set group =>   1
Atom   3C    basis set group =>   1
Atom   4C    basis set group =>   1
Atom   5C    basis set group =>   1
Atom   6Se   basis set group =>   2
Atom   7H    basis set group =>   3
Atom   8H    basis set group =>   3
Atom   9H    basis set group =>   3
Atom  10H    basis set group =>   3
Atom  11H    basis set group =>   3
Atom  12H    basis set group =>   3


           ************************************************************
           *        Program running with 24 parallel MPI-processes    *
           *              working on a common directory               *
           ************************************************************
------------------------------------------------------------------------------
                           ORCA GTO INTEGRAL CALCULATION
                           -- RI-GTO INTEGRALS CHOSEN --
------------------------------------------------------------------------------

                         BASIS SET STATISTICS AND STARTUP INFO

Gaussian basis set:
 # of primitive gaussian shells          ...  228
 # of primitive gaussian functions       ...  538
 # of contracted shells                  ...  139
 # of contracted basis functions         ...  381
 Highest angular momentum                ...    3
 Maximum contraction depth               ...    8
Auxiliary gaussian basis set:
 # of primitive gaussian shells          ...  313
 # of primitive gaussian functions       ...  995
 # of contracted shells                  ...  246
 # of contracted aux-basis functions     ...  824
 Highest angular momentum                ...    5
 Maximum contraction depth               ...    5
Ratio of auxiliary to basis functions    ...  2.16
Integral package used                  ... LIBINT
 One Electron integrals                  ... done
 Ordering auxiliary basis shells         ... done
 Integral threshhold             Thresh  ...  1.000e-10
 Primitive cut-off               TCut    ...  1.000e-11
 Pre-screening matrix                    ... done
 Shell pair data                         ... 
 Ordering of the shell pairs             ... done (   0.001 sec) 9106 of 9730 pairs
 Determination of significant pairs      ... done (   0.000 sec)
 Creation of shell pair data             ... done (   0.001 sec)
 Storage of shell pair data              ... done (   0.005 sec)
 Shell pair data done in (   0.007 sec)
 Computing two index integrals           ... done
 Cholesky decomposition of the V-matrix  ... done


Timings:
 Total evaluation time                   ...   0.347 sec (  0.006 min)
 One electron matrix time                ...   0.095 sec (  0.002 min) = 27.5%
 Schwartz matrix evaluation time         ...   0.170 sec (  0.003 min) = 49.0%
 Two index repulsion integral time       ...   0.031 sec (  0.001 min) =  8.8%
 Cholesky decomposition of V             ...   0.012 sec (  0.000 min) =  3.3%
 Three index repulsion integral time     ...   0.000 sec (  0.000 min) =  0.0%



           ************************************************************
           *        Program running with 24 parallel MPI-processes    *
           *              working on a common directory               *
           ************************************************************
-------------------------------------------------------------------------------
                                 ORCA SCF
-------------------------------------------------------------------------------

------------
SCF SETTINGS
------------
Hamiltonian:
 Density Functional     Method          .... DFT(GTOs)
 Exchange Functional    Exchange        .... B88
   X-Alpha parameter    XAlpha          ....  0.666667
   Becke's b parameter  XBeta           ....  0.004200
 Correlation Functional Correlation     .... LYP
 LDA part of GGA corr.  LDAOpt          .... VWN-3
 Gradients option       PostSCFGGA      .... off
 Hybrid DFT is turned on
   Fraction HF Exchange ScalHFX         ....  0.530000
   Scaling of DF-GGA-X  ScalDFX         ....  0.470000
   Scaling of DF-GGA-C  ScalDFC         ....  0.730000
   Scaling of DF-LDA-C  ScalLDAC        ....  0.730000
   Perturbative correction              ....  0.270000
   Density functional embedding theory  .... OFF
 RI-approximation to the Coulomb term is turned on
   Number of auxiliary basis functions  .... 824
   RI-JK (J+K treated both via RI)      .... on


General Settings:
 Integral files         IntName         .... MOR23_phseh
 Hartree-Fock type      HFTyp           .... RHF
 Total Charge           Charge          ....    0
 Multiplicity           Mult            ....    1
 Number of Electrons    NEL             ....   76
 Basis Dimension        Dim             ....  381
 Nuclear Repulsion      ENuc            ....    439.5965001411 Eh

Convergence Acceleration:
 DIIS                   CNVDIIS         .... on
   Start iteration      DIISMaxIt       ....    12
   Startup error        DIISStart       ....  0.200000
   # of expansion vecs  DIISMaxEq       ....     5
   Bias factor          DIISBfac        ....   1.050
   Max. coefficient     DIISMaxC        ....  10.000
 Newton-Raphson         CNVNR           .... off
 SOSCF                  CNVSOSCF        .... on
   Start iteration      SOSCFMaxIt      ....   150
   Startup grad/error   SOSCFStart      ....  0.003300
 Level Shifting         CNVShift        .... on
   Level shift para.    LevelShift      ....    0.2500
   Turn off err/grad.   ShiftErr        ....    0.0010
 Zerner damping         CNVZerner       .... off
 Static damping         CNVDamp         .... on
   Fraction old density DampFac         ....    0.7000
   Max. Damping (<1)    DampMax         ....    0.9800
   Min. Damping (>=0)   DampMin         ....    0.0000
   Turn off err/grad.   DampErr         ....    0.1000
 Fernandez-Rico         CNVRico         .... off

SCF Procedure:
 Maximum # iterations   MaxIter         ....   125
 SCF integral mode      SCFMode         .... Direct
   Integral package                     .... LIBINT
 Reset frequency        DirectResetFreq ....    20
 Integral Threshold     Thresh          ....  1.000e-10 Eh
 Primitive CutOff       TCut            ....  1.000e-11 Eh

Convergence Tolerance:
 Convergence Check Mode ConvCheckMode   .... Total+1el-Energy
 Convergence forced     ConvForced      .... 0
 Energy Change          TolE            ....  1.000e-06 Eh
 1-El. energy change                    ....  1.000e-03 Eh
 Orbital Gradient       TolG            ....  5.000e-05
 Orbital Rotation angle TolX            ....  5.000e-05
 DIIS Error             TolErr          ....  1.000e-06


Diagonalization of the overlap matrix:
Smallest eigenvalue                        ... 6.009e-07
Time for diagonalization                   ...    0.022 sec
Threshold for overlap eigenvalues          ... 1.000e-08
Number of eigenvalues below threshold      ... 0
Time for construction of square roots      ...    0.019 sec
Total time needed                          ...    0.042 sec

-------------------
DFT GRID GENERATION
-------------------

General Integration Accuracy     IntAcc      ...  4.670
Radial Grid Type                 RadialGrid  ... Gauss-Chebyshev
Angular Grid (max. acc.)         AngularGrid ... Lebedev-302
Angular grid pruning method      GridPruning ... 3 (G Style)
Weight generation scheme         WeightScheme... Becke
Basis function cutoff            BFCut       ...    1.0000e-10
Integration weight cutoff        WCut        ...    1.0000e-14
Grids for H and He will be reduced by one unit

# of grid points (after initial pruning)     ...  67276 (   0.0 sec)
# of grid points (after weights+screening)   ...  62490 (   0.0 sec)
nearest neighbour list constructed           ...    0.0 sec
Grid point re-assignment to atoms done       ...    0.0 sec
Grid point division into batches done        ...    0.2 sec
Reduced shell lists constructed in    0.3 sec

Total number of grid points                  ...    62490
Total number of batches                      ...      983
Average number of points per batch           ...       63
Average number of grid points per atom       ...     4807
Average number of shells per batch           ...   104.07 (74.87%)
Average number of basis functions per batch  ...   298.17 (78.26%)
Average number of large shells per batch     ...    87.67 (84.24%)
Average number of large basis fcns per batch ...   249.52 (83.69%)
Average number of aux-shells per batch       ...   104.07 (42.31%)
Average number of aux functions per batch    ...   298.17 (36.19%)
Maximum spatial batch extension              ...   3.87,  3.90, 15.36 au
Average spatial batch extension              ...   0.07,  0.08,  0.10 au

Time for grid setup =    0.372 sec

------------------------------
INITIAL GUESS: MODEL POTENTIAL
------------------------------
Loading Hartree-Fock densities                     ... done
Calculating cut-offs                               ... done
Setting up the integral package                    ... done
Initializing the effective Hamiltonian             ... done
Starting the Coulomb interaction                   ... done (   0.0 sec)
Reading the grid                                   ... done
Mapping shells                                     ... done
Starting the XC term evaluation                    ... done (   0.1 sec)
  promolecular density results
     # of electrons  =     75.996998702
     EX              =   -118.237777037
     EC              =     -1.079549401
     EX+EC           =   -119.317326438
Transforming the Hamiltonian                       ... done (   0.0 sec)
Diagonalizing the Hamiltonian                      ... done (   0.0 sec)
Back transforming the eigenvectors                 ... done (   0.0 sec)
Now organizing SCF variables                       ... done
                      ------------------
                      INITIAL GUESS DONE (   0.6 sec)
                      ------------------
--------------
SCF ITERATIONS
--------------
ITER       Energy         Delta-E        Max-DP      RMS-DP      [F,P]     Damp
  0  -2632.6689695650   0.000000000000 0.14413021  0.00220580  0.1684170 0.7000
  1  -2632.6999071942  -0.030937629261 0.11291785  0.00175229  0.1335854 0.7000
                               ***Turning on DIIS***
  2  -2632.7320275723  -0.032120378069 0.23741272  0.00350938  0.0637903 0.0000
  3  -2632.8383778631  -0.106350290761 0.07973205  0.00133900  0.0946215 0.0000
  4  -2632.8866232723  -0.048245409214 0.02681492  0.00054098  0.0349746 0.0000
  5  -2632.8929102077  -0.006286935394 0.02127586  0.00036779  0.0162990 0.0000
  6  -2632.8940808387  -0.001170631005 0.00942446  0.00010326  0.0047370 0.0000
                      *** Initiating the SOSCF procedure ***
                           *** Shutting down DIIS ***
                      *** Re-Reading the Fockian *** 
                      *** Removing any level shift *** 
ITER      Energy       Delta-E        Grad      Rot      Max-DP    RMS-DP
  7  -2632.89422457  -0.0001437298  0.000705  0.000705  0.005287  0.000081
  8  -2632.89424495  -0.0000203856  0.000306  0.000835  0.012115  0.000119
  9  -2632.89424741  -0.0000024548  0.000168  0.000341  0.005819  0.000067
 10  -2632.89424828  -0.0000008724  0.000051  0.000099  0.002182  0.000026
 11  -2632.89424838  -0.0000000978  0.000031  0.000039  0.005225  0.000053
                 **** Energy Check signals convergence ****
              ***Rediagonalizing the Fockian in SOSCF/NRSCF***

               *****************************************************
               *                     SUCCESS                       *
               *           SCF CONVERGED AFTER  12 CYCLES          *
               *****************************************************


----------------
TOTAL SCF ENERGY
----------------

Total Energy       :        -2632.89424842 Eh          -71644.69485 eV

Components:
Nuclear Repulsion  :          439.59650014 Eh           11962.02891 eV
Electronic Energy  :        -3072.49074856 Eh          -83606.72375 eV
One Electron Energy:        -4529.37262603 Eh         -123250.49509 eV
Two Electron Energy:         1456.88187747 Eh           39643.77134 eV

Virial components:
Potential Energy   :        -5262.37571449 Eh         -143196.52316 eV
Kinetic Energy     :         2629.48146607 Eh           71551.82832 eV
Virial Ratio       :            2.00129789


DFT components:
N(Alpha)           :       38.000032067662 electrons
N(Beta)            :       38.000032067662 electrons
N(Total)           :       76.000064135324 electrons
E(X)               :      -55.865538567326 Eh       
E(C)               :       -2.222975382015 Eh       
E(XC)              :      -58.088513949340 Eh       
DFET-embed. en.    :        0.000000000000 Eh       

---------------
SCF CONVERGENCE
---------------

  Last Energy change         ...   -3.8050e-08  Tolerance :   1.0000e-06
  Last MAX-Density change    ...    1.0163e-02  Tolerance :   1.0000e-05
  Last RMS-Density change    ...    1.2942e-04  Tolerance :   1.0000e-06
  Last Orbital Gradient      ...    8.6298e-06  Tolerance :   5.0000e-05
  Last Orbital Rotation      ...    1.4994e-05  Tolerance :   5.0000e-05

             **** THE GBW FILE WAS UPDATED (MOR23_phseh.gbw) ****
             **** DENSITY FILE WAS UPDATED (MOR23_phseh.scfp) ****
             **** ENERGY FILE WAS UPDATED (MOR23_phseh.en.tmp) ****
             **** THE GBW FILE WAS UPDATED (MOR23_phseh.gbw) ****
             **** DENSITY FILE WAS UPDATED (MOR23_phseh.scfp) ****
----------------
ORBITAL ENERGIES
----------------

  NO   OCC          E(Eh)            E(eV) 
   0   2.0000    -456.805755    -12430.3165 
   1   2.0000     -59.146148     -1609.4485 
   2   2.0000     -53.010680     -1442.4939 
   3   2.0000     -53.009671     -1442.4665 
   4   2.0000     -53.008044     -1442.4222 
   5   2.0000     -10.661943      -290.1262 
   6   2.0000     -10.630773      -289.2780 
   7   2.0000     -10.630305      -289.2653 
   8   2.0000     -10.629565      -289.2452 
   9   2.0000     -10.629348      -289.2393 
  10   2.0000     -10.624759      -289.1144 
  11   2.0000      -8.272630      -225.1097 
  12   2.0000      -6.130635      -166.8230 
  13   2.0000      -6.126829      -166.7195 
  14   2.0000      -6.120527      -166.5480 
  15   2.0000      -2.333415       -63.4954 
  16   2.0000      -2.332411       -63.4681 
  17   2.0000      -2.326034       -63.2946 
  18   2.0000      -2.322525       -63.1991 
  19   2.0000      -2.321721       -63.1773 
  20   2.0000      -0.990739       -26.9594 
  21   2.0000      -0.885114       -24.0852 
  22   2.0000      -0.868734       -23.6395 
  23   2.0000      -0.789069       -21.4717 
  24   2.0000      -0.708996       -19.2928 
  25   2.0000      -0.684412       -18.6238 
  26   2.0000      -0.597540       -16.2599 
  27   2.0000      -0.540217       -14.7001 
  28   2.0000      -0.534181       -14.5358 
  29   2.0000      -0.502303       -13.6684 
  30   2.0000      -0.477969       -13.0062 
  31   2.0000      -0.442697       -12.0464 
  32   2.0000      -0.431964       -11.7544 
  33   2.0000      -0.418324       -11.3832 
  34   2.0000      -0.379224       -10.3192 
  35   2.0000      -0.337703        -9.1894 
  36   2.0000      -0.301561        -8.2059 
  37   2.0000      -0.257134        -6.9970 
  38   0.0000       0.021278         0.5790 
  39   0.0000       0.025390         0.6909 
  40   0.0000       0.028318         0.7706 
  41   0.0000       0.029204         0.7947 
  42   0.0000       0.040165         1.0929 
  43   0.0000       0.045337         1.2337 
  44   0.0000       0.061073         1.6619 
  45   0.0000       0.064466         1.7542 
  46   0.0000       0.068017         1.8508 
  47   0.0000       0.082954         2.2573 
  48   0.0000       0.098308         2.6751 
  49   0.0000       0.101964         2.7746 
  50   0.0000       0.115524         3.1436 
  51   0.0000       0.128196         3.4884 
  52   0.0000       0.133103         3.6219 
  53   0.0000       0.142053         3.8655 
  54   0.0000       0.159611         4.3432 
  55   0.0000       0.167579         4.5601 
  56   0.0000       0.168033         4.5724 
  57   0.0000       0.180070         4.8999 
  58   0.0000       0.184342         5.0162 
  59   0.0000       0.190329         5.1791 
  60   0.0000       0.196030         5.3342 
  61   0.0000       0.208760         5.6807 
  62   0.0000       0.210628         5.7315 
  63   0.0000       0.222878         6.0648 
  64   0.0000       0.228206         6.2098 
  65   0.0000       0.230046         6.2599 
  66   0.0000       0.233638         6.3576 
  67   0.0000       0.246075         6.6960 
  68   0.0000       0.253368         6.8945 
  69   0.0000       0.259570         7.0633 
  70   0.0000       0.264903         7.2084 
  71   0.0000       0.273547         7.4436 
  72   0.0000       0.284951         7.7539 
  73   0.0000       0.286149         7.7865 
  74   0.0000       0.290472         7.9041 
  75   0.0000       0.295398         8.0382 
  76   0.0000       0.313311         8.5256 
  77   0.0000       0.313500         8.5308 
  78   0.0000       0.318148         8.6572 
  79   0.0000       0.334364         9.0985 
  80   0.0000       0.334454         9.1010 
  81   0.0000       0.343076         9.3356 
  82   0.0000       0.343867         9.3571 
  83   0.0000       0.350898         9.5484 
  84   0.0000       0.356550         9.7022 
  85   0.0000       0.357696         9.7334 
  86   0.0000       0.364214         9.9108 
  87   0.0000       0.382095        10.3973 
  88   0.0000       0.390588        10.6284 
  89   0.0000       0.391813        10.6618 
  90   0.0000       0.394159        10.7256 
  91   0.0000       0.403428        10.9778 
  92   0.0000       0.407036        11.0760 
  93   0.0000       0.418323        11.3831 
  94   0.0000       0.418567        11.3898 
  95   0.0000       0.421612        11.4727 
  96   0.0000       0.421890        11.4802 
  97   0.0000       0.428680        11.6650 
  98   0.0000       0.440676        11.9914 
  99   0.0000       0.445326        12.1179 
 100   0.0000       0.461522        12.5586 
 101   0.0000       0.465418        12.6647 
 102   0.0000       0.472568        12.8592 
 103   0.0000       0.475184        12.9304 
 104   0.0000       0.481181        13.0936 
 105   0.0000       0.488563        13.2945 
 106   0.0000       0.495290        13.4775 
 107   0.0000       0.516517        14.0551 
 108   0.0000       0.518445        14.1076 
 109   0.0000       0.520950        14.1758 
 110   0.0000       0.530479        14.4351 
 111   0.0000       0.534897        14.5553 
 112   0.0000       0.543078        14.7779 
 113   0.0000       0.555108        15.1053 
 114   0.0000       0.558445        15.1961 
 115   0.0000       0.571854        15.5610 
 116   0.0000       0.588064        16.0020 
 117   0.0000       0.604602        16.4521 
 118   0.0000       0.619986        16.8707 
 119   0.0000       0.620596        16.8873 
 120   0.0000       0.626474        17.0472 
 121   0.0000       0.641704        17.4616 
 122   0.0000       0.647733        17.6257 
 123   0.0000       0.667719        18.1696 
 124   0.0000       0.672796        18.3077 
 125   0.0000       0.691420        18.8145 
 126   0.0000       0.697683        18.9849 
 127   0.0000       0.698827        19.0161 
 128   0.0000       0.706266        19.2185 
 129   0.0000       0.715113        19.4592 
 130   0.0000       0.720955        19.6182 
 131   0.0000       0.723112        19.6769 
 132   0.0000       0.734950        19.9990 
 133   0.0000       0.736837        20.0503 
 134   0.0000       0.753779        20.5114 
 135   0.0000       0.756038        20.5729 
 136   0.0000       0.759662        20.6714 
 137   0.0000       0.771014        20.9804 
 138   0.0000       0.776525        21.1303 
 139   0.0000       0.779863        21.2212 
 140   0.0000       0.793395        21.5894 
 141   0.0000       0.799166        21.7464 
 142   0.0000       0.811515        22.0824 
 143   0.0000       0.816804        22.2264 
 144   0.0000       0.820172        22.3180 
 145   0.0000       0.821226        22.3467 
 146   0.0000       0.824258        22.4292 
 147   0.0000       0.849818        23.1247 
 148   0.0000       0.859227        23.3808 
 149   0.0000       0.871110        23.7041 
 150   0.0000       0.886781        24.1305 
 151   0.0000       0.895758        24.3748 
 152   0.0000       0.948329        25.8054 
 153   0.0000       0.965591        26.2751 
 154   0.0000       0.973792        26.4982 
 155   0.0000       0.975548        26.5460 
 156   0.0000       0.982798        26.7433 
 157   0.0000       0.984248        26.7827 
 158   0.0000       0.988620        26.9017 
 159   0.0000       1.020540        27.7703 
 160   0.0000       1.024503        27.8781 
 161   0.0000       1.033731        28.1292 
 162   0.0000       1.057762        28.7832 
 163   0.0000       1.076306        29.2878 
 164   0.0000       1.109225        30.1835 
 165   0.0000       1.117670        30.4133 
 166   0.0000       1.141193        31.0534 
 167   0.0000       1.145053        31.1585 
 168   0.0000       1.180990        32.1364 
 169   0.0000       1.200729        32.6735 
 170   0.0000       1.202761        32.7288 
 171   0.0000       1.234547        33.5937 
 172   0.0000       1.257617        34.2215 
 173   0.0000       1.279394        34.8141 
 174   0.0000       1.299717        35.3671 
 175   0.0000       1.309013        35.6200 
 176   0.0000       1.318168        35.8692 
 177   0.0000       1.320487        35.9323 
 178   0.0000       1.344127        36.5756 
 179   0.0000       1.344858        36.5955 
 180   0.0000       1.373734        37.3812 
 181   0.0000       1.396670        38.0053 
 182   0.0000       1.408585        38.3295 
 183   0.0000       1.414378        38.4872 
 184   0.0000       1.462411        39.7942 
 185   0.0000       1.471292        40.0359 
 186   0.0000       1.496886        40.7323 
 187   0.0000       1.519581        41.3499 
 188   0.0000       1.522365        41.4257 
 189   0.0000       1.531708        41.6799 
 190   0.0000       1.548749        42.1436 
 191   0.0000       1.560022        42.4504 
 192   0.0000       1.574014        42.8311 
 193   0.0000       1.582924        43.0736 
 194   0.0000       1.595861        43.4256 
 195   0.0000       1.600506        43.5520 
 196   0.0000       1.616659        43.9915 
 197   0.0000       1.635801        44.5124 
 198   0.0000       1.651892        44.9503 
 199   0.0000       1.673614        45.5414 
 200   0.0000       1.691782        46.0357 
 201   0.0000       1.697736        46.1977 
 202   0.0000       1.715903        46.6921 
 203   0.0000       1.732498        47.1437 
 204   0.0000       1.766862        48.0788 
 205   0.0000       1.797565        48.9142 
 206   0.0000       1.800263        48.9877 
 207   0.0000       1.821586        49.5679 
 208   0.0000       1.829748        49.7900 
 209   0.0000       1.837338        49.9965 
 210   0.0000       1.846580        50.2480 
 211   0.0000       1.862870        50.6913 
 212   0.0000       1.871217        50.9184 
 213   0.0000       1.882230        51.2181 
 214   0.0000       1.931603        52.5616 
 215   0.0000       1.936006        52.6814 
 216   0.0000       1.951648        53.1070 
 217   0.0000       1.969899        53.6037 
 218   0.0000       1.990036        54.1516 
 219   0.0000       2.011316        54.7307 
 220   0.0000       2.024534        55.0904 
 221   0.0000       2.039565        55.4994 
 222   0.0000       2.053346        55.8744 
 223   0.0000       2.086235        56.7694 
 224   0.0000       2.108096        57.3642 
 225   0.0000       2.162803        58.8529 
 226   0.0000       2.209619        60.1268 
 227   0.0000       2.222294        60.4717 
 228   0.0000       2.267980        61.7149 
 229   0.0000       2.279592        62.0308 
 230   0.0000       2.318523        63.0902 
 231   0.0000       2.322817        63.2071 
 232   0.0000       2.335852        63.5618 
 233   0.0000       2.403219        65.3949 
 234   0.0000       2.496383        67.9300 
 235   0.0000       2.504198        68.1427 
 236   0.0000       2.512494        68.3684 
 237   0.0000       2.525470        68.7215 
 238   0.0000       2.559348        69.6434 
 239   0.0000       2.624835        71.4254 
 240   0.0000       2.648236        72.0622 
 241   0.0000       2.683787        73.0296 
 242   0.0000       2.735614        74.4398 
 243   0.0000       2.808803        76.4314 
 244   0.0000       2.819313        76.7174 
 245   0.0000       2.828698        76.9728 
 246   0.0000       2.863684        77.9248 
 247   0.0000       2.868684        78.0609 
 248   0.0000       2.896932        78.8295 
 249   0.0000       2.912773        79.2606 
 250   0.0000       2.935699        79.8844 
 251   0.0000       2.958092        80.4938 
 252   0.0000       2.968003        80.7635 
 253   0.0000       2.998620        81.5966 
 254   0.0000       3.018651        82.1417 
 255   0.0000       3.064787        83.3971 
 256   0.0000       3.074673        83.6661 
 257   0.0000       3.158282        85.9412 
 258   0.0000       3.160267        85.9952 
 259   0.0000       3.191674        86.8499 
 260   0.0000       3.200952        87.1023 
 261   0.0000       3.210543        87.3633 
 262   0.0000       3.238838        88.1333 
 263   0.0000       3.249978        88.4364 
 264   0.0000       3.262681        88.7821 
 265   0.0000       3.278931        89.2242 
 266   0.0000       3.295107        89.6644 
 267   0.0000       3.297986        89.7428 
 268   0.0000       3.303217        89.8851 
 269   0.0000       3.313842        90.1742 
 270   0.0000       3.322616        90.4130 
 271   0.0000       3.334053        90.7242 
 272   0.0000       3.378946        91.9458 
 273   0.0000       3.385407        92.1216 
 274   0.0000       3.388690        92.2110 
 275   0.0000       3.442427        93.6732 
 276   0.0000       3.458659        94.1149 
 277   0.0000       3.475952        94.5855 
 278   0.0000       3.492492        95.0355 
 279   0.0000       3.494746        95.0969 
 280   0.0000       3.529523        96.0432 
 281   0.0000       3.530455        96.0686 
 282   0.0000       3.533734        96.1578 
 283   0.0000       3.540007        96.3285 
 284   0.0000       3.547182        96.5237 
 285   0.0000       3.568341        97.0995 
 286   0.0000       3.589484        97.6748 
 287   0.0000       3.608341        98.1879 
 288   0.0000       3.635071        98.9153 
 289   0.0000       3.644204        99.1638 
 290   0.0000       3.649847        99.3174 
 291   0.0000       3.657019        99.5125 
 292   0.0000       3.680637       100.1552 
 293   0.0000       3.706828       100.8679 
 294   0.0000       3.744191       101.8846 
 295   0.0000       3.752869       102.1208 
 296   0.0000       3.770528       102.6013 
 297   0.0000       3.801464       103.4431 
 298   0.0000       3.828427       104.1768 
 299   0.0000       3.851559       104.8063 
 300   0.0000       3.873488       105.4030 
 301   0.0000       3.890064       105.8540 
 302   0.0000       3.894576       105.9768 
 303   0.0000       3.900064       106.1261 
 304   0.0000       3.933607       107.0389 
 305   0.0000       3.943040       107.2956 
 306   0.0000       3.945696       107.3678 
 307   0.0000       3.958601       107.7190 
 308   0.0000       3.968492       107.9882 
 309   0.0000       4.002581       108.9158 
 310   0.0000       4.005071       108.9835 
 311   0.0000       4.035854       109.8212 
 312   0.0000       4.048238       110.1582 
 313   0.0000       4.058311       110.4322 
 314   0.0000       4.084813       111.1534 
 315   0.0000       4.088495       111.2536 
 316   0.0000       4.091972       111.3482 
 317   0.0000       4.149600       112.9164 
 318   0.0000       4.167307       113.3982 
 319   0.0000       4.207560       114.4935 
 320   0.0000       4.226429       115.0070 
 321   0.0000       4.235925       115.2654 
 322   0.0000       4.260669       115.9387 
 323   0.0000       4.317216       117.4774 
 324   0.0000       4.348154       118.3193 
 325   0.0000       4.349059       118.3439 
 326   0.0000       4.359054       118.6159 
 327   0.0000       4.399904       119.7275 
 328   0.0000       4.400339       119.7393 
 329   0.0000       4.408293       119.9557 
 330   0.0000       4.415437       120.1501 
 331   0.0000       4.431140       120.5775 
 332   0.0000       4.448053       121.0377 
 333   0.0000       4.460154       121.3669 
 334   0.0000       4.502500       122.5193 
 335   0.0000       4.517598       122.9301 
 336   0.0000       4.536353       123.4404 
 337   0.0000       4.549838       123.8074 
 338   0.0000       4.569692       124.3477 
 339   0.0000       4.660715       126.8245 
 340   0.0000       4.728023       128.6560 
 341   0.0000       4.732363       128.7741 
 342   0.0000       4.774871       129.9309 
 343   0.0000       4.799046       130.5887 
 344   0.0000       4.819169       131.1363 
 345   0.0000       4.838006       131.6488 
 346   0.0000       4.877532       132.7244 
 347   0.0000       4.909364       133.5906 
 348   0.0000       4.931928       134.2046 
 349   0.0000       4.936050       134.3167 
 350   0.0000       4.952384       134.7612 
 351   0.0000       4.957319       134.8955 
 352   0.0000       5.014355       136.4475 
 353   0.0000       5.047000       137.3358 
 354   0.0000       5.115303       139.1945 
 355   0.0000       5.136333       139.7667 
 356   0.0000       5.193623       141.3257 
 357   0.0000       5.259404       143.1157 
 358   0.0000       5.379667       146.3882 
 359   0.0000       5.417019       147.4046 
 360   0.0000       5.473030       148.9287 
 361   0.0000       5.486513       149.2956 
 362   0.0000       5.515725       150.0905 
 363   0.0000       5.595728       152.2675 
 364   0.0000       5.641482       153.5125 
 365   0.0000       5.650844       153.7673 
 366   0.0000       5.831501       158.6832 
 367   0.0000       5.846288       159.0856 
 368   0.0000       5.865961       159.6209 
 369   0.0000       5.953869       162.0130 
 370   0.0000       6.101161       166.0210 
 371   0.0000       6.207360       168.9109 
 372   0.0000       6.358029       173.0108 
 373   0.0000       6.803537       185.1337 
 374   0.0000       7.668489       208.6702 
 375   0.0000      23.324388       634.6889 
 376   0.0000      23.565615       641.2530 
 377   0.0000      23.656689       643.7312 
 378   0.0000      23.717388       645.3829 
 379   0.0000      23.789282       647.3393 
 380   0.0000      24.497972       666.6237 

                    ********************************
                    * MULLIKEN POPULATION ANALYSIS *
                    ********************************

-----------------------
MULLIKEN ATOMIC CHARGES
-----------------------
   0 C :    0.288330
   1 C :    0.178355
   2 C :   -0.032293
   3 C :   -0.089839
   4 C :    0.002999
   5 C :   -0.133718
   6 Se:   -0.072959
   7 H :   -0.001400
   8 H :   -0.070210
   9 H :   -0.007922
  10 H :    0.000492
  11 H :   -0.008023
  12 H :   -0.053812
Sum of atomic charges:    0.0000000

--------------------------------
MULLIKEN REDUCED ORBITAL CHARGES
--------------------------------
  0 C s       :     3.370882  s :     3.370882
      pz      :     0.964270  p :     2.134190
      px      :     0.569282
      py      :     0.600638
      dz2     :    -0.011052  d :     0.197621
      dxz     :     0.040682
      dyz     :     0.033312
      dx2y2   :     0.027561
      dxy     :     0.107117
      f0      :     0.001803  f :     0.008977
      f+1     :     0.000787
      f-1     :     0.000658
      f+2     :     0.000659
      f-2     :     0.001102
      f+3     :     0.001482
      f-3     :     0.002485
  1 C s       :     3.250500  s :     3.250500
      pz      :     0.957450  p :     2.554798
      px      :     0.843154
      py      :     0.754193
      dz2     :     0.001879  d :     0.008251
      dxz     :     0.023766
      dyz     :     0.005824
      dx2y2   :    -0.006187
      dxy     :    -0.017030
      f0      :     0.001463  f :     0.008097
      f+1     :     0.000677
      f-1     :     0.000733
      f+2     :     0.000907
      f-2     :     0.000550
      f+3     :     0.001448
      f-3     :     0.002318
  2 C s       :     3.384816  s :     3.384816
      pz      :     0.927854  p :     2.589653
      px      :     0.816686
      py      :     0.845113
      dz2     :    -0.001636  d :     0.049824
      dxz     :     0.026064
      dyz     :     0.013328
      dx2y2   :     0.006897
      dxy     :     0.005171
      f0      :     0.001437  f :     0.007999
      f+1     :     0.000649
      f-1     :     0.000707
      f+2     :     0.000972
      f-2     :     0.000523
      f+3     :     0.001414
      f-3     :     0.002297
  3 C s       :     3.382972  s :     3.382972
      pz      :     0.957519  p :     2.668226
      px      :     0.896600
      py      :     0.814107
      dz2     :     0.001487  d :     0.030708
      dxz     :     0.009780
      dyz     :     0.031261
      dx2y2   :     0.006937
      dxy     :    -0.018756
      f0      :     0.001426  f :     0.007932
      f+1     :     0.000744
      f-1     :     0.000623
      f+2     :     0.000296
      f-2     :     0.001090
      f+3     :     0.001409
      f-3     :     0.002346
  4 C s       :     3.352714  s :     3.352714
      pz      :     0.925322  p :     2.592192
      px      :     0.846938
      py      :     0.819933
      dz2     :    -0.001743  d :     0.044086
      dxz     :     0.024207
      dyz     :     0.012086
      dx2y2   :     0.003428
      dxy     :     0.006107
      f0      :     0.001438  f :     0.008009
      f+1     :     0.000645
      f-1     :     0.000708
      f+2     :     0.000952
      f-2     :     0.000547
      f+3     :     0.001411
      f-3     :     0.002308
  5 C s       :     3.315224  s :     3.315224
      pz      :     0.964419  p :     2.730861
      px      :     0.893806
      py      :     0.872636
      dz2     :    -0.001249  d :     0.079438
      dxz     :     0.030784
      dyz     :     0.009820
      dx2y2   :     0.038030
      dxy     :     0.002054
      f0      :     0.001477  f :     0.008195
      f+1     :     0.000685
      f-1     :     0.000736
      f+2     :     0.000938
      f-2     :     0.000527
      f+3     :     0.001456
      f-3     :     0.002375
  6 Ses       :     7.945944  s :     7.945944
      pz      :     5.876795  p :    16.014207
      px      :     5.068820
      py      :     5.068591
      dz2     :     2.012855  d :    10.099475
      dxz     :     2.023340
      dyz     :     2.001777
      dx2y2   :     2.049504
      dxy     :     2.011999
      f0      :     0.001233  f :     0.013333
      f+1     :     0.002142
      f-1     :     0.002023
      f+2     :     0.001290
      f-2     :     0.000071
      f+3     :     0.002606
      f-3     :     0.003968
  7 H s       :     0.951098  s :     0.951098
      pz      :     0.034831  p :     0.048533
      px      :     0.004246
      py      :     0.009456
      dz2     :     0.000199  d :     0.001769
      dxz     :     0.000017
      dyz     :     0.000622
      dx2y2   :     0.000450
      dxy     :     0.000481
  8 H s       :     1.038034  s :     1.038034
      pz      :     0.015153  p :     0.030188
      px      :     0.021466
      py      :    -0.006432
      dz2     :     0.000122  d :     0.001988
      dxz     :     0.000157
      dyz     :     0.000483
      dx2y2   :     0.000761
      dxy     :     0.000465
  9 H s       :     0.988921  s :     0.988921
      pz      :     0.016936  p :     0.017121
      px      :     0.002218
      py      :    -0.002034
      dz2     :     0.000103  d :     0.001881
      dxz     :     0.000162
      dyz     :     0.000449
      dx2y2   :     0.000718
      dxy     :     0.000448
 10 H s       :     0.975917  s :     0.975917
      pz      :     0.018339  p :     0.021729
      px      :    -0.004506
      py      :     0.007896
      dz2     :     0.000102  d :     0.001863
      dxz     :     0.000608
      dyz     :     0.000012
      dx2y2   :     0.000299
      dxy     :     0.000843
 11 H s       :     0.988309  s :     0.988309
      pz      :     0.016927  p :     0.017833
      px      :     0.003582
      py      :    -0.002676
      dz2     :     0.000103  d :     0.001881
      dxz     :     0.000152
      dyz     :     0.000458
      dx2y2   :     0.000701
      dxy     :     0.000467
 12 H s       :     1.043025  s :     1.043025
      pz      :     0.013691  p :     0.008833
      px      :     0.000574
      py      :    -0.005433
      dz2     :     0.000119  d :     0.001955
      dxz     :     0.000168
      dyz     :     0.000472
      dx2y2   :     0.000756
      dxy     :     0.000440


                     *******************************
                     * LOEWDIN POPULATION ANALYSIS *
                     *******************************

----------------------
LOEWDIN ATOMIC CHARGES
----------------------
   0 C :   -0.568288
   1 C :   -0.044380
   2 C :    0.009875
   3 C :    0.006048
   4 C :    0.009378
   5 C :   -0.056763
   6 Se:    0.918473
   7 H :   -0.254812
   8 H :   -0.012230
   9 H :    0.001185
  10 H :   -0.003025
  11 H :    0.001316
  12 H :   -0.006779

-------------------------------
LOEWDIN REDUCED ORBITAL CHARGES
-------------------------------
  0 C s       :     2.701952  s :     2.701952
      pz      :     0.779694  p :     2.689585
      px      :     0.908665
      py      :     1.001226
      dz2     :     0.094838  d :     1.128087
      dxz     :     0.224762
      dyz     :     0.147356
      dx2y2   :     0.381013
      dxy     :     0.280119
      f0      :     0.003748  f :     0.048664
      f+1     :     0.003552
      f-1     :     0.004302
      f+2     :     0.003918
      f-2     :     0.007170
      f+3     :     0.009069
      f-3     :     0.016904
  1 C s       :     2.647229  s :     2.647229
      pz      :     0.742759  p :     2.613976
      px      :     0.949022
      py      :     0.922195
      dz2     :     0.067704  d :     0.739082
      dxz     :     0.120210
      dyz     :     0.064434
      dx2y2   :     0.223236
      dxy     :     0.263498
      f0      :     0.002564  f :     0.044093
      f+1     :     0.003971
      f-1     :     0.003613
      f+2     :     0.005759
      f-2     :     0.003634
      f+3     :     0.009512
      f-3     :     0.015040
  2 C s       :     2.648421  s :     2.648421
      pz      :     0.718397  p :     2.594940
      px      :     0.945245
      py      :     0.931298
      dz2     :     0.060929  d :     0.703108
      dxz     :     0.118614
      dyz     :     0.064878
      dx2y2   :     0.203204
      dxy     :     0.255483
      f0      :     0.002523  f :     0.043655
      f+1     :     0.003775
      f-1     :     0.003468
      f+2     :     0.006294
      f-2     :     0.003312
      f+3     :     0.009260
      f-3     :     0.015024
  3 C s       :     2.648438  s :     2.648438
      pz      :     0.735227  p :     2.610528
      px      :     0.921190
      py      :     0.954110
      dz2     :     0.060398  d :     0.691685
      dxz     :     0.035867
      dyz     :     0.137300
      dx2y2   :     0.280607
      dxy     :     0.177514
      f0      :     0.002506  f :     0.043302
      f+1     :     0.003362
      f-1     :     0.003922
      f+2     :     0.001950
      f-2     :     0.007092
      f+3     :     0.009296
      f-3     :     0.015174
  4 C s       :     2.648146  s :     2.648146
      pz      :     0.717967  p :     2.595005
      px      :     0.946314
      py      :     0.930724
      dz2     :     0.061021  d :     0.703761
      dxz     :     0.120151
      dyz     :     0.063082
      dx2y2   :     0.206815
      dxy     :     0.252692
      f0      :     0.002525  f :     0.043710
      f+1     :     0.003784
      f-1     :     0.003458
      f+2     :     0.006124
      f-2     :     0.003477
      f+3     :     0.009258
      f-3     :     0.015083
  5 C s       :     2.649830  s :     2.649830
      pz      :     0.742580  p :     2.620195
      px      :     0.952936
      py      :     0.924679
      dz2     :     0.066749  d :     0.742635
      dxz     :     0.122337
      dyz     :     0.066099
      dx2y2   :     0.221352
      dxy     :     0.266099
      f0      :     0.002585  f :     0.044102
      f+1     :     0.003966
      f-1     :     0.003628
      f+2     :     0.005925
      f-2     :     0.003476
      f+3     :     0.009475
      f-3     :     0.015048
  6 Ses       :     7.152459  s :     7.152459
      pz      :     5.566961  p :    15.596394
      px      :     4.969134
      py      :     5.060299
      dz2     :     2.042661  d :    10.301362
      dxz     :     2.068281
      dyz     :     2.002379
      dx2y2   :     2.117875
      dxy     :     2.070167
      f0      :     0.002041  f :     0.031312
      f+1     :     0.004021
      f-1     :     0.003279
      f+2     :     0.003056
      f-2     :     0.000035
      f+3     :     0.007929
      f-3     :     0.010950
  7 H s       :     0.832361  s :     0.832361
      pz      :     0.132180  p :     0.403982
      px      :     0.066906
      py      :     0.204896
      dz2     :     0.002179  d :     0.018468
      dxz     :     0.000065
      dyz     :     0.005867
      dx2y2   :     0.007090
      dxy     :     0.003267
  8 H s       :     0.703412  s :     0.703412
      pz      :     0.076188  p :     0.280155
      px      :     0.092988
      py      :     0.110979
      dz2     :     0.002730  d :     0.028662
      dxz     :     0.002006
      dyz     :     0.006362
      dx2y2   :     0.008963
      dxy     :     0.008601
  9 H s       :     0.708341  s :     0.708341
      pz      :     0.075786  p :     0.262253
      px      :     0.078572
      py      :     0.107895
      dz2     :     0.002702  d :     0.028221
      dxz     :     0.002000
      dyz     :     0.005889
      dx2y2   :     0.008928
      dxy     :     0.008702
 10 H s       :     0.710204  s :     0.710204
      pz      :     0.078870  p :     0.264454
      px      :     0.122135
      py      :     0.063449
      dz2     :     0.002700  d :     0.028366
      dxz     :     0.008130
      dyz     :     0.000024
      dx2y2   :     0.008561
      dxy     :     0.008951
 11 H s       :     0.708349  s :     0.708349
      pz      :     0.075608  p :     0.262116
      px      :     0.077652
      py      :     0.108857
      dz2     :     0.002704  d :     0.028219
      dxz     :     0.001879
      dyz     :     0.006006
      dx2y2   :     0.008915
      dxy     :     0.008716
 12 H s       :     0.704226  s :     0.704226
      pz      :     0.075738  p :     0.274010
      px      :     0.087319
      py      :     0.110954
      dz2     :     0.002738  d :     0.028543
      dxz     :     0.002149
      dyz     :     0.006204
      dx2y2   :     0.008909
      dxy     :     0.008543


                      *****************************
                      * MAYER POPULATION ANALYSIS *
                      *****************************

  NA   - Mulliken gross atomic population
  ZA   - Total nuclear charge
  QA   - Mulliken gross atomic charge
  VA   - Mayer's total valence
  BVA  - Mayer's bonded valence
  FA   - Mayer's free valence

  ATOM       NA         ZA         QA         VA         BVA        FA
  0 C      5.7117     6.0000     0.2883     2.7456     2.7456    -0.0000
  1 C      5.8216     6.0000     0.1784     3.0405     3.0405     0.0000
  2 C      6.0323     6.0000    -0.0323     3.3265     3.3265     0.0000
  3 C      6.0898     6.0000    -0.0898     3.2498     3.2498     0.0000
  4 C      5.9970     6.0000     0.0030     3.3347     3.3347     0.0000
  5 C      6.1337     6.0000    -0.1337     3.5129     3.5129    -0.0000
  6 Se    34.0730    34.0000    -0.0730     2.1426     2.1426    -0.0000
  7 H      1.0014     1.0000    -0.0014     1.0214     1.0214    -0.0000
  8 H      1.0702     1.0000    -0.0702     0.9286     0.9286     0.0000
  9 H      1.0079     1.0000    -0.0079     0.9251     0.9251    -0.0000
 10 H      0.9995     1.0000     0.0005     0.9262     0.9262     0.0000
 11 H      1.0080     1.0000    -0.0080     0.9302     0.9302     0.0000
 12 H      1.0538     1.0000    -0.0538     0.9110     0.9110    -0.0000

  Mayer bond orders larger than 0.100000
B(  0-C ,  1-C ) :   1.0021 B(  0-C ,  5-C ) :   1.1434 B(  0-C ,  6-Se) :   1.1308 
B(  0-C ,  8-H ) :  -0.1837 B(  0-C , 12-H ) :  -0.1910 B(  1-C ,  2-C ) :   1.1901 
B(  1-C ,  6-Se) :  -0.1327 B(  1-C ,  8-H ) :   1.1394 B(  2-C ,  3-C ) :   1.2411 
B(  2-C ,  9-H ) :   1.0989 B(  3-C ,  4-C ) :   1.2279 B(  3-C , 10-H ) :   1.0863 
B(  3-C , 11-H ) :  -0.1003 B(  4-C ,  5-C ) :   1.2372 B(  4-C , 11-H ) :   1.1025 
B(  5-C , 12-H ) :   1.1302 B(  6-Se,  7-H ) :   1.0144 

-------
TIMINGS
-------

Total SCF time: 0 days 0 hours 0 min 10 sec 

Total time                  ....      10.731 sec
Sum of individual times     ....      10.459 sec  ( 97.5%)

Fock matrix formation       ....       9.389 sec  ( 87.5%)
  XC integration            ....       1.516 sec  ( 16.1% of F)
    Basis function eval.    ....       0.235 sec  ( 15.5% of XC)
    Density eval.           ....       0.280 sec  ( 18.5% of XC)
    XC-Functional eval.     ....       0.029 sec  (  1.9% of XC)
    XC-Potential eval.      ....       0.472 sec  ( 31.2% of XC)
Diagonalization             ....       0.218 sec  (  2.0%)
Density matrix formation    ....       0.029 sec  (  0.3%)
Population analysis         ....       0.025 sec  (  0.2%)
Initial guess               ....       0.207 sec  (  1.9%)
Orbital Transformation      ....       0.000 sec  (  0.0%)
Orbital Orthonormalization  ....       0.000 sec  (  0.0%)
DIIS solution               ....       0.111 sec  (  1.0%)
SOSCF solution              ....       0.109 sec  (  1.0%)
Grid generation             ....       0.372 sec  (  3.5%)


           ************************************************************
           *        Program running with 24 parallel MPI-processes    *
           *              working on a common directory               *
           ************************************************************

------------------------------------------------------------------------------
                                ORCA  MP2 
------------------------------------------------------------------------------

Freezing NCore=30 chemical core electrons

-------------
RI-MP2 ENERGY
-------------
Dimension of the basis                    ...  381
Memory devoted to MP2                     ... 5000 MB   
Data format for buffers                   ... DOUBLE
Compression type for matrix containers    ... UNCOMPRESSED
Overall scaling of the MP2 energy         ...   2.700e-01
Calculating two index integrals           ... done (    0.007 sec)
Cholesky decomposition of V**-1           ... done (    0.068 sec)

-----------------
RI-TRANSFORMATION (AUX index driven)
-----------------

Dimension of the orbital-basis         ... 381
Dimension of the aux-basis             ... 961
Transformation of internal/external MOs...   15-  37 to   38- 380
Number Format for Storage              ... Double (8 Byte)
Integral mode                          ... Direct

First Phase: integral generation and transformation of MO indices
  Aux angular momentum 0               ... done (    0.015 sec)
  Aux angular momentum 1               ... done (    0.033 sec)
  Aux angular momentum 2               ... done (    0.041 sec)
  Aux angular momentum 3               ... done (    0.038 sec)
  Aux angular momentum 4               ... done (    0.024 sec)
  Aux angular momentum 5               ... done (    0.028 sec)
Closing buffer VIA ( 0.06 GB; CompressionRatio= 1.00)
  Phase 1 completed in     0.287 sec
Second Phase: sorting and transformation of aux index

IA-Transformation
Memory available                       ... 4982 MB 
Max. # MO pairs treated in a batch     ... 1    
# of internal orbitals                 ... 23
# batches for internal orbitals        ... 1
Closing buffer IAV ( 0.00 GB; CompressionRatio= 1.00)
(ia|v) transformation done in     0.035 sec

  Phase 2 completed in     0.100 sec
RI-Integral transformation completed in     0.388 sec
Opening buffers                              ... done

Starting loop over batches of integrals:

Operator 0  - window                       ... ( 15- 37)x( 38-380)
Operator 0  - Memory available             ...  5000 MB
Operator 0  - Memory needed per MO         ...   2.5 MB
Operator 0  - Number of orbitals per batch ... 1
Operator 0  - Number of batches            ... 1

OPERATOR  0   PASS   0:  MOs    15 ...   15 +   16 ...   16 +   17 ...   17 +   18 ...   18
                            +   19 ...   19 +   20 ...   20 +   21 ...   21 +   22 ...   22
                            +   23 ...   23 +   24 ...   24 +   25 ...   25 +   26 ...   26
                            +   27 ...   27 +   28 ...   28 +   29 ...   29 +   30 ...   30
                            +   31 ...   31 +   32 ...   32 +   33 ...   33 +   34 ...   34
                            +   35 ...   35 +   36 ...   36 +   37 ...   37
  Reading integrals       ... ok
Time spent in pair loops =     0.022 sec
Deleting buffer (Ka|jb)[aa] ...done

-----------------------------------------------
 RI-MP2 CORRELATION ENERGY:     -0.403347324 Eh
-----------------------------------------------


-------
TIMINGS
-------

Total time                :    0.634 sec
Integral trafo            :    0.394 sec ( 62.1%)
I/O of integrals          :    0.004 sec (  0.6%)
K(i,j) Operators          :    0.005 sec (  0.7%)
T(i,j) pair energies      :    0.001 sec (  0.2%)
V-calculation             :    0.007 sec (  1.2%)
V**(-1/2)                 :    0.068 sec ( 10.7%)
Gamma(ia|P)               :    0.000 sec (  0.0%)
Gamma-Trafo               :    0.000 sec (  0.0%)
D(virtual)                :    0.000 sec (  0.0%)
D(internal)               :    0.000 sec (  0.0%)
W(virtual)                :    0.000 sec (  0.0%)
W(internal)               :    0.000 sec (  0.0%)
L(virtual)                :    0.000 sec (  0.0%)
L(internal)               :    0.000 sec (  0.0%)
G(D)                      :    0.000 sec (  0.0%)
G(Z)                      :    0.000 sec (  0.0%)
Z-Vector Solution         :    0.000 sec (  0.0%)
Z-Vector Solution         :    0.000 sec (  0.0%)
3-Index Derivative 
+ Separable RIJ part      :    0.000 sec (  0.0%)
2-Index Derivative 
+ Separable RIJ part      :    0.000 sec (  0.0%)
Separable Gradient (X)    :    0.000 sec (  0.0%)


---------------------------------------
MP2 TOTAL ENERGY:    -2633.297595741 Eh
---------------------------------------


-------------------------------------------------------------------------------
                          DFT DISPERSION CORRECTION                            
                                                                               
                              DFTD3 V3.1  Rev 1                                
                          USING Becke-Johnson damping                          
-------------------------------------------------------------------------------
The B2PLYP functional is recognized
Active option DFTDOPT                   ...         4   

molecular C6(AA) [au] = 3037.823371 


            DFT-D V3
 parameters
 s6 scaling factor         :     0.6400 
 a1 scaling factor         :     0.3065 
 s8 scaling factor         :     0.9147 
 a2 scaling factor         :     5.0570 
 ad hoc parameters k1-k3   :    16.0000     1.3333    -4.0000 

 Edisp/kcal,au: -7.570171273839  -0.012063834538 
 E6   /kcal   :  -3.969414973 
 E8   /kcal   :  -3.600756301 
 % E8         :  47.565057257 

-------------------------   ----------------
Dispersion correction           -0.012063835
-------------------------   ----------------


-------------------------   --------------------
FINAL SINGLE POINT ENERGY     -2633.309659575382
-------------------------   --------------------


                            ***************************************
                            *     ORCA property calculations      *
                            ***************************************


  WARNING: The energy has been calculated at the MP2 level but the densities
           used in the property calculations are still SCF densities
           MP2 response densities have not been calculated 
           use %mp2 Density relaxed end
           or  %mp2 Density unrelaxed end

                                    ---------------------
                                    Active property flags
                                    ---------------------
   (+) Dipole Moment


------------------------------------------------------------------------------
                       ORCA ELECTRIC PROPERTIES CALCULATION
------------------------------------------------------------------------------

Dipole Moment Calculation                       ... on
Quadrupole Moment Calculation                   ... off
Polarizability Calculation                      ... off
GBWName                                         ... MOR23_phseh.gbw
Electron density file                           ... MOR23_phseh.scfp
The origin for moment calculation is the CENTER OF MASS  = (-0.334289, -0.022529 -0.000000)

-------------
DIPOLE MOMENT
-------------
                                X             Y             Z
Electronic contribution:    -25.02687      -1.50412      -0.00003
Nuclear contribution   :     25.40592       1.71219       0.00003
                        -----------------------------------------
Total Dipole Moment    :      0.37905       0.20808       0.00000
                        -----------------------------------------
Magnitude (a.u.)       :      0.43240
Magnitude (Debye)      :      1.09909



--------------------
Rotational spectrum 
--------------------
 
Rotational constants in cm-1:     0.185431     0.032154     0.027403 
Rotational constants in MHz :  5559.086830   963.964760   821.511792 

 Dipole components along the rotational axes: 
x,y,z [a.u.] :     0.380619    -0.205191     0.000000 
x,y,z [Debye]:     0.967456    -0.521554     0.000001 

 

Timings for individual modules:

Sum of individual times         ...       12.959 sec (=   0.216 min)
GTO integral calculation        ...        0.743 sec (=   0.012 min)   5.7 %
SCF iterations                  ...       11.092 sec (=   0.185 min)  85.6 %
MP2 module                      ...        1.124 sec (=   0.019 min)   8.7 %
                             ****ORCA TERMINATED NORMALLY****
TOTAL RUN TIME: 0 days 0 hours 0 minutes 13 seconds 472 msec
