
                                 *****************
                                 * O   R   C   A *
                                 *****************

           --- An Ab Initio, DFT and Semiempirical electronic structure package ---

                  #######################################################
                  #                        -***-                        #
                  #          Department of theory and spectroscopy      #
                  #               Directorship: Frank Neese             #
                  #        Max Planck Institute fuer Kohlenforschung    #
                  #                Kaiser Wilhelm Platz 1               #
                  #                 D-45470 Muelheim/Ruhr               #
                  #                      Germany                        #
                  #                                                     #
                  #                  All rights reserved                #
                  #                        -***-                        #
                  #######################################################


                         Program Version 4.2.0 -  RELEASE  -


 With contributions from (in alphabetic order):
   Daniel Aravena         : Magnetic Suceptibility
   Michael Atanasov       : Ab Initio Ligand Field Theory (pilot matlab implementation)
   Alexander A. Auer      : GIAO ZORA, VPT2
   Ute Becker             : Parallelization
   Giovanni Bistoni       : ED, misc. LED, open-shell LED, HFLED
   Martin Brehm           : Molecular dynamics
   Dmytro Bykov           : SCF Hessian
   Vijay G. Chilkuri      : MRCI spin determinant printing, contributions to CSF-ICE
   Dipayan Datta          : RHF DLPNO-CCSD density
   Achintya Kumar Dutta   : EOM-CC, STEOM-CC
   Dmitry Ganyushin       : Spin-Orbit,Spin-Spin,Magnetic field MRCI
   Miquel Garcia          : C-PCM Hessian, Gaussian charge scheme
   Yang Guo               : DLPNO-NEVPT2, CIM, IAO-localization
   Andreas Hansen         : Spin unrestricted coupled pair/coupled cluster methods
   Benjamin Helmich-Paris : CASSCF linear response (MC-RPA)
   Lee Huntington         : MR-EOM, pCC
   Robert Izsak           : Overlap fitted RIJCOSX, COSX-SCS-MP3, EOM
   Christian Kollmar      : KDIIS, OOCD, Brueckner-CCSD(T), CCSD density
   Simone Kossmann        : Meta GGA functionals, TD-DFT gradient, OOMP2, MP2 Hessian
   Martin Krupicka        : AUTO-CI
   Lucas Lang             : DCDCAS
   Dagmar Lenk            : GEPOL surface, SMD
   Dimitrios Liakos       : Extrapolation schemes; Compound Job, initial MDCI parallelization
   Dimitrios Manganas     : Further ROCIS development; embedding schemes
   Dimitrios Pantazis     : SARC Basis sets
   Taras Petrenko         : DFT Hessian,TD-DFT gradient, ASA, ECA, R-Raman, ABS, FL, XAS/XES, NRVS
   Peter Pinski           : DLPNO-MP2, DLPNO-MP2 Gradient
   Christoph Reimann      : Effective Core Potentials
   Marius Retegan         : Local ZFS, SOC
   Christoph Riplinger    : Optimizer, TS searches, QM/MM, DLPNO-CCSD(T), (RO)-DLPNO pert. Triples
   Tobias Risthaus        : Range-separated hybrids, TD-DFT gradient, RPA, STAB
   Michael Roemelt        : Original ROCIS implementation
   Masaaki Saitow         : Open-shell DLPNO-CCSD energy and density
   Barbara Sandhoefer     : DKH picture change effects
   Avijit Sen             : IP-ROCIS
   Kantharuban Sivalingam : CASSCF convergence, NEVPT2, FIC-MRCI
   Bernardo de Souza      : ESD, SOC TD-DFT
   Georgi Stoychev        : AutoAux, RI-MP2 NMR
   Willem Van den Heuvel  : Paramagnetic NMR
   Boris Wezisla          : Elementary symmetry handling
   Frank Wennmohs         : Technical directorship


 We gratefully acknowledge several colleagues who have allowed us to
 interface, adapt or use parts of their codes:
   Stefan Grimme, W. Hujo, H. Kruse,             : VdW corrections, initial TS optimization,
                  C. Bannwarth                     DFT functionals, gCP, sTDA/sTD-DF
   Ed Valeev, F. Pavosevic, A. Kumar             : LibInt (2-el integral package), F12 methods
   Garnet Chan, S. Sharma, J. Yang, R. Olivares  : DMRG
   Ulf Ekstrom                                   : XCFun DFT Library
   Mihaly Kallay                                 : mrcc  (arbitrary order and MRCC methods)
   Andreas Klamt, Michael Diedenhofen            : otool_cosmo (COSMO solvation model)
   Jiri Pittner, Ondrej Demel                    : Mk-CCSD
   Frank Weinhold                                : gennbo (NPA and NBO analysis)
   Christopher J. Cramer and Donald G. Truhlar   : smd solvation model
   Lars Goerigk                                  : TD-DFT with DH, B97 family of functionals
   V. Asgeirsson, H. Jonsson                     : NEB implementation
   FAccTs GmbH                                   : IRC, NEB, NEB-TS, Multilevel, MM, QM/MM, CI optimization
   S Lehtola, MJT Oliveira, MAL Marques          : LibXC Library


 Your calculation uses the libint2 library for the computation of 2-el integrals
 For citations please refer to: http://libint.valeyev.net

 Your ORCA version has been built with support for libXC version: 4.2.3
 For citations please refer to: https://tddft.org/programs/libxc/

 This ORCA versions uses:
   CBLAS   interface :  Fast vector & matrix operations
   LAPACKE interface :  Fast linear algebra routines
   SCALAPACK package :  Parallel linear algebra routines


Your calculation utilizes the atom-pairwise dispersion correction
with the Becke-Johnson damping scheme (D3BJ)
Cite in your paper:
S.Grimme, S.Ehrlich, L.Goerigk, J Comput Chem, (2011), 32, 1456–1465 
S.Grimme, J.Antony, S.Ehrlich and H.Krieg, J.Chem.Phys., 132, (2010), 154104 
   

----- Orbital basis set information -----
Your calculation utilizes the basis: def2-TZVPPD
   F. Weigend and R. Ahlrichs, Phys. Chem. Chem. Phys. 7, 3297 (2005).
   D. Rappoport and F. Furche, J. Chem. Phys. 133 134105 (2010).

----- AuxC basis set information -----
Your calculation utilizes the auxiliary basis: def2-TZVPPD/C
   A. Hellweg, C. Hattig, S. Hofener and W. Klopper, Theor. Chem. Acc. 117, 587 (2007).

----- AuxJK basis set information -----
Your calculation utilizes the auxiliary basis: def2/JK
   H-Ba, Hf-Rn: F. Weigend, J. Comput. Chem. 29, 167 (2008).

cite the ECPs for W  [Def2-ECP] as follows:
Ce-Yb(ecp-28): M. Dolg, H. Stoll, H.Preuss, J. Chem. Phys., 1989, 90, 1730-1734.
Y-Cd(ecp-28), Hf-Hg(ecp-46): D. Andrae,U. Haeussermann, M. Dolg, H. Stoll, H. Preuss, Theor. Chim. Acta, 1990, 77, 123-141.
In-Sb(ecp-28), Tl-Bi(ecp-46): B. Metz, H. Stoll, M. Dolg, J. Chem. Phys., 2000, 113, 2563-2569.
Te-Xe(ecp-28), Po-Rn(ecp-46): K. A. Peterson, D. Figgen, E. Goll, H. Stoll, M. Dolg, J. Chem. Phys., 2003, 119, 11113-11123.
Rb(ecp-28), Cs(ecp-46): T. Leininger, A. Nicklass, W. Kuechle, H. Stoll, M. Dolg, A. Bergner, Chem. Phys. Lett., 1996, 255, 274-280.
Sr(ecp-28), Ba(ecp-46): M. Kaupp, P. V. Schleyer, H. Stoll and H. Preuss, J. Chem. Phys., 1991, 94, 1360-1366.
La(ecp-46): M. Dolg, H. Stoll, A. Savin, H. Preuss, Theor. Chim. Acta, 1989, 75, 173-194.
Lu(ecp-28): X. Cao, M. Dolg, J. Chem. Phys., 2001, 115, 7348-7355.

ECP parameters for W  [Def2-ECP] have been obtained from:
TURBOMOLE (7.0.2)

================================================================================
                                        WARNINGS
                       Please study these warnings very carefully!
================================================================================


WARNING: No MP2 level density has been requested!
         To caclulate MP2 level properties use
         %mp2 Density relaxed end
         or
         %mp2 Density unrelaxed end
         Otherwise for double-hybrid DFT only the energy is correct!

WARNING: The frozen-core approximation is turned on by default for 
         the MP2 part of double-hybrid DFT.

INFO   : the flag for use of LIBINT has been found!

================================================================================
                                       INPUT FILE
================================================================================
NAME = MOR27_pr07.in
|  1> #
|  2> # MOR27_pr07 ri-B2PLYP-D3BJ/Def2-TZVPPD
|  3> #
|  4> ! rijk ri-b2plyp d3bj def2-tzvppd def2/jk def2-tzvppd/c grid4 nofinalgrid
|  5> 
|  6> *xyz 0 1
|  7> W        0.000153   -0.023654    0.145460 
|  8> C       -0.000249    1.935753    0.684175 
|  9> O       -0.000602    3.038332    1.069126 
| 10> C        0.000042    0.319115   -1.817511 
| 11> O        0.000023    0.516387   -2.971186 
| 12> C        0.000186   -2.057627    0.000209 
| 13> O        0.000001   -3.223688    0.015338 
| 14> H       -0.422672   -0.342863    1.975704 
| 15> H        0.423087   -0.343070    1.976292 
| 16> P        2.499044    0.051189    0.053466 
| 17> C        3.398497   -0.579400    1.568536 
| 18> H        4.468576   -0.564735    1.332934 
| 19> C        3.357030   -0.829661   -1.379272 
| 20> H        3.371948   -0.051400   -2.154068 
| 21> C        3.157630    1.804169   -0.095931 
| 22> H        2.704128    2.295578    0.773940 
| 23> C       -3.158190    1.803853   -0.098051 
| 24> P       -2.499342    0.051185    0.053494 
| 25> H       -4.468329   -0.563916    1.334439 
| 26> H       -2.705915    2.296277    0.771888 
| 27> C       -3.357947   -0.831337   -1.377937 
| 28> H       -3.374541   -0.053484   -2.153122 
| 29> C        4.805704   -1.269244   -1.108536 
| 30> H        5.254950   -1.620204   -2.045252 
| 31> H        4.835898   -2.103732   -0.400453 
| 32> H        5.434431   -0.467933   -0.716341 
| 33> C        2.560788   -2.016752   -1.935473 
| 34> H        3.061937   -2.400142   -2.832615 
| 35> H        1.542966   -1.732188   -2.204810 
| 36> H        2.502084   -2.833493   -1.209948 
| 37> C        4.680481    1.979802   -0.012340 
| 38> H        4.916239    3.046506    0.083978 
| 39> H        5.169829    1.620688   -0.922848 
| 40> H        5.123446    1.463622    0.844533 
| 41> C        2.617881    2.501599   -1.352306 
| 42> H        2.906367    3.558914   -1.336615 
| 43> H        1.529775    2.443192   -1.410983 
| 44> H        3.032951    2.058398   -2.264167 
| 45> C        3.156179    0.325190    2.783070 
| 46> H        3.624905   -0.113517    3.671755 
| 47> H        2.084721    0.431553    2.987984 
| 48> H        3.570907    1.327076    2.642068 
| 49> C        2.983676   -2.024266    1.875196 
| 50> H        3.139448   -2.690345    1.021876 
| 51> H        1.922767   -2.073885    2.140278 
| 52> H        3.565975   -2.409562    2.720613 
| 53> C       -4.681242    1.978525   -0.016373 
| 54> H       -5.169268    1.617830   -0.926977 
| 55> H       -4.917927    3.045167    0.078302 
| 56> H       -5.124772    1.463082    0.840662 
| 57> C       -2.617453    2.500423   -1.354472 
| 58> H       -3.030239    2.055355   -2.266464 
| 59> C       -2.982294   -2.021525    1.878658 
| 60> H       -1.529170    2.443643   -1.411239 
| 61> H       -2.907637    3.557302   -1.340680 
| 62> C       -3.156106    0.329464    2.782654 
| 63> H       -1.921474   -2.069894    2.144316 
| 64> H       -3.564665   -2.406148    2.724324 
| 65> H       -3.137027   -2.688908    1.026165 
| 66> C       -3.398186   -0.577432    1.569777 
| 67> H       -3.622276   -0.109074    3.672772 
| 68> H       -3.573608    1.330095    2.640827 
| 69> H       -2.084555    0.438855    2.985621 
| 70> C       -4.805869   -1.272290   -1.105425 
| 71> H       -5.255612   -1.624537   -2.041419 
| 72> H       -5.435110   -0.471325   -0.713333 
| 73> H       -4.834472   -2.106207   -0.396602 
| 74> C       -2.561058   -2.017888   -1.934324 
| 75> H       -2.500954   -2.834229   -1.208460 
| 76> H       -1.543733   -1.732464   -2.204653 
| 77> H       -3.062606   -2.402180   -2.830854 
| 78> *
| 79> 
| 80> %maxcore 5000
| 81> 
| 82> %pal
| 83> nprocs = 24
| 84> end
| 85> 
| 86> 
| 87>                          ****END OF INPUT****
================================================================================

                       ****************************
                       * Single Point Calculation *
                       ****************************

---------------------------------
CARTESIAN COORDINATES (ANGSTROEM)
---------------------------------
  W      0.000153   -0.023654    0.145460
  C     -0.000249    1.935753    0.684175
  O     -0.000602    3.038332    1.069126
  C      0.000042    0.319115   -1.817511
  O      0.000023    0.516387   -2.971186
  C      0.000186   -2.057627    0.000209
  O      0.000001   -3.223688    0.015338
  H     -0.422672   -0.342863    1.975704
  H      0.423087   -0.343070    1.976292
  P      2.499044    0.051189    0.053466
  C      3.398497   -0.579400    1.568536
  H      4.468576   -0.564735    1.332934
  C      3.357030   -0.829661   -1.379272
  H      3.371948   -0.051400   -2.154068
  C      3.157630    1.804169   -0.095931
  H      2.704128    2.295578    0.773940
  C     -3.158190    1.803853   -0.098051
  P     -2.499342    0.051185    0.053494
  H     -4.468329   -0.563916    1.334439
  H     -2.705915    2.296277    0.771888
  C     -3.357947   -0.831337   -1.377937
  H     -3.374541   -0.053484   -2.153122
  C      4.805704   -1.269244   -1.108536
  H      5.254950   -1.620204   -2.045252
  H      4.835898   -2.103732   -0.400453
  H      5.434431   -0.467933   -0.716341
  C      2.560788   -2.016752   -1.935473
  H      3.061937   -2.400142   -2.832615
  H      1.542966   -1.732188   -2.204810
  H      2.502084   -2.833493   -1.209948
  C      4.680481    1.979802   -0.012340
  H      4.916239    3.046506    0.083978
  H      5.169829    1.620688   -0.922848
  H      5.123446    1.463622    0.844533
  C      2.617881    2.501599   -1.352306
  H      2.906367    3.558914   -1.336615
  H      1.529775    2.443192   -1.410983
  H      3.032951    2.058398   -2.264167
  C      3.156179    0.325190    2.783070
  H      3.624905   -0.113517    3.671755
  H      2.084721    0.431553    2.987984
  H      3.570907    1.327076    2.642068
  C      2.983676   -2.024266    1.875196
  H      3.139448   -2.690345    1.021876
  H      1.922767   -2.073885    2.140278
  H      3.565975   -2.409562    2.720613
  C     -4.681242    1.978525   -0.016373
  H     -5.169268    1.617830   -0.926977
  H     -4.917927    3.045167    0.078302
  H     -5.124772    1.463082    0.840662
  C     -2.617453    2.500423   -1.354472
  H     -3.030239    2.055355   -2.266464
  C     -2.982294   -2.021525    1.878658
  H     -1.529170    2.443643   -1.411239
  H     -2.907637    3.557302   -1.340680
  C     -3.156106    0.329464    2.782654
  H     -1.921474   -2.069894    2.144316
  H     -3.564665   -2.406148    2.724324
  H     -3.137027   -2.688908    1.026165
  C     -3.398186   -0.577432    1.569777
  H     -3.622276   -0.109074    3.672772
  H     -3.573608    1.330095    2.640827
  H     -2.084555    0.438855    2.985621
  C     -4.805869   -1.272290   -1.105425
  H     -5.255612   -1.624537   -2.041419
  H     -5.435110   -0.471325   -0.713333
  H     -4.834472   -2.106207   -0.396602
  C     -2.561058   -2.017888   -1.934324
  H     -2.500954   -2.834229   -1.208460
  H     -1.543733   -1.732464   -2.204653
  H     -3.062606   -2.402180   -2.830854

----------------------------
CARTESIAN COORDINATES (A.U.)
----------------------------
  NO LB      ZA    FRAG     MASS         X           Y           Z
   0 W    14.0000*   0   183.850    0.000289   -0.044700    0.274880
   1 C     6.0000    0    12.011   -0.000471    3.658043    1.292903
   2 O     8.0000    0    15.999   -0.001138    5.741615    2.020355
   3 C     6.0000    0    12.011    0.000079    0.603040   -3.434598
   4 O     8.0000    0    15.999    0.000043    0.975830   -5.614728
   5 C     6.0000    0    12.011    0.000351   -3.888352    0.000395
   6 O     8.0000    0    15.999    0.000002   -6.091887    0.028985
   7 H     1.0000    0     1.008   -0.798734   -0.647917    3.733539
   8 H     1.0000    0     1.008    0.799519   -0.648308    3.734651
   9 P    15.0000    0    30.974    4.722509    0.096733    0.101036
  10 C     6.0000    0    12.011    6.422229   -1.094907    2.964103
  11 H     1.0000    0     1.008    8.444385   -1.067194    2.518880
  12 C     6.0000    0    12.011    6.343867   -1.567832   -2.606446
  13 H     1.0000    0     1.008    6.372058   -0.097132   -4.070599
  14 C     6.0000    0    12.011    5.967056    3.409385   -0.181283
  15 H     1.0000    0     1.008    5.110061    4.338014    1.462535
  16 C     6.0000    0    12.011   -5.968114    3.408788   -0.185290
  17 P    15.0000    0    30.974   -4.723072    0.096726    0.101089
  18 H     1.0000    0     1.008   -8.443918   -1.065647    2.521724
  19 H     1.0000    0     1.008   -5.113438    4.339335    1.458657
  20 C     6.0000    0    12.011   -6.345600   -1.570999   -2.603924
  21 H     1.0000    0     1.008   -6.376958   -0.101070   -4.068811
  22 C     6.0000    0    12.011    9.081464   -2.398524   -2.094829
  23 H     1.0000    0     1.008    9.930416   -3.061742   -3.864966
  24 H     1.0000    0     1.008    9.138523   -3.975477   -0.756746
  25 H     1.0000    0     1.008   10.269586   -0.884265   -1.353688
  26 C     6.0000    0    12.011    4.839188   -3.811109   -3.657514
  27 H     1.0000    0     1.008    5.786222   -4.535611   -5.352867
  28 H     1.0000    0     1.008    2.915783   -3.273361   -4.166487
  29 H     1.0000    0     1.008    4.728254   -5.354526   -2.286470
  30 C     6.0000    0    12.011    8.844827    3.741284   -0.023319
  31 H     1.0000    0     1.008    9.290345    5.757062    0.158695
  32 H     1.0000    0     1.008    9.769561    3.062656   -1.743930
  33 H     1.0000    0     1.008    9.681910    2.765845    1.595936
  34 C     6.0000    0    12.011    4.947078    4.727337   -2.555488
  35 H     1.0000    0     1.008    5.492238    6.725373   -2.525836
  36 H     1.0000    0     1.008    2.890856    4.616964   -2.666371
  37 H     1.0000    0     1.008    5.731447    3.889808   -4.278656
  38 C     6.0000    0    12.011    5.964314    0.614520    5.259240
  39 H     1.0000    0     1.008    6.850078   -0.214516    6.938611
  40 H     1.0000    0     1.008    3.939552    0.815517    5.646471
  41 H     1.0000    0     1.008    6.748036    2.507810    4.992785
  42 C     6.0000    0    12.011    5.638331   -3.825308    3.543607
  43 H     1.0000    0     1.008    5.932697   -5.084015    1.931066
  44 H     1.0000    0     1.008    3.633503   -3.919075    4.044539
  45 H     1.0000    0     1.008    6.738716   -4.553412    5.141213
  46 C     6.0000    0    12.011   -8.846265    3.738870   -0.030940
  47 H     1.0000    0     1.008   -9.768501    3.057256   -1.751733
  48 H     1.0000    0     1.008   -9.293535    5.754532    0.147969
  49 H     1.0000    0     1.008   -9.684416    2.764824    1.588621
  50 C     6.0000    0    12.011   -4.946269    4.725115   -2.559581
  51 H     1.0000    0     1.008   -5.726322    3.884058   -4.282996
  52 C     6.0000    0    12.011   -5.635719   -3.820129    3.550149
  53 H     1.0000    0     1.008   -2.889713    4.617816   -2.666855
  54 H     1.0000    0     1.008   -5.494638    6.722327   -2.533518
  55 C     6.0000    0    12.011   -5.964176    0.622597    5.258454
  56 H     1.0000    0     1.008   -3.631060   -3.911533    4.052170
  57 H     1.0000    0     1.008   -6.736241   -4.546961    5.148226
  58 H     1.0000    0     1.008   -5.928122   -5.081300    1.939171
  59 C     6.0000    0    12.011   -6.421641   -1.091188    2.966449
  60 H     1.0000    0     1.008   -6.845110   -0.206120    6.940533
  61 H     1.0000    0     1.008   -6.753140    2.513515    4.990440
  62 H     1.0000    0     1.008   -3.939238    0.829316    5.642006
  63 C     6.0000    0    12.011   -9.081776   -2.404280   -2.088951
  64 H     1.0000    0     1.008   -9.931667   -3.069930   -3.857723
  65 H     1.0000    0     1.008  -10.270869   -0.890675   -1.348004
  66 H     1.0000    0     1.008   -9.135828   -3.980154   -0.749469
  67 C     6.0000    0    12.011   -4.839698   -3.813256   -3.655343
  68 H     1.0000    0     1.008   -4.726118   -5.355917   -2.283658
  69 H     1.0000    0     1.008   -2.917233   -3.273882   -4.166190
  70 H     1.0000    0     1.008   -5.787487   -4.539462   -5.349539
* core charge reduced due to ECP

--------------------------------
INTERNAL COORDINATES (ANGSTROEM)
--------------------------------
 W      0   0   0     0.000000000000     0.00000000     0.00000000
 C      1   0   0     2.032114614011     0.00000000     0.00000000
 O      2   1   0     1.167847527827   176.12695361     0.00000000
 C      1   2   3     1.992673015455    95.46795865   179.90673272
 O      4   1   2     1.170419688817   179.79842263   179.36888095
 C      1   2   3     2.039152769858   168.71175659   359.96307101
 O      6   1   4     1.166159155770   175.17195220   180.12208585
 H      1   2   3     1.905378824760    84.65488871    12.78820627
 H      8   1   2     0.845759229730    77.22033622   271.20127895
 P      1   2   3     2.501703539704    88.91702327   267.42385996
 C     10   1   2     1.871388599685   116.11931385    97.59800221
 H     11  10   1     1.095806748870   106.90430450   174.92789343
 C     10   1   2     1.888061141844   117.89569084   221.68198217
 H     13  10   1     1.098281190070   102.17569383    87.48111569
 C     10   1   2     1.878561647486   112.39731721   340.50601814
 H     15  10   1     1.097188418607   102.12136808    55.75901036
 C      2   1   8     3.256050749690    84.11367562   270.04630198
 P     17   2   1     1.878534453331    71.23168968    14.63070955
 H     18  17   2     2.428184329781    89.68503939   134.89033559
 H     17   2   1     1.097190929201    52.52240542   137.33329334
 C     18  17   2     1.888131969506   102.44139236   219.69669178
 H     21  18  17     1.098290687692   102.17657154    36.38416016
 C     13  10   1     1.537916627734   115.32934135   204.70377640
 H     23  13  10     1.096554492386   109.08781085   188.92905689
 H     23  13  10     1.094834889227   110.95860763    70.93687815
 H     23  13  10     1.091427449387   113.33071289   309.04925218
 C     13  10   1     1.533801133539   113.60000070   332.08916706
 H     27  13  10     1.096814469482   109.26577274   173.39965486
 H     27  13  10     1.090633170846   111.84446985    53.37868811
 H     27  13  10     1.094028585697   111.41758129   292.43201710
 C     15  10   1     1.535222972135   116.75517019   173.77839287
 H     31  15  10     1.096684282419   109.22616728   190.95243586
 H     31  15  10     1.094280196368   111.14533077    72.84220168
 H     31  15  10     1.094025192468   112.97320956   310.72027190
 C     15  10   1     1.534996979973   111.45666289   301.29082590
 H     35  15  10     1.096077273235   109.51291915   172.18802793
 H     35  15  10     1.091251132973   111.73457190    52.13130152
 H     35  15  10     1.095536724452   111.36014143   291.07799210
 C     11  10   1     1.533653780480   111.49666476   293.31314975
 H     39  11  10     1.096325190876   109.77679201   175.29027307
 H     39  11  10     1.096049762068   111.08476369    56.19415684
 H     39  11  10     1.093460760606   112.23369370   295.40588000
 C     11  10   1     1.534195090462   110.43916909    56.90985513
 H     43  11  10     1.093654960499   112.27846079    55.55898038
 H     43  11  10     1.094649906667   110.67965886   295.52882988
 H     43  11  10     1.096473910727   109.96589117   176.05646846
 C     17   2   1     1.535209756995   160.87348702   132.66885847
 H     47  17   2     1.094289680348   111.14122654   176.53460485
 H     47  17   2     1.096680582947   109.23018641    58.42220314
 H     47  17   2     1.094033517939   112.97132106   298.65101627
 C     17   2   1     1.534991855780    80.59555038   258.01765560
 H     51  17   2     1.095539690967   111.36425845   134.27614295
 C     19  18  17     2.151533950015    75.22538980   202.49894752
 H     51  17   2     1.091240738232   111.73329129    13.22474199
 H     51  17   2     1.096079465076   109.51182743   253.16835953
 C     19  18  17     2.148809836247    75.81989765   277.15145153
 H     53  19  18     1.094647342995   139.52281223    43.85373412
 H     53  19  18     1.096467882487    93.77779681   167.84872793
 H     53  19  18     1.093657480671    96.80717303   276.67909687
 C     19  18  17     1.095797744545    47.50819988   240.09397802
 H     56  19  18     1.096330287946    96.96279791   200.03695724
 H     56  19  18     1.093473921085    93.43277627    91.42361734
 H     56  19  18     1.096076429621   139.75642691   328.37731708
 C     21  18  17     1.537914320252   115.32851157   279.16353733
 H     64  21  18     1.096554368508   109.08652169   171.09091715
 H     64  21  18     1.091432684030   113.33043340    50.97279523
 H     64  21  18     1.094835941969   110.95950598   289.08337213
 C     21  18  17     1.533786767348   113.59927790   151.77969178
 H     68  21  18     1.094030925337   111.41460423    67.57916882
 H     68  21  18     1.090639621342   111.84446575   306.63449204
 H     68  21  18     1.096812098068   109.26771362   186.61109645

---------------------------
INTERNAL COORDINATES (A.U.)
---------------------------
 W      0   0   0     0.000000000000     0.00000000     0.00000000
 C      1   0   0     3.840140093220     0.00000000     0.00000000
 O      2   1   0     2.206911993769   176.12695361     0.00000000
 C      1   2   3     3.765606273665    95.46795865   179.90673272
 O      4   1   2     2.211772673613   179.79842263   179.36888095
 C      1   2   3     3.853440280258   168.71175659   359.96307101
 O      6   1   4     2.203721432971   175.17195220   180.12208585
 H      1   2   3     3.600644160168    84.65488871    12.78820627
 H      8   1   2     1.598253319426    77.22033622   271.20127895
 P      1   2   3     4.727534558301    88.91702327   267.42385996
 C     10   1   2     3.536411943547   116.11931385    97.59800221
 H     11  10   1     2.070774651068   106.90430450   174.92789343
 C     10   1   2     3.567918482183   117.89569084   221.68198217
 H     13  10   1     2.075450667269   102.17569383    87.48111569
 C     10   1   2     3.549967039436   112.39731721   340.50601814
 H     15  10   1     2.073385628478   102.12136808    55.75901036
 C      2   1   8     6.153044195063    84.11367562   270.04630198
 P     17   2   1     3.549915649932    71.23168968    14.63070955
 H     18  17   2     4.588603385966    89.68503939   134.89033559
 H     17   2   1     2.073390372813    52.52240542   137.33329334
 C     18  17   2     3.568052327067   102.44139236   219.69669178
 H     21  18  17     2.075468615173   102.17657154    36.38416016
 C     13  10   1     2.906241243221   115.32934135   204.70377640
 H     23  13  10     2.072187681531   109.08781085   188.92905689
 H     23  13  10     2.068938102501   110.95860763    70.93687815
 H     23  13  10     2.062498974385   113.33071289   309.04925218
 C     13  10   1     2.898464086287   113.60000070   332.08916706
 H     27  13  10     2.072678967043   109.26577274   173.39965486
 H     27  13  10     2.060998005469   111.84446985    53.37868811
 H     27  13  10     2.067414409648   111.41758129   292.43201710
 C     15  10   1     2.901150971840   116.75517019   173.77839287
 H     31  15  10     2.072432949147   109.22616728   190.95243586
 H     31  15  10     2.067889884910   111.14533077    72.84220168
 H     31  15  10     2.067407997374   112.97320956   310.72027190
 C     15  10   1     2.900723908545   111.45666289   301.29082590
 H     35  15  10     2.071285868029   109.51291915   172.18802793
 H     35  15  10     2.062165784650   111.73457190    52.13130152
 H     35  15  10     2.070264378867   111.36014143   291.07799210
 C     11  10   1     2.898185629360   111.49666476   293.31314975
 H     39  11  10     2.071754364475   109.77679201   175.29027307
 H     39  11  10     2.071233879458   111.08476369    56.19415684
 H     39  11  10     2.066341375734   112.23369370   295.40588000
 C     11  10   1     2.899208556979   110.43916909    56.90985513
 H     43  11  10     2.066708360348   112.27846079    55.55898038
 H     43  11  10     2.068588536123   110.67965886   295.52882988
 H     43  11  10     2.072035404265   109.96589117   176.05646846
 C     17   2   1     2.901125998844   160.87348702   132.66885847
 H     47  17   2     2.067907807035   111.14122654   176.53460485
 H     47  17   2     2.072425958160   109.23018641    58.42220314
 H     47  17   2     2.067423730235   112.97132106   298.65101627
 C     17   2   1     2.900714225223    80.59555038   258.01765560
 H     51  17   2     2.070269984768   111.36425845   134.27614295
 C     19  18  17     4.065809933362    75.22538980   202.49894752
 H     51  17   2     2.062146141437   111.73329129    13.22474199
 H     51  17   2     2.071290010008   109.51182743   253.16835953
 C     19  18  17     4.060662104384    75.81989765   277.15145153
 H     53  19  18     2.068583691484   139.52281223    43.85373412
 H     53  19  18     2.072024012541    93.77779681   167.84872793
 H     53  19  18     2.066713122782    96.80717303   276.67909687
 C     19  18  17     2.070757635358    47.50819988   240.09397802
 H     56  19  18     2.071763996541    96.96279791   200.03695724
 H     56  19  18     2.066366245437    93.43277627    91.42361734
 H     56  19  18     2.071284273830   139.75642691   328.37731708
 C     21  18  17     2.906236882712   115.32851157   279.16353733
 H     64  21  18     2.072187447435   109.08652169   171.09091715
 H     64  21  18     2.062508866428   113.33043340    50.97279523
 H     64  21  18     2.068940091895   110.95950598   289.08337213
 C     21  18  17     2.898436938120   113.59927790   151.77969178
 H     68  21  18     2.067418830927   111.41460423    67.57916882
 H     68  21  18     2.061010195141   111.84446575   306.63449204
 H     68  21  18     2.072674485720   109.26771362   186.61109645

---------------------
BASIS SET INFORMATION
---------------------
There are 5 groups of distinct atoms

 Group   1 Type W   : 8s8p6d2f1g contracted to 6s5p3d2f1g pattern {311111/41111/411/11/1}
 Group   2 Type C   : 12s6p3d1f contracted to 6s3p3d1f pattern {621111/411/111/1}
 Group   3 Type O   : 12s7p3d1f contracted to 6s4p3d1f pattern {621111/4111/111/1}
 Group   4 Type H   : 5s3p1d contracted to 3s3p1d pattern {311/111/1}
 Group   5 Type P   : 15s9p4d1f contracted to 6s5p4d1f pattern {732111/51111/1111/1}

Atom   0W    basis set group =>   1
Atom   1C    basis set group =>   2
Atom   2O    basis set group =>   3
Atom   3C    basis set group =>   2
Atom   4O    basis set group =>   3
Atom   5C    basis set group =>   2
Atom   6O    basis set group =>   3
Atom   7H    basis set group =>   4
Atom   8H    basis set group =>   4
Atom   9P    basis set group =>   5
Atom  10C    basis set group =>   2
Atom  11H    basis set group =>   4
Atom  12C    basis set group =>   2
Atom  13H    basis set group =>   4
Atom  14C    basis set group =>   2
Atom  15H    basis set group =>   4
Atom  16C    basis set group =>   2
Atom  17P    basis set group =>   5
Atom  18H    basis set group =>   4
Atom  19H    basis set group =>   4
Atom  20C    basis set group =>   2
Atom  21H    basis set group =>   4
Atom  22C    basis set group =>   2
Atom  23H    basis set group =>   4
Atom  24H    basis set group =>   4
Atom  25H    basis set group =>   4
Atom  26C    basis set group =>   2
Atom  27H    basis set group =>   4
Atom  28H    basis set group =>   4
Atom  29H    basis set group =>   4
Atom  30C    basis set group =>   2
Atom  31H    basis set group =>   4
Atom  32H    basis set group =>   4
Atom  33H    basis set group =>   4
Atom  34C    basis set group =>   2
Atom  35H    basis set group =>   4
Atom  36H    basis set group =>   4
Atom  37H    basis set group =>   4
Atom  38C    basis set group =>   2
Atom  39H    basis set group =>   4
Atom  40H    basis set group =>   4
Atom  41H    basis set group =>   4
Atom  42C    basis set group =>   2
Atom  43H    basis set group =>   4
Atom  44H    basis set group =>   4
Atom  45H    basis set group =>   4
Atom  46C    basis set group =>   2
Atom  47H    basis set group =>   4
Atom  48H    basis set group =>   4
Atom  49H    basis set group =>   4
Atom  50C    basis set group =>   2
Atom  51H    basis set group =>   4
Atom  52C    basis set group =>   2
Atom  53H    basis set group =>   4
Atom  54H    basis set group =>   4
Atom  55C    basis set group =>   2
Atom  56H    basis set group =>   4
Atom  57H    basis set group =>   4
Atom  58H    basis set group =>   4
Atom  59C    basis set group =>   2
Atom  60H    basis set group =>   4
Atom  61H    basis set group =>   4
Atom  62H    basis set group =>   4
Atom  63C    basis set group =>   2
Atom  64H    basis set group =>   4
Atom  65H    basis set group =>   4
Atom  66H    basis set group =>   4
Atom  67C    basis set group =>   2
Atom  68H    basis set group =>   4
Atom  69H    basis set group =>   4
Atom  70H    basis set group =>   4
---------------------------------
AUXILIARY/C BASIS SET INFORMATION
---------------------------------
There are 5 groups of distinct atoms

 Group   1 Type W   : 9s9p8d5f4g3h1i contracted to 9s9p8d5f4g3h1i pattern {111111111/111111111/11111111/11111/1111/111/1}
 Group   2 Type C   : 9s7p6d4f1g contracted to 9s7p5d4f1g pattern {111111111/1111111/21111/1111/1}
 Group   3 Type O   : 9s7p6d4f1g contracted to 9s7p5d4f1g pattern {111111111/1111111/21111/1111/1}
 Group   4 Type H   : 5s4p3d1f contracted to 5s4p3d1f pattern {11111/1111/111/1}
 Group   5 Type P   : 12s9p8d6f2g contracted to 12s9p8d6f2g pattern {111111111111/111111111/11111111/111111/11}

Atom   0W    basis set group =>   1
Atom   1C    basis set group =>   2
Atom   2O    basis set group =>   3
Atom   3C    basis set group =>   2
Atom   4O    basis set group =>   3
Atom   5C    basis set group =>   2
Atom   6O    basis set group =>   3
Atom   7H    basis set group =>   4
Atom   8H    basis set group =>   4
Atom   9P    basis set group =>   5
Atom  10C    basis set group =>   2
Atom  11H    basis set group =>   4
Atom  12C    basis set group =>   2
Atom  13H    basis set group =>   4
Atom  14C    basis set group =>   2
Atom  15H    basis set group =>   4
Atom  16C    basis set group =>   2
Atom  17P    basis set group =>   5
Atom  18H    basis set group =>   4
Atom  19H    basis set group =>   4
Atom  20C    basis set group =>   2
Atom  21H    basis set group =>   4
Atom  22C    basis set group =>   2
Atom  23H    basis set group =>   4
Atom  24H    basis set group =>   4
Atom  25H    basis set group =>   4
Atom  26C    basis set group =>   2
Atom  27H    basis set group =>   4
Atom  28H    basis set group =>   4
Atom  29H    basis set group =>   4
Atom  30C    basis set group =>   2
Atom  31H    basis set group =>   4
Atom  32H    basis set group =>   4
Atom  33H    basis set group =>   4
Atom  34C    basis set group =>   2
Atom  35H    basis set group =>   4
Atom  36H    basis set group =>   4
Atom  37H    basis set group =>   4
Atom  38C    basis set group =>   2
Atom  39H    basis set group =>   4
Atom  40H    basis set group =>   4
Atom  41H    basis set group =>   4
Atom  42C    basis set group =>   2
Atom  43H    basis set group =>   4
Atom  44H    basis set group =>   4
Atom  45H    basis set group =>   4
Atom  46C    basis set group =>   2
Atom  47H    basis set group =>   4
Atom  48H    basis set group =>   4
Atom  49H    basis set group =>   4
Atom  50C    basis set group =>   2
Atom  51H    basis set group =>   4
Atom  52C    basis set group =>   2
Atom  53H    basis set group =>   4
Atom  54H    basis set group =>   4
Atom  55C    basis set group =>   2
Atom  56H    basis set group =>   4
Atom  57H    basis set group =>   4
Atom  58H    basis set group =>   4
Atom  59C    basis set group =>   2
Atom  60H    basis set group =>   4
Atom  61H    basis set group =>   4
Atom  62H    basis set group =>   4
Atom  63C    basis set group =>   2
Atom  64H    basis set group =>   4
Atom  65H    basis set group =>   4
Atom  66H    basis set group =>   4
Atom  67C    basis set group =>   2
Atom  68H    basis set group =>   4
Atom  69H    basis set group =>   4
Atom  70H    basis set group =>   4
----------------------------------
AUXILIARY/JK BASIS SET INFORMATION
----------------------------------
There are 5 groups of distinct atoms

 Group   1 Type W   : 13s12p11d9f5g3h2i contracted to 11s9p9d7f4g3h2i pattern {31111111111/411111111/311111111/3111111/2111/111/11}
 Group   2 Type C   : 14s10p6d2f1g contracted to 10s8p5d1f1g pattern {5111111111/31111111/21111/2/1}
 Group   3 Type O   : 14s10p6d2f1g contracted to 10s8p4d2f1g pattern {5111111111/31111111/3111/11/1}
 Group   4 Type H   : 4s2p2d contracted to 2s2p2d pattern {31/11/11}
 Group   5 Type P   : 16s12p10d4f1g contracted to 13s11p9d4f1g pattern {4111111111111/21111111111/211111111/1111/1}

Atom   0W    basis set group =>   1
Atom   1C    basis set group =>   2
Atom   2O    basis set group =>   3
Atom   3C    basis set group =>   2
Atom   4O    basis set group =>   3
Atom   5C    basis set group =>   2
Atom   6O    basis set group =>   3
Atom   7H    basis set group =>   4
Atom   8H    basis set group =>   4
Atom   9P    basis set group =>   5
Atom  10C    basis set group =>   2
Atom  11H    basis set group =>   4
Atom  12C    basis set group =>   2
Atom  13H    basis set group =>   4
Atom  14C    basis set group =>   2
Atom  15H    basis set group =>   4
Atom  16C    basis set group =>   2
Atom  17P    basis set group =>   5
Atom  18H    basis set group =>   4
Atom  19H    basis set group =>   4
Atom  20C    basis set group =>   2
Atom  21H    basis set group =>   4
Atom  22C    basis set group =>   2
Atom  23H    basis set group =>   4
Atom  24H    basis set group =>   4
Atom  25H    basis set group =>   4
Atom  26C    basis set group =>   2
Atom  27H    basis set group =>   4
Atom  28H    basis set group =>   4
Atom  29H    basis set group =>   4
Atom  30C    basis set group =>   2
Atom  31H    basis set group =>   4
Atom  32H    basis set group =>   4
Atom  33H    basis set group =>   4
Atom  34C    basis set group =>   2
Atom  35H    basis set group =>   4
Atom  36H    basis set group =>   4
Atom  37H    basis set group =>   4
Atom  38C    basis set group =>   2
Atom  39H    basis set group =>   4
Atom  40H    basis set group =>   4
Atom  41H    basis set group =>   4
Atom  42C    basis set group =>   2
Atom  43H    basis set group =>   4
Atom  44H    basis set group =>   4
Atom  45H    basis set group =>   4
Atom  46C    basis set group =>   2
Atom  47H    basis set group =>   4
Atom  48H    basis set group =>   4
Atom  49H    basis set group =>   4
Atom  50C    basis set group =>   2
Atom  51H    basis set group =>   4
Atom  52C    basis set group =>   2
Atom  53H    basis set group =>   4
Atom  54H    basis set group =>   4
Atom  55C    basis set group =>   2
Atom  56H    basis set group =>   4
Atom  57H    basis set group =>   4
Atom  58H    basis set group =>   4
Atom  59C    basis set group =>   2
Atom  60H    basis set group =>   4
Atom  61H    basis set group =>   4
Atom  62H    basis set group =>   4
Atom  63C    basis set group =>   2
Atom  64H    basis set group =>   4
Atom  65H    basis set group =>   4
Atom  66H    basis set group =>   4
Atom  67C    basis set group =>   2
Atom  68H    basis set group =>   4
Atom  69H    basis set group =>   4
Atom  70H    basis set group =>   4
-------------------------
ECP PARAMETER INFORMATION
-------------------------

 Group 1, Type W  ECP Def2-ECP (replacing 60 core electrons, lmax=3)

Atom   0W    ECP group =>   1



           ************************************************************
           *        Program running with 24 parallel MPI-processes    *
           *              working on a common directory               *
           ************************************************************
------------------------------------------------------------------------------
                           ORCA GTO INTEGRAL CALCULATION
                           -- RI-GTO INTEGRALS CHOSEN --
------------------------------------------------------------------------------

                         BASIS SET STATISTICS AND STARTUP INFO

Gaussian basis set:
 # of primitive gaussian shells          ... 1010
 # of primitive gaussian functions       ... 2316
 # of contracted shells                  ...  672
 # of contracted basis functions         ... 1800
 Highest angular momentum                ...    4
 Maximum contraction depth               ...    7
Auxiliary gaussian basis set:
 # of primitive gaussian shells          ... 1285
 # of primitive gaussian functions       ... 3757
 # of contracted shells                  ...  985
 # of contracted aux-basis functions     ... 3081
 Highest angular momentum                ...    6
 Maximum contraction depth               ...    5
Ratio of auxiliary to basis functions    ...  1.71
Integral package used                  ... LIBINT
 One Electron integrals                  
   ECP integrals                         ... done
 Ordering auxiliary basis shells         ... done
 Integral threshhold             Thresh  ...  1.000e-10
 Primitive cut-off               TCut    ...  1.000e-11
 Pre-screening matrix                    ... done
 Shell pair data                         ... 
 Ordering of the shell pairs             ... done (   0.036 sec) 165288 of 226128 pairs
 Determination of significant pairs      ... done (   0.001 sec)
 Creation of shell pair data             ... done (   0.015 sec)
 Storage of shell pair data              ... done (   0.027 sec)
 Shell pair data done in (   0.079 sec)
 Computing two index integrals           ... done
 Cholesky decomposition of the V-matrix  ... done


Timings:
 Total evaluation time                   ...  14.810 sec (  0.247 min)
 One electron matrix time                ...  12.741 sec (  0.212 min) = 86.0%
 Schwartz matrix evaluation time         ...   1.161 sec (  0.019 min) =  7.8%
 Two index repulsion integral time       ...   0.334 sec (  0.006 min) =  2.3%
 Cholesky decomposition of V             ...   0.465 sec (  0.008 min) =  3.1%
 Three index repulsion integral time     ...   0.000 sec (  0.000 min) =  0.0%



           ************************************************************
           *        Program running with 24 parallel MPI-processes    *
           *              working on a common directory               *
           ************************************************************
-------------------------------------------------------------------------------
                                 ORCA SCF
-------------------------------------------------------------------------------

------------
SCF SETTINGS
------------
Hamiltonian:
 Density Functional     Method          .... DFT(GTOs)
 Exchange Functional    Exchange        .... B88
   X-Alpha parameter    XAlpha          ....  0.666667
   Becke's b parameter  XBeta           ....  0.004200
 Correlation Functional Correlation     .... LYP
 LDA part of GGA corr.  LDAOpt          .... VWN-3
 Gradients option       PostSCFGGA      .... off
 Hybrid DFT is turned on
   Fraction HF Exchange ScalHFX         ....  0.530000
   Scaling of DF-GGA-X  ScalDFX         ....  0.470000
   Scaling of DF-GGA-C  ScalDFC         ....  0.730000
   Scaling of DF-LDA-C  ScalLDAC        ....  0.730000
   Perturbative correction              ....  0.270000
   Density functional embedding theory  .... OFF
 RI-approximation to the Coulomb term is turned on
   Number of auxiliary basis functions  .... 3081
   RI-JK (J+K treated both via RI)      .... on


General Settings:
 Integral files         IntName         .... MOR27_pr07
 Hartree-Fock type      HFTyp           .... RHF
 Total Charge           Charge          ....    0
 Multiplicity           Mult            ....    1
 Number of Electrons    NEL             ....  238
 Basis Dimension        Dim             .... 1800
 Nuclear Repulsion      ENuc            ....   3588.6515244369 Eh

Convergence Acceleration:
 DIIS                   CNVDIIS         .... on
   Start iteration      DIISMaxIt       ....    12
   Startup error        DIISStart       ....  0.200000
   # of expansion vecs  DIISMaxEq       ....     5
   Bias factor          DIISBfac        ....   1.050
   Max. coefficient     DIISMaxC        ....  10.000
 Newton-Raphson         CNVNR           .... off
 SOSCF                  CNVSOSCF        .... off
 Level Shifting         CNVShift        .... on
   Level shift para.    LevelShift      ....    0.2500
   Turn off err/grad.   ShiftErr        ....    0.0010
 Zerner damping         CNVZerner       .... off
 Static damping         CNVDamp         .... on
   Fraction old density DampFac         ....    0.7000
   Max. Damping (<1)    DampMax         ....    0.9800
   Min. Damping (>=0)   DampMin         ....    0.0000
   Turn off err/grad.   DampErr         ....    0.1000
 Fernandez-Rico         CNVRico         .... off

SCF Procedure:
 Maximum # iterations   MaxIter         ....   125
 SCF integral mode      SCFMode         .... Direct
   Integral package                     .... LIBINT
 Reset frequency        DirectResetFreq ....    20
 Integral Threshold     Thresh          ....  1.000e-10 Eh
 Primitive CutOff       TCut            ....  1.000e-11 Eh

Convergence Tolerance:
 Convergence Check Mode ConvCheckMode   .... Total+1el-Energy
 Convergence forced     ConvForced      .... 0
 Energy Change          TolE            ....  1.000e-06 Eh
 1-El. energy change                    ....  1.000e-03 Eh
 DIIS Error             TolErr          ....  1.000e-06


Diagonalization of the overlap matrix:
Smallest eigenvalue                        ... 1.479e-07
Time for diagonalization                   ...    0.384 sec
Threshold for overlap eigenvalues          ... 1.000e-08
Number of eigenvalues below threshold      ... 0
Time for construction of square roots      ...    0.436 sec
Total time needed                          ...    0.834 sec

-------------------
DFT GRID GENERATION
-------------------

General Integration Accuracy     IntAcc      ...  4.670
Radial Grid Type                 RadialGrid  ... Gauss-Chebyshev
Angular Grid (max. acc.)         AngularGrid ... Lebedev-302
Angular grid pruning method      GridPruning ... 3 (G Style)
Weight generation scheme         WeightScheme... Becke
Basis function cutoff            BFCut       ...    1.0000e-10
Integration weight cutoff        WCut        ...    1.0000e-14
Grids for H and He will be reduced by one unit

# of grid points (after initial pruning)     ... 323768 (   0.0 sec)
# of grid points (after weights+screening)   ... 270365 (   0.3 sec)
nearest neighbour list constructed           ...    0.0 sec
Grid point re-assignment to atoms done       ...    0.1 sec
Grid point division into batches done        ...    0.7 sec
Reduced shell lists constructed in    2.6 sec

Total number of grid points                  ...   270365
Total number of batches                      ...     4263
Average number of points per batch           ...       63
Average number of grid points per atom       ...     3808
Average number of shells per batch           ...   351.86 (52.36%)
Average number of basis functions per batch  ...   907.55 (50.42%)
Average number of large shells per batch     ...   248.58 (70.65%)
Average number of large basis fcns per batch ...   649.53 (71.57%)
Average number of aux-shells per batch       ...   351.86 (35.72%)
Average number of aux functions per batch    ...   907.55 (29.46%)
Maximum spatial batch extension              ...   4.99,  5.51,  4.89 au
Average spatial batch extension              ...   0.05,  0.05,  0.05 au

Time for grid setup =    3.084 sec

------------------------------
INITIAL GUESS: MODEL POTENTIAL
------------------------------
Loading Hartree-Fock densities                     ... done
  calling /sw/apps/orca/orca_4_2_0_linux_x86-64_openmpi314/orca MOR27_pr07_atom74.inp > MOR27_pr07_atom74.out in order to generate an atomic fitting density for atom 0 (W  with ECP) on-the-fly... 
    atom 0 (W ), assumed electronic state with S=5: 1s2 2s2 2p6 3s2 3p6 4s2 3d10 4p6 5s2 4d10 5p6 6s2 4f14 5d4           ... done
Calculating cut-offs                               ... done
Setting up the integral package                    ... done
Initializing the effective Hamiltonian             ... done
Starting the Coulomb interaction                   ... done (   0.7 sec)
Reading the grid                                   ... done
Mapping shells                                     ... done
Starting the XC term evaluation                    ... done (   2.0 sec)
  promolecular density results
     # of electrons  =    297.977321050
     EX              =   -517.217547726
     EC              =     -4.053040501
     EX+EC           =   -521.270588228
Transforming the Hamiltonian                       ... done (   0.2 sec)
Diagonalizing the Hamiltonian                      ... done (   0.4 sec)
Back transforming the eigenvectors                 ... done (   0.1 sec)
Now organizing SCF variables                       ... done
                      ------------------
                      INITIAL GUESS DONE (   8.3 sec)
                      ------------------
--------------
SCF ITERATIONS
--------------
ITER       Energy         Delta-E        Max-DP      RMS-DP      [F,P]     Damp
  0  -1798.4458650103   0.000000000000 6.86022180  0.01470344  0.3718275 0.7000
  1  -1798.2236457402   0.222219270046 4.85247173  0.01037357  0.2545785 0.7000
                               ***Turning on DIIS***
  2  -1798.5341091261  -0.310463385855 3.43588586  0.00730848  0.1634832 0.7000
  3  -1798.9747201970  -0.440611070961 2.29325159  0.00499643  0.1080951 0.7000
  4  -1799.3767024832  -0.401982286200 5.68767459  0.01219500  0.0772396 0.0000
  5  -1799.7153760378  -0.338673554529 0.25893281  0.00059867  0.0274447 0.0000
  6  -1799.7218400351  -0.006463997387 0.19780497  0.00038840  0.0171482 0.0000
  7  -1799.7232796858  -0.001439650676 0.19395666  0.00033780  0.0063609 0.0000
  8  -1799.7238484954  -0.000568809541 0.35814664  0.00062023  0.0050968 0.0000
  9  -1799.7240969609  -0.000248465522 0.45258290  0.00045138  0.0022675 0.0000
 10  -1799.7241296752  -0.000032714272 0.58736412  0.00050563  0.0008269 0.0000
 11  -1799.7241329161  -0.000003240968 0.13021676  0.00025965  0.0004904 0.0000
 12  -1799.7241344723  -0.000001556222 0.49583652  0.00048944  0.0002535 0.0000
 13  -1799.7241347096  -0.000000237241 0.13417483  0.00020008  0.0000771 0.0000
                 **** Energy Check signals convergence ****

               *****************************************************
               *                     SUCCESS                       *
               *           SCF CONVERGED AFTER  14 CYCLES          *
               *****************************************************


----------------
TOTAL SCF ENERGY
----------------

Total Energy       :        -1799.72413474 Eh          -48972.98344 eV

Components:
Nuclear Repulsion  :         3588.65152444 Eh           97652.17252 eV
Electronic Energy  :        -5388.37565918 Eh         -146625.15597 eV
One Electron Energy:        -9631.54444368 Eh         -262087.64859 eV
Two Electron Energy:         4243.16878450 Eh          115462.49263 eV

Virial components:
Potential Energy   :        -3550.57522918 Eh          -96616.06385 eV
Kinetic Energy     :         1750.85109444 Eh           47643.08041 eV
Virial Ratio       :            2.02791388


DFT components:
N(Alpha)           :      118.999572970535 electrons
N(Beta)            :      118.999572970535 electrons
N(Total)           :      237.999145941070 electrons
E(X)               :      -94.867304868667 Eh       
E(C)               :       -5.899500693588 Eh       
E(XC)              :     -100.766805562255 Eh       
DFET-embed. en.    :        0.000000000000 Eh       

---------------
SCF CONVERGENCE
---------------

  Last Energy change         ...   -3.2715e-08  Tolerance :   1.0000e-06
  Last MAX-Density change    ...    1.0014e-01  Tolerance :   1.0000e-05
  Last RMS-Density change    ...    1.9300e-04  Tolerance :   1.0000e-06
  Last DIIS Error            ...    2.9606e-05  Tolerance :   1.0000e-06

             **** THE GBW FILE WAS UPDATED (MOR27_pr07.gbw) ****
             **** DENSITY FILE WAS UPDATED (MOR27_pr07.scfp) ****
             **** ENERGY FILE WAS UPDATED (MOR27_pr07.en.tmp) ****
             **** THE GBW FILE WAS UPDATED (MOR27_pr07.gbw) ****
             **** DENSITY FILE WAS UPDATED (MOR27_pr07.scfp) ****
----------------
ORBITAL ENERGIES
----------------

  NO   OCC          E(Eh)            E(eV) 
   0   2.0000     -78.276160     -2130.0026 
   1   2.0000     -78.276136     -2130.0020 
   2   2.0000     -19.773269      -538.0580 
   3   2.0000     -19.771436      -538.0081 
   4   2.0000     -19.757676      -537.6337 
   5   2.0000     -10.709139      -291.4105 
   6   2.0000     -10.708155      -291.3837 
   7   2.0000     -10.699179      -291.1395 
   8   2.0000     -10.625816      -289.1431 
   9   2.0000     -10.625798      -289.1427 
  10   2.0000     -10.625419      -289.1324 
  11   2.0000     -10.625391      -289.1316 
  12   2.0000     -10.623844      -289.0895 
  13   2.0000     -10.623833      -289.0892 
  14   2.0000     -10.611071      -288.7419 
  15   2.0000     -10.611069      -288.7419 
  16   2.0000     -10.610052      -288.7142 
  17   2.0000     -10.610038      -288.7138 
  18   2.0000     -10.608861      -288.6818 
  19   2.0000     -10.608846      -288.6814 
  20   2.0000     -10.608409      -288.6695 
  21   2.0000     -10.608390      -288.6690 
  22   2.0000     -10.601187      -288.4730 
  23   2.0000     -10.601186      -288.4729 
  24   2.0000     -10.598103      -288.3890 
  25   2.0000     -10.598096      -288.3888 
  26   2.0000      -6.942731      -188.9213 
  27   2.0000      -6.942708      -188.9207 
  28   2.0000      -4.993974      -135.8929 
  29   2.0000      -4.993967      -135.8927 
  30   2.0000      -4.993951      -135.8923 
  31   2.0000      -4.993944      -135.8921 
  32   2.0000      -4.991808      -135.8340 
  33   2.0000      -4.991785      -135.8334 
  34   2.0000      -3.085509       -83.9610 
  35   2.0000      -1.675383       -45.5895 
  36   2.0000      -1.674506       -45.5656 
  37   2.0000      -1.664093       -45.2823 
  38   2.0000      -1.242297       -33.8046 
  39   2.0000      -1.241463       -33.7819 
  40   2.0000      -1.227950       -33.4142 
  41   2.0000      -0.934514       -25.4294 
  42   2.0000      -0.934022       -25.4160 
  43   2.0000      -0.900562       -24.5055 
  44   2.0000      -0.900518       -24.5043 
  45   2.0000      -0.897417       -24.4199 
  46   2.0000      -0.897381       -24.4190 
  47   2.0000      -0.796152       -21.6644 
  48   2.0000      -0.795959       -21.6591 
  49   2.0000      -0.793388       -21.5892 
  50   2.0000      -0.792983       -21.5782 
  51   2.0000      -0.785655       -21.3788 
  52   2.0000      -0.785369       -21.3710 
  53   2.0000      -0.750081       -20.4107 
  54   2.0000      -0.747430       -20.3386 
  55   2.0000      -0.678608       -18.4659 
  56   2.0000      -0.678224       -18.4554 
  57   2.0000      -0.677400       -18.4330 
  58   2.0000      -0.676588       -18.4109 
  59   2.0000      -0.657854       -17.9011 
  60   2.0000      -0.628824       -17.1112 
  61   2.0000      -0.626937       -17.0598 
  62   2.0000      -0.602278       -16.3888 
  63   2.0000      -0.597574       -16.2608 
  64   2.0000      -0.571856       -15.5610 
  65   2.0000      -0.547310       -14.8931 
  66   2.0000      -0.545732       -14.8501 
  67   2.0000      -0.543495       -14.7893 
  68   2.0000      -0.539722       -14.6866 
  69   2.0000      -0.531523       -14.4635 
  70   2.0000      -0.530774       -14.4431 
  71   2.0000      -0.523422       -14.2430 
  72   2.0000      -0.511765       -13.9258 
  73   2.0000      -0.511476       -13.9180 
  74   2.0000      -0.509081       -13.8528 
  75   2.0000      -0.505807       -13.7637 
  76   2.0000      -0.495995       -13.4967 
  77   2.0000      -0.494958       -13.4685 
  78   2.0000      -0.494413       -13.4537 
  79   2.0000      -0.490112       -13.3366 
  80   2.0000      -0.487502       -13.2656 
  81   2.0000      -0.487328       -13.2609 
  82   2.0000      -0.482241       -13.1225 
  83   2.0000      -0.476016       -12.9530 
  84   2.0000      -0.473952       -12.8969 
  85   2.0000      -0.472224       -12.8499 
  86   2.0000      -0.468099       -12.7376 
  87   2.0000      -0.464133       -12.6297 
  88   2.0000      -0.464085       -12.6284 
  89   2.0000      -0.461470       -12.5572 
  90   2.0000      -0.459722       -12.5097 
  91   2.0000      -0.456930       -12.4337 
  92   2.0000      -0.456066       -12.4102 
  93   2.0000      -0.448948       -12.2165 
  94   2.0000      -0.448715       -12.2102 
  95   2.0000      -0.447322       -12.1722 
  96   2.0000      -0.446094       -12.1388 
  97   2.0000      -0.440313       -11.9815 
  98   2.0000      -0.416019       -11.3204 
  99   2.0000      -0.415665       -11.3108 
 100   2.0000      -0.415467       -11.3054 
 101   2.0000      -0.413725       -11.2580 
 102   2.0000      -0.410675       -11.1750 
 103   2.0000      -0.409396       -11.1402 
 104   2.0000      -0.405185       -11.0256 
 105   2.0000      -0.403880       -10.9901 
 106   2.0000      -0.400131       -10.8881 
 107   2.0000      -0.400042       -10.8857 
 108   2.0000      -0.398627       -10.8472 
 109   2.0000      -0.398338       -10.8393 
 110   2.0000      -0.350836        -9.5467 
 111   2.0000      -0.348372        -9.4797 
 112   2.0000      -0.348352        -9.4791 
 113   2.0000      -0.346182        -9.4201 
 114   2.0000      -0.344264        -9.3679 
 115   2.0000      -0.298714        -8.1284 
 116   2.0000      -0.224515        -6.1094 
 117   2.0000      -0.220578        -6.0022 
 118   2.0000      -0.214270        -5.8306 
 119   0.0000       0.019345         0.5264 
 120   0.0000       0.022722         0.6183 
 121   0.0000       0.025064         0.6820 
 122   0.0000       0.027908         0.7594 
 123   0.0000       0.032824         0.8932 
 124   0.0000       0.035592         0.9685 
 125   0.0000       0.043327         1.1790 
 126   0.0000       0.043668         1.1883 
 127   0.0000       0.047225         1.2851 
 128   0.0000       0.053262         1.4493 
 129   0.0000       0.057520         1.5652 
 130   0.0000       0.060603         1.6491 
 131   0.0000       0.060966         1.6590 
 132   0.0000       0.062580         1.7029 
 133   0.0000       0.063411         1.7255 
 134   0.0000       0.065000         1.7687 
 135   0.0000       0.070255         1.9117 
 136   0.0000       0.074353         2.0232 
 137   0.0000       0.078585         2.1384 
 138   0.0000       0.084790         2.3073 
 139   0.0000       0.087866         2.3910 
 140   0.0000       0.088221         2.4006 
 141   0.0000       0.088768         2.4155 
 142   0.0000       0.092525         2.5177 
 143   0.0000       0.095009         2.5853 
 144   0.0000       0.097991         2.6665 
 145   0.0000       0.102244         2.7822 
 146   0.0000       0.106372         2.8945 
 147   0.0000       0.106411         2.8956 
 148   0.0000       0.110457         3.0057 
 149   0.0000       0.119126         3.2416 
 150   0.0000       0.121594         3.3088 
 151   0.0000       0.122342         3.3291 
 152   0.0000       0.125777         3.4226 
 153   0.0000       0.127895         3.4802 
 154   0.0000       0.129167         3.5148 
 155   0.0000       0.133872         3.6428 
 156   0.0000       0.136524         3.7150 
 157   0.0000       0.136764         3.7215 
 158   0.0000       0.139439         3.7943 
 159   0.0000       0.140902         3.8341 
 160   0.0000       0.144000         3.9184 
 161   0.0000       0.145100         3.9484 
 162   0.0000       0.146135         3.9765 
 163   0.0000       0.148804         4.0492 
 164   0.0000       0.150270         4.0891 
 165   0.0000       0.150536         4.0963 
 166   0.0000       0.151881         4.1329 
 167   0.0000       0.152388         4.1467 
 168   0.0000       0.153843         4.1863 
 169   0.0000       0.157000         4.2722 
 170   0.0000       0.159172         4.3313 
 171   0.0000       0.162585         4.4242 
 172   0.0000       0.164625         4.4797 
 173   0.0000       0.169123         4.6021 
 174   0.0000       0.171206         4.6588 
 175   0.0000       0.172181         4.6853 
 176   0.0000       0.173611         4.7242 
 177   0.0000       0.174343         4.7441 
 178   0.0000       0.178466         4.8563 
 179   0.0000       0.180811         4.9201 
 180   0.0000       0.183138         4.9834 
 181   0.0000       0.185393         5.0448 
 182   0.0000       0.191643         5.2149 
 183   0.0000       0.191935         5.2228 
 184   0.0000       0.196051         5.3348 
 185   0.0000       0.196650         5.3511 
 186   0.0000       0.201229         5.4757 
 187   0.0000       0.202547         5.5116 
 188   0.0000       0.202979         5.5233 
 189   0.0000       0.206438         5.6175 
 190   0.0000       0.206616         5.6223 
 191   0.0000       0.209037         5.6882 
 192   0.0000       0.211659         5.7595 
 193   0.0000       0.213655         5.8139 
 194   0.0000       0.213972         5.8225 
 195   0.0000       0.215448         5.8626 
 196   0.0000       0.218214         5.9379 
 197   0.0000       0.221479         6.0268 
 198   0.0000       0.224622         6.1123 
 199   0.0000       0.225397         6.1334 
 200   0.0000       0.226278         6.1573 
 201   0.0000       0.232398         6.3239 
 202   0.0000       0.232996         6.3401 
 203   0.0000       0.234744         6.3877 
 204   0.0000       0.236237         6.4283 
 205   0.0000       0.236870         6.4456 
 206   0.0000       0.238607         6.4928 
 207   0.0000       0.240261         6.5378 
 208   0.0000       0.241253         6.5648 
 209   0.0000       0.244845         6.6626 
 210   0.0000       0.245562         6.6821 
 211   0.0000       0.247487         6.7345 
 212   0.0000       0.249782         6.7969 
 213   0.0000       0.250907         6.8275 
 214   0.0000       0.254970         6.9381 
 215   0.0000       0.255227         6.9451 
 216   0.0000       0.257921         7.0184 
 217   0.0000       0.260841         7.0979 
 218   0.0000       0.263345         7.1660 
 219   0.0000       0.266531         7.2527 
 220   0.0000       0.267826         7.2879 
 221   0.0000       0.269476         7.3328 
 222   0.0000       0.273116         7.4319 
 223   0.0000       0.274055         7.4574 
 224   0.0000       0.276331         7.5193 
 225   0.0000       0.278217         7.5707 
 226   0.0000       0.280293         7.6272 
 227   0.0000       0.282875         7.6974 
 228   0.0000       0.286861         7.8059 
 229   0.0000       0.288222         7.8429 
 230   0.0000       0.291004         7.9186 
 231   0.0000       0.291471         7.9313 
 232   0.0000       0.292122         7.9490 
 233   0.0000       0.293854         7.9962 
 234   0.0000       0.295151         8.0315 
 235   0.0000       0.297645         8.0993 
 236   0.0000       0.298060         8.1106 
 237   0.0000       0.298817         8.1312 
 238   0.0000       0.300443         8.1755 
 239   0.0000       0.300586         8.1794 
 240   0.0000       0.303666         8.2632 
 241   0.0000       0.304767         8.2931 
 242   0.0000       0.305458         8.3119 
 243   0.0000       0.306523         8.3409 
 244   0.0000       0.310186         8.4406 
 245   0.0000       0.311067         8.4646 
 246   0.0000       0.311321         8.4715 
 247   0.0000       0.314085         8.5467 
 248   0.0000       0.314150         8.5485 
 249   0.0000       0.316630         8.6159 
 250   0.0000       0.319856         8.7037 
 251   0.0000       0.321794         8.7565 
 252   0.0000       0.324235         8.8229 
 253   0.0000       0.326387         8.8814 
 254   0.0000       0.327582         8.9140 
 255   0.0000       0.329047         8.9538 
 256   0.0000       0.333537         9.0760 
 257   0.0000       0.335650         9.1335 
 258   0.0000       0.336648         9.1606 
 259   0.0000       0.336713         9.1624 
 260   0.0000       0.338188         9.2026 
 261   0.0000       0.340439         9.2638 
 262   0.0000       0.340606         9.2684 
 263   0.0000       0.340882         9.2759 
 264   0.0000       0.345175         9.3927 
 265   0.0000       0.347938         9.4679 
 266   0.0000       0.350423         9.5355 
 267   0.0000       0.352245         9.5851 
 268   0.0000       0.353688         9.6243 
 269   0.0000       0.354048         9.6341 
 270   0.0000       0.357159         9.7188 
 271   0.0000       0.358228         9.7479 
 272   0.0000       0.358726         9.7614 
 273   0.0000       0.361546         9.8382 
 274   0.0000       0.364388         9.9155 
 275   0.0000       0.364809         9.9270 
 276   0.0000       0.366002         9.9594 
 277   0.0000       0.366167         9.9639 
 278   0.0000       0.370354        10.0779 
 279   0.0000       0.370380        10.0786 
 280   0.0000       0.371105        10.0983 
 281   0.0000       0.374687        10.1957 
 282   0.0000       0.375202        10.2098 
 283   0.0000       0.375825        10.2267 
 284   0.0000       0.376459        10.2440 
 285   0.0000       0.382524        10.4090 
 286   0.0000       0.382637        10.4121 
 287   0.0000       0.384502        10.4628 
 288   0.0000       0.386720        10.5232 
 289   0.0000       0.390374        10.6226 
 290   0.0000       0.393749        10.7145 
 291   0.0000       0.396517        10.7898 
 292   0.0000       0.397103        10.8057 
 293   0.0000       0.399750        10.8778 
 294   0.0000       0.401056        10.9133 
 295   0.0000       0.403249        10.9730 
 296   0.0000       0.403887        10.9903 
 297   0.0000       0.405667        11.0388 
 298   0.0000       0.406740        11.0680 
 299   0.0000       0.411508        11.1977 
 300   0.0000       0.411671        11.2021 
 301   0.0000       0.413172        11.2430 
 302   0.0000       0.416464        11.3326 
 303   0.0000       0.417079        11.3493 
 304   0.0000       0.421087        11.4584 
 305   0.0000       0.423132        11.5140 
 306   0.0000       0.424658        11.5555 
 307   0.0000       0.426847        11.6151 
 308   0.0000       0.428844        11.6694 
 309   0.0000       0.431095        11.7307 
 310   0.0000       0.433415        11.7938 
 311   0.0000       0.435803        11.8588 
 312   0.0000       0.436501        11.8778 
 313   0.0000       0.440411        11.9842 
 314   0.0000       0.441638        12.0176 
 315   0.0000       0.442141        12.0313 
 316   0.0000       0.442873        12.0512 
 317   0.0000       0.446612        12.1529 
 318   0.0000       0.447785        12.1848 
 319   0.0000       0.451750        12.2927 
 320   0.0000       0.451995        12.2994 
 321   0.0000       0.453897        12.3512 
 322   0.0000       0.457986        12.4624 
 323   0.0000       0.459135        12.4937 
 324   0.0000       0.463113        12.6019 
 325   0.0000       0.463393        12.6096 
 326   0.0000       0.464339        12.6353 
 327   0.0000       0.466910        12.7053 
 328   0.0000       0.467273        12.7151 
 329   0.0000       0.471417        12.8279 
 330   0.0000       0.474667        12.9163 
 331   0.0000       0.475862        12.9489 
 332   0.0000       0.477592        12.9959 
 333   0.0000       0.479500        13.0479 
 334   0.0000       0.479815        13.0564 
 335   0.0000       0.483721        13.1627 
 336   0.0000       0.484171        13.1750 
 337   0.0000       0.487456        13.2643 
 338   0.0000       0.488174        13.2839 
 339   0.0000       0.490364        13.3435 
 340   0.0000       0.493525        13.4295 
 341   0.0000       0.494129        13.4459 
 342   0.0000       0.495533        13.4841 
 343   0.0000       0.496432        13.5086 
 344   0.0000       0.499551        13.5935 
 345   0.0000       0.500844        13.6287 
 346   0.0000       0.500993        13.6327 
 347   0.0000       0.507619        13.8130 
 348   0.0000       0.508402        13.8343 
 349   0.0000       0.509250        13.8574 
 350   0.0000       0.513531        13.9739 
 351   0.0000       0.514583        14.0025 
 352   0.0000       0.515327        14.0228 
 353   0.0000       0.518915        14.1204 
 354   0.0000       0.519127        14.1262 
 355   0.0000       0.522158        14.2087 
 356   0.0000       0.524655        14.2766 
 357   0.0000       0.526877        14.3371 
 358   0.0000       0.531623        14.4662 
 359   0.0000       0.532186        14.4815 
 360   0.0000       0.533992        14.5307 
 361   0.0000       0.534859        14.5543 
 362   0.0000       0.537707        14.6318 
 363   0.0000       0.537895        14.6369 
 364   0.0000       0.540753        14.7146 
 365   0.0000       0.541608        14.7379 
 366   0.0000       0.544411        14.8142 
 367   0.0000       0.545600        14.8465 
 368   0.0000       0.549720        14.9586 
 369   0.0000       0.550979        14.9929 
 370   0.0000       0.551522        15.0077 
 371   0.0000       0.552028        15.0214 
 372   0.0000       0.555405        15.1133 
 373   0.0000       0.559499        15.2248 
 374   0.0000       0.560161        15.2428 
 375   0.0000       0.562501        15.3064 
 376   0.0000       0.566136        15.4053 
 377   0.0000       0.566863        15.4251 
 378   0.0000       0.569357        15.4930 
 379   0.0000       0.569411        15.4945 
 380   0.0000       0.569846        15.5063 
 381   0.0000       0.574025        15.6200 
 382   0.0000       0.576064        15.6755 
 383   0.0000       0.581104        15.8126 
 384   0.0000       0.581280        15.8174 
 385   0.0000       0.585964        15.9449 
 386   0.0000       0.586766        15.9667 
 387   0.0000       0.588554        16.0154 
 388   0.0000       0.589080        16.0297 
 389   0.0000       0.592698        16.1281 
 390   0.0000       0.594189        16.1687 
 391   0.0000       0.596790        16.2395 
 392   0.0000       0.597718        16.2647 
 393   0.0000       0.601157        16.3583 
 394   0.0000       0.602649        16.3989 
 395   0.0000       0.603228        16.4147 
 396   0.0000       0.603539        16.4231 
 397   0.0000       0.607164        16.5218 
 398   0.0000       0.608943        16.5702 
 399   0.0000       0.611210        16.6319 
 400   0.0000       0.611684        16.6448 
 401   0.0000       0.614966        16.7341 
 402   0.0000       0.615440        16.7470 
 403   0.0000       0.615835        16.7577 
 404   0.0000       0.620354        16.8807 
 405   0.0000       0.620670        16.8893 
 406   0.0000       0.624101        16.9826 
 407   0.0000       0.624544        16.9947 
 408   0.0000       0.630503        17.1569 
 409   0.0000       0.630742        17.1634 
 410   0.0000       0.635808        17.3012 
 411   0.0000       0.637540        17.3483 
 412   0.0000       0.638066        17.3627 
 413   0.0000       0.639235        17.3945 
 414   0.0000       0.639335        17.3972 
 415   0.0000       0.640213        17.4211 
 416   0.0000       0.643573        17.5125 
 417   0.0000       0.643925        17.5221 
 418   0.0000       0.650464        17.7000 
 419   0.0000       0.650995        17.7145 
 420   0.0000       0.653454        17.7814 
 421   0.0000       0.655339        17.8327 
 422   0.0000       0.656500        17.8643 
 423   0.0000       0.657873        17.9016 
 424   0.0000       0.661937        18.0122 
 425   0.0000       0.663080        18.0433 
 426   0.0000       0.663299        18.0493 
 427   0.0000       0.665203        18.1011 
 428   0.0000       0.668125        18.1806 
 429   0.0000       0.670646        18.2492 
 430   0.0000       0.674975        18.3670 
 431   0.0000       0.677519        18.4362 
 432   0.0000       0.678802        18.4711 
 433   0.0000       0.680066        18.5055 
 434   0.0000       0.681707        18.5502 
 435   0.0000       0.684298        18.6207 
 436   0.0000       0.686501        18.6806 
 437   0.0000       0.688323        18.7302 
 438   0.0000       0.691053        18.8045 
 439   0.0000       0.693587        18.8735 
 440   0.0000       0.694131        18.8883 
 441   0.0000       0.695068        18.9138 
 442   0.0000       0.698402        19.0045 
 443   0.0000       0.698642        19.0110 
 444   0.0000       0.698982        19.0203 
 445   0.0000       0.699718        19.0403 
 446   0.0000       0.702514        19.1164 
 447   0.0000       0.705785        19.2054 
 448   0.0000       0.707661        19.2564 
 449   0.0000       0.712444        19.3866 
 450   0.0000       0.713751        19.4221 
 451   0.0000       0.714684        19.4475 
 452   0.0000       0.714759        19.4496 
 453   0.0000       0.716615        19.5001 
 454   0.0000       0.717059        19.5122 
 455   0.0000       0.720494        19.6056 
 456   0.0000       0.723015        19.6742 
 457   0.0000       0.724562        19.7163 
 458   0.0000       0.725631        19.7454 
 459   0.0000       0.726037        19.7565 
 460   0.0000       0.727409        19.7938 
 461   0.0000       0.728468        19.8226 
 462   0.0000       0.729211        19.8428 
 463   0.0000       0.731017        19.8920 
 464   0.0000       0.733276        19.9535 
 465   0.0000       0.735888        20.0245 
 466   0.0000       0.737521        20.0690 
 467   0.0000       0.739743        20.1294 
 468   0.0000       0.742282        20.1985 
 469   0.0000       0.742409        20.2020 
 470   0.0000       0.744039        20.2463 
 471   0.0000       0.748637        20.3715 
 472   0.0000       0.751873        20.4595 
 473   0.0000       0.752831        20.4856 
 474   0.0000       0.754455        20.5298 
 475   0.0000       0.756574        20.5874 
 476   0.0000       0.757763        20.6198 
 477   0.0000       0.758115        20.6293 
 478   0.0000       0.759157        20.6577 
 479   0.0000       0.759747        20.6738 
 480   0.0000       0.763303        20.7705 
 481   0.0000       0.765045        20.8179 
 482   0.0000       0.766929        20.8692 
 483   0.0000       0.769577        20.9412 
 484   0.0000       0.770954        20.9787 
 485   0.0000       0.771538        20.9946 
 486   0.0000       0.774796        21.0833 
 487   0.0000       0.779738        21.2178 
 488   0.0000       0.780302        21.2331 
 489   0.0000       0.781763        21.2728 
 490   0.0000       0.784293        21.3417 
 491   0.0000       0.786369        21.3982 
 492   0.0000       0.786656        21.4060 
 493   0.0000       0.789544        21.4846 
 494   0.0000       0.790887        21.5211 
 495   0.0000       0.792023        21.5520 
 496   0.0000       0.793536        21.5932 
 497   0.0000       0.796497        21.6738 
 498   0.0000       0.797070        21.6894 
 499   0.0000       0.800080        21.7713 
 500   0.0000       0.802858        21.8469 
 501   0.0000       0.804857        21.9013 
 502   0.0000       0.805811        21.9272 
 503   0.0000       0.808930        22.0121 
 504   0.0000       0.810395        22.0520 
 505   0.0000       0.810500        22.0548 
 506   0.0000       0.812723        22.1153 
 507   0.0000       0.815060        22.1789 
 508   0.0000       0.816187        22.2096 
 509   0.0000       0.817085        22.2340 
 510   0.0000       0.819743        22.3063 
 511   0.0000       0.820078        22.3155 
 512   0.0000       0.823789        22.4164 
 513   0.0000       0.824510        22.4361 
 514   0.0000       0.830362        22.5953 
 515   0.0000       0.831966        22.6389 
 516   0.0000       0.834298        22.7024 
 517   0.0000       0.834871        22.7180 
 518   0.0000       0.835193        22.7268 
 519   0.0000       0.840793        22.8791 
 520   0.0000       0.841944        22.9105 
 521   0.0000       0.842856        22.9353 
 522   0.0000       0.844554        22.9815 
 523   0.0000       0.846206        23.0264 
 524   0.0000       0.851402        23.1678 
 525   0.0000       0.852804        23.2060 
 526   0.0000       0.853240        23.2178 
 527   0.0000       0.855932        23.2911 
 528   0.0000       0.859627        23.3916 
 529   0.0000       0.862656        23.4741 
 530   0.0000       0.863117        23.4866 
 531   0.0000       0.866827        23.5876 
 532   0.0000       0.870413        23.6851 
 533   0.0000       0.872707        23.7476 
 534   0.0000       0.873842        23.7784 
 535   0.0000       0.876673        23.8555 
 536   0.0000       0.879008        23.9190 
 537   0.0000       0.879882        23.9428 
 538   0.0000       0.880747        23.9664 
 539   0.0000       0.882334        24.0095 
 540   0.0000       0.886844        24.1322 
 541   0.0000       0.887940        24.1621 
 542   0.0000       0.889079        24.1931 
 543   0.0000       0.890756        24.2387 
 544   0.0000       0.891358        24.2551 
 545   0.0000       0.894745        24.3473 
 546   0.0000       0.901707        24.5367 
 547   0.0000       0.903284        24.5796 
 548   0.0000       0.905592        24.6424 
 549   0.0000       0.910023        24.7630 
 550   0.0000       0.910739        24.7825 
 551   0.0000       0.911659        24.8075 
 552   0.0000       0.914392        24.8819 
 553   0.0000       0.914879        24.8951 
 554   0.0000       0.920292        25.0424 
 555   0.0000       0.924347        25.1528 
 556   0.0000       0.925263        25.1777 
 557   0.0000       0.927837        25.2477 
 558   0.0000       0.930068        25.3084 
 559   0.0000       0.931639        25.3512 
 560   0.0000       0.932318        25.3697 
 561   0.0000       0.937822        25.5194 
 562   0.0000       0.939053        25.5529 
 563   0.0000       0.940063        25.5804 
 564   0.0000       0.943150        25.6644 
 565   0.0000       0.945631        25.7319 
 566   0.0000       0.945663        25.7328 
 567   0.0000       0.951541        25.8927 
 568   0.0000       0.957682        26.0598 
 569   0.0000       0.959148        26.0997 
 570   0.0000       0.960492        26.1363 
 571   0.0000       0.962852        26.2005 
 572   0.0000       0.965871        26.2827 
 573   0.0000       0.966869        26.3098 
 574   0.0000       0.968184        26.3456 
 575   0.0000       0.971290        26.4301 
 576   0.0000       0.974076        26.5060 
 577   0.0000       0.977642        26.6030 
 578   0.0000       0.979472        26.6528 
 579   0.0000       0.981671        26.7126 
 580   0.0000       0.984336        26.7852 
 581   0.0000       0.987335        26.8667 
 582   0.0000       0.989316        26.9207 
 583   0.0000       0.989879        26.9360 
 584   0.0000       0.991388        26.9770 
 585   0.0000       0.998853        27.1802 
 586   0.0000       1.002583        27.2817 
 587   0.0000       1.008624        27.4461 
 588   0.0000       1.011501        27.5243 
 589   0.0000       1.012643        27.5554 
 590   0.0000       1.014354        27.6020 
 591   0.0000       1.015463        27.6322 
 592   0.0000       1.020099        27.7583 
 593   0.0000       1.020744        27.7759 
 594   0.0000       1.023206        27.8429 
 595   0.0000       1.027995        27.9732 
 596   0.0000       1.028553        27.9884 
 597   0.0000       1.030504        28.0414 
 598   0.0000       1.034488        28.1499 
 599   0.0000       1.036025        28.1917 
 600   0.0000       1.037990        28.2451 
 601   0.0000       1.043404        28.3925 
 602   0.0000       1.047210        28.4960 
[...]
      dxz     :     0.097855
      dyz     :     0.152936
      dx2y2   :     0.144933
      dxy     :     0.097059
      f0      :     0.003050  f :     0.031576
      f+1     :     0.004556
      f-1     :     0.004897
      f+2     :     0.004540
      f-2     :     0.004290
      f+3     :     0.004679
      f-3     :     0.005563
 68 H s       :     0.685467  s :     0.685467
      pz      :     0.119003  p :     0.309125
      px      :     0.086920
      py      :     0.103203
      dz2     :     0.006929  d :     0.029322
      dxz     :     0.004396
      dyz     :     0.007708
      dx2y2   :     0.004886
      dxy     :     0.005402
 69 H s       :     0.679726  s :     0.679726
      pz      :     0.095443  p :     0.340808
      px      :     0.147553
      py      :     0.097812
      dz2     :     0.003063  d :     0.029526
      dxz     :     0.008847
      dyz     :     0.001567
      dx2y2   :     0.007934
      dxy     :     0.008114
 70 H s       :     0.696993  s :     0.696993
      pz      :     0.110251  p :     0.277553
      px      :     0.089827
      py      :     0.077475
      dz2     :     0.008845  d :     0.029020
      dxz     :     0.006757
      dyz     :     0.007351
      dx2y2   :     0.003083
      dxy     :     0.002983


                      *****************************
                      * MAYER POPULATION ANALYSIS *
                      *****************************

  NA   - Mulliken gross atomic population
  ZA   - Total nuclear charge
  QA   - Mulliken gross atomic charge
  VA   - Mayer's total valence
  BVA  - Mayer's bonded valence
  FA   - Mayer's free valence

  ATOM       NA         ZA         QA         VA         BVA        FA
  0 W     15.9840    14.0000    -1.9840     5.7699     5.7699     0.0000
  1 C      5.0436     6.0000     0.9564     3.3752     3.3752    -0.0000
  2 O      8.4939     8.0000    -0.4939     1.9494     1.9494    -0.0000
  3 C      5.4749     6.0000     0.5251     3.8454     3.8454     0.0000
  4 O      8.5450     8.0000    -0.5450     1.8705     1.8705     0.0000
  5 C      4.8495     6.0000     1.1505     3.2602     3.2602    -0.0000
  6 O      8.5238     8.0000    -0.5238     1.9651     1.9651     0.0000
  7 H      0.9896     1.0000     0.0104     0.9579     0.9579     0.0000
  8 H      1.0094     1.0000    -0.0094     0.9632     0.9632     0.0000
  9 P     14.9225    15.0000     0.0775     2.1732     2.1732    -0.0000
 10 C      5.1418     6.0000     0.8582     2.8975     2.8975    -0.0000
 11 H      0.6622     1.0000     0.3378     0.5869     0.5869     0.0000
 12 C      4.7487     6.0000     1.2513     2.6625     2.6625     0.0000
 13 H      0.8592     1.0000     0.1408     0.6548     0.6548     0.0000
 14 C      5.1903     6.0000     0.8097     3.0710     3.0710    -0.0000
 15 H      0.8130     1.0000     0.1870     0.7758     0.7758    -0.0000
 16 C      5.1949     6.0000     0.8051     3.0722     3.0722     0.0000
 17 P     14.9131    15.0000     0.0869     2.1956     2.1956    -0.0000
 18 H      0.6600     1.0000     0.3400     0.5843     0.5843    -0.0000
 19 H      0.8116     1.0000     0.1884     0.7758     0.7758    -0.0000
 20 C      4.7497     6.0000     1.2503     2.6655     2.6655    -0.0000
 21 H      0.8600     1.0000     0.1400     0.6540     0.6540    -0.0000
 22 C      6.8714     6.0000    -0.8714     3.8096     3.8096    -0.0000
 23 H      0.8294     1.0000     0.1706     0.9853     0.9853     0.0000
 24 H      0.9118     1.0000     0.0882     1.0874     1.0874    -0.0000
 25 H      0.9136     1.0000     0.0864     1.0202     1.0202    -0.0000
 26 C      6.6860     6.0000    -0.6860     3.9648     3.9648     0.0000
 27 H      0.8537     1.0000     0.1463     0.9846     0.9846     0.0000
 28 H      1.0229     1.0000    -0.0229     1.1361     1.1361    -0.0000
 29 H      0.9188     1.0000     0.0812     1.0953     1.0953     0.0000
 30 C      6.9606     6.0000    -0.9606     3.8450     3.8450     0.0000
 31 H      0.8649     1.0000     0.1351     1.0277     1.0277     0.0000
 32 H      0.8952     1.0000     0.1048     1.0373     1.0373     0.0000
 33 H      0.8620     1.0000     0.1380     1.0040     1.0040     0.0000
 34 C      6.7327     6.0000    -0.7327     3.8348     3.8348    -0.0000
 35 H      0.8619     1.0000     0.1381     0.9725     0.9725    -0.0000
 36 H      1.0329     1.0000    -0.0329     1.1514     1.1514    -0.0000
 37 H      0.8970     1.0000     0.1030     1.0579     1.0579    -0.0000
 38 C      6.8144     6.0000    -0.8144     3.8898     3.8898     0.0000
 39 H      0.8473     1.0000     0.1527     1.0239     1.0239    -0.0000
 40 H      0.9626     1.0000     0.0374     1.0319     1.0319     0.0000
 41 H      0.8913     1.0000     0.1087     1.0512     1.0512     0.0000
 42 C      6.8533     6.0000    -0.8533     3.9160     3.9160    -0.0000
 43 H      0.9139     1.0000     0.0861     1.0418     1.0418    -0.0000
 44 H      0.9831     1.0000     0.0169     1.0576     1.0576    -0.0000
 45 H      0.8243     1.0000     0.1757     0.9741     0.9741    -0.0000
 46 C      6.9619     6.0000    -0.9619     3.8485     3.8485     0.0000
 47 H      0.8949     1.0000     0.1051     1.0368     1.0368     0.0000
 48 H      0.8649     1.0000     0.1351     1.0278     1.0278     0.0000
 49 H      0.8616     1.0000     0.1384     1.0038     1.0038     0.0000
 50 C      6.7315     6.0000    -0.7315     3.8324     3.8324     0.0000
 51 H      0.8976     1.0000     0.1024     1.0582     1.0582     0.0000
 52 C      6.8528     6.0000    -0.8528     3.9159     3.9159     0.0000
 53 H      1.0343     1.0000    -0.0343     1.1497     1.1497    -0.0000
 54 H      0.8613     1.0000     0.1387     0.9717     0.9717     0.0000
 55 C      6.8165     6.0000    -0.8165     3.8935     3.8935    -0.0000
 56 H      0.9839     1.0000     0.0161     1.0566     1.0566    -0.0000
 57 H      0.8244     1.0000     0.1756     0.9740     0.9740     0.0000
 58 H      0.9137     1.0000     0.0863     1.0411     1.0411     0.0000
 59 C      5.1456     6.0000     0.8544     2.8962     2.8962     0.0000
 60 H      0.8469     1.0000     0.1531     1.0239     1.0239    -0.0000
 61 H      0.8918     1.0000     0.1082     1.0513     1.0513    -0.0000
 62 H      0.9603     1.0000     0.0397     1.0295     1.0295    -0.0000
 63 C      6.8759     6.0000    -0.8759     3.8174     3.8174    -0.0000
 64 H      0.8295     1.0000     0.1705     0.9852     0.9852    -0.0000
 65 H      0.9138     1.0000     0.0862     1.0214     1.0214    -0.0000
 66 H      0.9117     1.0000     0.0883     1.0868     1.0868    -0.0000
 67 C      6.6827     6.0000    -0.6827     3.9606     3.9606     0.0000
 68 H      0.9195     1.0000     0.0805     1.0959     1.0959     0.0000
 69 H      1.0231     1.0000    -0.0231     1.1361     1.1361     0.0000
 70 H      0.8540     1.0000     0.1460     0.9848     0.9848     0.0000

  Mayer bond orders larger than 0.100000
B(  0-W ,  1-C ) :   1.4851 B(  0-W ,  3-C ) :   1.7580 B(  0-W ,  5-C ) :   1.5700 
B(  0-W ,  7-H ) :   0.3672 B(  0-W ,  8-H ) :   0.3896 B(  0-W ,  9-P ) :  -0.4076 
B(  0-W , 10-C ) :   0.1084 B(  0-W , 12-C ) :   0.1479 B(  0-W , 17-P ) :  -0.4033 
B(  0-W , 20-C ) :   0.1416 B(  0-W , 59-C ) :   0.1093 B(  1-C ,  2-O ) :   1.8365 
B(  1-C ,  3-C ) :  -0.2825 B(  1-C ,  5-C ) :   0.1702 B(  3-C ,  4-O ) :   1.7233 
B(  3-C ,  5-C ) :  -0.1732 B(  3-C ,  9-P ) :   0.3835 B(  3-C , 17-P ) :   0.3941 
B(  5-C ,  6-O ) :   1.8413 B(  7-H ,  8-H ) :   0.8100 B(  7-H , 12-C ) :   0.1582 
B(  7-H , 20-C ) :  -0.1567 B(  8-H , 12-C ) :  -0.1604 B(  8-H , 14-C ) :   0.1029 
B(  8-H , 20-C ) :   0.1535 B(  9-P , 10-C ) :   0.6756 B(  9-P , 12-C ) :   0.4886 
B(  9-P , 13-H ) :  -0.1217 B(  9-P , 14-C ) :   0.9565 B(  9-P , 17-P ) :  -0.3384 
B(  9-P , 20-C ) :   0.1159 B(  9-P , 26-C ) :   0.1410 B(  9-P , 42-C ) :   0.1009 
B( 10-C , 11-H ) :   0.8212 B( 10-C , 12-C ) :   0.1611 B( 10-C , 14-C ) :   0.3205 
B( 10-C , 38-C ) :   0.5865 B( 10-C , 40-H ) :  -0.1008 B( 10-C , 42-C ) :   0.5841 
B( 10-C , 44-H ) :  -0.1052 B( 12-C , 13-H ) :   0.9390 B( 12-C , 14-C ) :   0.2879 
B( 12-C , 17-P ) :   0.1156 B( 12-C , 22-C ) :   0.4682 B( 12-C , 24-H ) :  -0.1377 
B( 12-C , 26-C ) :   0.5647 B( 12-C , 29-H ) :  -0.1017 B( 13-H , 26-C ) :  -0.1016 
B( 14-C , 15-H ) :   0.8946 B( 14-C , 30-C ) :   0.4578 B( 14-C , 34-C ) :   0.5728 
B( 16-C , 17-P ) :   0.9529 B( 16-C , 19-H ) :   0.8940 B( 16-C , 20-C ) :   0.2864 
B( 16-C , 46-C ) :   0.4603 B( 16-C , 50-C ) :   0.5725 B( 16-C , 59-C ) :   0.3198 
B( 17-P , 20-C ) :   0.4982 B( 17-P , 21-H ) :  -0.1207 B( 17-P , 59-C ) :   0.6657 
B( 17-P , 67-C ) :   0.1354 B( 18-H , 59-C ) :   0.8191 B( 20-C , 21-H ) :   0.9379 
B( 20-C , 59-C ) :   0.1618 B( 20-C , 63-C ) :   0.4662 B( 20-C , 66-H ) :  -0.1374 
B( 20-C , 67-C ) :   0.5654 B( 20-C , 68-H ) :  -0.1016 B( 21-H , 67-C ) :  -0.1020 
B( 22-C , 23-H ) :   1.0500 B( 22-C , 24-H ) :   1.1286 B( 22-C , 25-H ) :   1.0751 
B( 22-C , 26-C ) :   0.1755 B( 26-C , 27-H ) :   1.0247 B( 26-C , 28-H ) :   1.1424 
B( 26-C , 29-H ) :   1.0084 B( 30-C , 31-H ) :   1.0788 B( 30-C , 32-H ) :   1.0709 
B( 30-C , 33-H ) :   1.0011 B( 30-C , 34-C ) :   0.1207 B( 34-C , 35-H ) :   1.0067 
B( 34-C , 36-H ) :   1.0671 B( 34-C , 37-H ) :   1.0458 B( 38-C , 39-H ) :   1.0573 
B( 38-C , 40-H ) :   1.0763 B( 38-C , 41-H ) :   1.0107 B( 42-C , 43-H ) :   1.0134 
B( 42-C , 44-H ) :   1.0878 B( 42-C , 45-H ) :   1.0279 B( 46-C , 47-H ) :   1.0696 
B( 46-C , 48-H ) :   1.0793 B( 46-C , 49-H ) :   1.0009 B( 46-C , 50-C ) :   0.1199 
B( 50-C , 51-H ) :   1.0472 B( 50-C , 53-H ) :   1.0652 B( 50-C , 54-H ) :   1.0059 
B( 52-C , 56-H ) :   1.0874 B( 52-C , 57-H ) :   1.0276 B( 52-C , 58-H ) :   1.0139 
B( 52-C , 59-C ) :   0.5890 B( 55-C , 59-C ) :   0.5887 B( 55-C , 60-H ) :   1.0568 
B( 55-C , 61-H ) :   1.0114 B( 55-C , 62-H ) :   1.0748 B( 56-H , 59-C ) :  -0.1054 
B( 59-C , 62-H ) :  -0.1006 B( 63-C , 64-H ) :   1.0501 B( 63-C , 65-H ) :   1.0749 
B( 63-C , 66-H ) :   1.1272 B( 63-C , 67-C ) :   0.1747 B( 67-C , 68-H ) :   1.0080 
B( 67-C , 69-H ) :   1.1425 B( 67-C , 70-H ) :   1.0246 

-------
TIMINGS
-------

Total SCF time: 0 days 0 hours 12 min 10 sec 

Total time                  ....     730.139 sec
Sum of individual times     ....     726.150 sec  ( 99.5%)

Fock matrix formation       ....     696.790 sec  ( 95.4%)
  XC integration            ....      31.988 sec  (  4.6% of F)
    Basis function eval.    ....       5.393 sec  ( 16.9% of XC)
    Density eval.           ....      14.368 sec  ( 44.9% of XC)
    XC-Functional eval.     ....       0.141 sec  (  0.4% of XC)
    XC-Potential eval.      ....       9.875 sec  ( 30.9% of XC)
Diagonalization             ....       8.013 sec  (  1.1%)
Density matrix formation    ....       0.545 sec  (  0.1%)
Population analysis         ....       1.065 sec  (  0.1%)
Initial guess               ....       5.241 sec  (  0.7%)
Orbital Transformation      ....       0.000 sec  (  0.0%)
Orbital Orthonormalization  ....       0.000 sec  (  0.0%)
DIIS solution               ....      11.411 sec  (  1.6%)
Grid generation             ....       3.084 sec  (  0.4%)


           ************************************************************
           *        Program running with 24 parallel MPI-processes    *
           *              working on a common directory               *
           ************************************************************

------------------------------------------------------------------------------
                                ORCA  MP2 
------------------------------------------------------------------------------

Freezing NCore=68 chemical core electrons

-------------
RI-MP2 ENERGY
-------------
Dimension of the basis                    ... 1800
Memory devoted to MP2                     ... 5000 MB   
Data format for buffers                   ... DOUBLE
Compression type for matrix containers    ... UNCOMPRESSED
Overall scaling of the MP2 energy         ...   2.700e-01
Calculating two index integrals           ... done (    0.137 sec)
Cholesky decomposition of V**-1           ... done (    2.261 sec)

-----------------
RI-TRANSFORMATION (AUX index driven)
-----------------

Dimension of the orbital-basis         ... 1800
Dimension of the aux-basis             ... 4395
Transformation of internal/external MOs...   34- 118 to  119-1799
Number Format for Storage              ... Double (8 Byte)
Integral mode                          ... Direct

First Phase: integral generation and transformation of MO indices
  Aux angular momentum 0               ... done (    1.917 sec)
  Aux angular momentum 1               ... done (    3.701 sec)
  Aux angular momentum 2               ... done (    4.683 sec)
  Aux angular momentum 3               ... done (    3.601 sec)
  Aux angular momentum 4               ... done (    1.241 sec)
  Aux angular momentum 5               ... done (    0.785 sec)
  Aux angular momentum 6               ... done (    1.033 sec)
Closing buffer VIA ( 4.68 GB; CompressionRatio= 1.00)
  Phase 1 completed in    17.273 sec
Second Phase: sorting and transformation of aux index

IA-Transformation
Memory available                       ... 4592 MB 
Max. # MO pairs treated in a batch     ... 4    
# of internal orbitals                 ... 85
# batches for internal orbitals        ... 1
Closing buffer IAV ( 0.22 GB; CompressionRatio= 1.00)
(ia|v) transformation done in     5.980 sec

  Phase 2 completed in    11.545 sec
RI-Integral transformation completed in    28.965 sec
Opening buffers                              ... done

Starting loop over batches of integrals:

Operator 0  - window                       ... ( 34-118)x(119-1799)
Operator 0  - Memory available             ...  5000 MB
Operator 0  - Memory needed per MO         ...  56.4 MB
Operator 0  - Number of orbitals per batch ... 4
Operator 0  - Number of batches            ... 1

OPERATOR  0   PASS   0:  MOs    34 ...   37 +   38 ...   41 +   42 ...   45 +   46 ...   49
                            +   50 ...   53 +   54 ...   57 +   58 ...   61 +   62 ...   65
                            +   66 ...   69 +   70 ...   73 +   74 ...   77 +   78 ...   81
                            +   82 ...   85 +   86 ...   89 +   90 ...   93 +   94 ...   97
                            +   98 ...  101 +  102 ...  105 +  106 ...  109 +  110 ...  113
                            +  114 ...  117 +  118 ...  118
  Reading integrals       ... ok
  Internal MO  36
Time spent in pair loops =     5.122 sec
Deleting buffer (Ka|jb)[aa] ...done

-----------------------------------------------
 RI-MP2 CORRELATION ENERGY:     -1.777245263 Eh
-----------------------------------------------


-------
TIMINGS
-------

Total time                :  169.707 sec
Integral trafo            :   28.998 sec ( 17.1%)
I/O of integrals          :    0.315 sec (  0.2%)
K(i,j) Operators          :    4.095 sec (  2.4%)
T(i,j) pair energies      :    0.455 sec (  0.3%)
V-calculation             :    0.137 sec (  0.1%)
V**(-1/2)                 :    2.261 sec (  1.3%)
Gamma(ia|P)               :    0.000 sec (  0.0%)
Gamma-Trafo               :    0.000 sec (  0.0%)
D(virtual)                :    0.000 sec (  0.0%)
D(internal)               :    0.000 sec (  0.0%)
W(virtual)                :    0.000 sec (  0.0%)
W(internal)               :    0.000 sec (  0.0%)
L(virtual)                :    0.000 sec (  0.0%)
L(internal)               :    0.000 sec (  0.0%)
G(D)                      :    0.000 sec (  0.0%)
G(Z)                      :    0.000 sec (  0.0%)
Z-Vector Solution         :    0.000 sec (  0.0%)
Z-Vector Solution         :    0.000 sec (  0.0%)
3-Index Derivative 
+ Separable RIJ part      :    0.000 sec (  0.0%)
2-Index Derivative 
+ Separable RIJ part      :    0.000 sec (  0.0%)
Separable Gradient (X)    :    0.000 sec (  0.0%)


---------------------------------------
MP2 TOTAL ENERGY:    -1801.501380005 Eh
---------------------------------------


-------------------------------------------------------------------------------
                          DFT DISPERSION CORRECTION                            
                                                                               
                              DFTD3 V3.1  Rev 1                                
                          USING Becke-Johnson damping                          
-------------------------------------------------------------------------------
The B2PLYP functional is recognized
Active option DFTDOPT                   ...         4   

molecular C6(AA) [au] = 50503.017326 


            DFT-D V3
 parameters
 s6 scaling factor         :     0.6400 
 a1 scaling factor         :     0.3065 
 s8 scaling factor         :     0.9147 
 a2 scaling factor         :     5.0570 
 ad hoc parameters k1-k3   :    16.0000     1.3333    -4.0000 

 Edisp/kcal,au: -60.990917401440  -0.097195203286 
 E6   /kcal   : -32.570659501 
 E8   /kcal   : -28.420257901 
 % E8         :  46.597524864 

-------------------------   ----------------
Dispersion correction           -0.097195203
-------------------------   ----------------


-------------------------   --------------------
FINAL SINGLE POINT ENERGY     -1801.598575208706
-------------------------   --------------------


                            ***************************************
                            *     ORCA property calculations      *
                            ***************************************


  WARNING: The energy has been calculated at the MP2 level but the densities
           used in the property calculations are still SCF densities
           MP2 response densities have not been calculated 
           use %mp2 Density relaxed end
           or  %mp2 Density unrelaxed end

                                    ---------------------
                                    Active property flags
                                    ---------------------
   (+) Dipole Moment


------------------------------------------------------------------------------
                       ORCA ELECTRIC PROPERTIES CALCULATION
------------------------------------------------------------------------------

Dipole Moment Calculation                       ... on
Quadrupole Moment Calculation                   ... off
Polarizability Calculation                      ... off
GBWName                                         ... MOR27_pr07.gbw
Electron density file                           ... MOR27_pr07.scfp
The origin for moment calculation is the CENTER OF MASS  = ( 0.000014,  0.004958 -0.000129)

-------------
DIPOLE MOMENT
-------------
                                X             Y             Z
Electronic contribution:      0.02009      -1.51098      17.23668
Nuclear contribution   :     -0.02072       1.50197     -16.46211
                        -----------------------------------------
Total Dipole Moment    :     -0.00062      -0.00900       0.77457
                        -----------------------------------------
Magnitude (a.u.)       :      0.77463
Magnitude (Debye)      :      1.96894



--------------------
Rotational spectrum 
--------------------
 
Rotational constants in cm-1:     0.008070     0.003719     0.003518 
Rotational constants in MHz :   241.945038   111.491092   105.477311 

 Dipole components along the rotational axes: 
x,y,z [a.u.] :    -0.000624     0.009895     0.774562 
x,y,z [Debye]:    -0.001587     0.025151     1.968780 

 

Timings for individual modules:

Sum of individual times         ...      916.681 sec (=  15.278 min)
GTO integral calculation        ...       15.218 sec (=   0.254 min)   1.7 %
SCF iterations                  ...      730.732 sec (=  12.179 min)  79.7 %
MP2 module                      ...      170.731 sec (=   2.846 min)  18.6 %
                             ****ORCA TERMINATED NORMALLY****
TOTAL RUN TIME: 0 days 0 hours 15 minutes 17 seconds 729 msec
