
                                 *****************
                                 * O   R   C   A *
                                 *****************

           --- An Ab Initio, DFT and Semiempirical electronic structure package ---

                  #######################################################
                  #                        -***-                        #
                  #          Department of theory and spectroscopy      #
                  #               Directorship: Frank Neese             #
                  #        Max Planck Institute fuer Kohlenforschung    #
                  #                Kaiser Wilhelm Platz 1               #
                  #                 D-45470 Muelheim/Ruhr               #
                  #                      Germany                        #
                  #                                                     #
                  #                  All rights reserved                #
                  #                        -***-                        #
                  #######################################################


                         Program Version 4.2.0 -  RELEASE  -


 With contributions from (in alphabetic order):
   Daniel Aravena         : Magnetic Suceptibility
   Michael Atanasov       : Ab Initio Ligand Field Theory (pilot matlab implementation)
   Alexander A. Auer      : GIAO ZORA, VPT2
   Ute Becker             : Parallelization
   Giovanni Bistoni       : ED, misc. LED, open-shell LED, HFLED
   Martin Brehm           : Molecular dynamics
   Dmytro Bykov           : SCF Hessian
   Vijay G. Chilkuri      : MRCI spin determinant printing, contributions to CSF-ICE
   Dipayan Datta          : RHF DLPNO-CCSD density
   Achintya Kumar Dutta   : EOM-CC, STEOM-CC
   Dmitry Ganyushin       : Spin-Orbit,Spin-Spin,Magnetic field MRCI
   Miquel Garcia          : C-PCM Hessian, Gaussian charge scheme
   Yang Guo               : DLPNO-NEVPT2, CIM, IAO-localization
   Andreas Hansen         : Spin unrestricted coupled pair/coupled cluster methods
   Benjamin Helmich-Paris : CASSCF linear response (MC-RPA)
   Lee Huntington         : MR-EOM, pCC
   Robert Izsak           : Overlap fitted RIJCOSX, COSX-SCS-MP3, EOM
   Christian Kollmar      : KDIIS, OOCD, Brueckner-CCSD(T), CCSD density
   Simone Kossmann        : Meta GGA functionals, TD-DFT gradient, OOMP2, MP2 Hessian
   Martin Krupicka        : AUTO-CI
   Lucas Lang             : DCDCAS
   Dagmar Lenk            : GEPOL surface, SMD
   Dimitrios Liakos       : Extrapolation schemes; Compound Job, initial MDCI parallelization
   Dimitrios Manganas     : Further ROCIS development; embedding schemes
   Dimitrios Pantazis     : SARC Basis sets
   Taras Petrenko         : DFT Hessian,TD-DFT gradient, ASA, ECA, R-Raman, ABS, FL, XAS/XES, NRVS
   Peter Pinski           : DLPNO-MP2, DLPNO-MP2 Gradient
   Christoph Reimann      : Effective Core Potentials
   Marius Retegan         : Local ZFS, SOC
   Christoph Riplinger    : Optimizer, TS searches, QM/MM, DLPNO-CCSD(T), (RO)-DLPNO pert. Triples
   Tobias Risthaus        : Range-separated hybrids, TD-DFT gradient, RPA, STAB
   Michael Roemelt        : Original ROCIS implementation
   Masaaki Saitow         : Open-shell DLPNO-CCSD energy and density
   Barbara Sandhoefer     : DKH picture change effects
   Avijit Sen             : IP-ROCIS
   Kantharuban Sivalingam : CASSCF convergence, NEVPT2, FIC-MRCI
   Bernardo de Souza      : ESD, SOC TD-DFT
   Georgi Stoychev        : AutoAux, RI-MP2 NMR
   Willem Van den Heuvel  : Paramagnetic NMR
   Boris Wezisla          : Elementary symmetry handling
   Frank Wennmohs         : Technical directorship


 We gratefully acknowledge several colleagues who have allowed us to
 interface, adapt or use parts of their codes:
   Stefan Grimme, W. Hujo, H. Kruse,             : VdW corrections, initial TS optimization,
                  C. Bannwarth                     DFT functionals, gCP, sTDA/sTD-DF
   Ed Valeev, F. Pavosevic, A. Kumar             : LibInt (2-el integral package), F12 methods
   Garnet Chan, S. Sharma, J. Yang, R. Olivares  : DMRG
   Ulf Ekstrom                                   : XCFun DFT Library
   Mihaly Kallay                                 : mrcc  (arbitrary order and MRCC methods)
   Andreas Klamt, Michael Diedenhofen            : otool_cosmo (COSMO solvation model)
   Jiri Pittner, Ondrej Demel                    : Mk-CCSD
   Frank Weinhold                                : gennbo (NPA and NBO analysis)
   Christopher J. Cramer and Donald G. Truhlar   : smd solvation model
   Lars Goerigk                                  : TD-DFT with DH, B97 family of functionals
   V. Asgeirsson, H. Jonsson                     : NEB implementation
   FAccTs GmbH                                   : IRC, NEB, NEB-TS, Multilevel, MM, QM/MM, CI optimization
   S Lehtola, MJT Oliveira, MAL Marques          : LibXC Library


 Your calculation uses the libint2 library for the computation of 2-el integrals
 For citations please refer to: http://libint.valeyev.net

 Your ORCA version has been built with support for libXC version: 4.2.3
 For citations please refer to: https://tddft.org/programs/libxc/

 This ORCA versions uses:
   CBLAS   interface :  Fast vector & matrix operations
   LAPACKE interface :  Fast linear algebra routines
   SCALAPACK package :  Parallel linear algebra routines


Your calculation utilizes the atom-pairwise dispersion correction
with the Becke-Johnson damping scheme (D3BJ)
Cite in your paper:
S.Grimme, S.Ehrlich, L.Goerigk, J Comput Chem, (2011), 32, 1456–1465 
S.Grimme, J.Antony, S.Ehrlich and H.Krieg, J.Chem.Phys., 132, (2010), 154104 
   

----- Orbital basis set information -----
Your calculation utilizes the basis: def2-TZVPPD
   F. Weigend and R. Ahlrichs, Phys. Chem. Chem. Phys. 7, 3297 (2005).
   D. Rappoport and F. Furche, J. Chem. Phys. 133 134105 (2010).

----- AuxC basis set information -----
Your calculation utilizes the auxiliary basis: def2-TZVPPD/C
   A. Hellweg, C. Hattig, S. Hofener and W. Klopper, Theor. Chem. Acc. 117, 587 (2007).

----- AuxJK basis set information -----
Your calculation utilizes the auxiliary basis: def2/JK
   H-Ba, Hf-Rn: F. Weigend, J. Comput. Chem. 29, 167 (2008).

================================================================================
                                        WARNINGS
                       Please study these warnings very carefully!
================================================================================


WARNING: No MP2 level density has been requested!
         To caclulate MP2 level properties use
         %mp2 Density relaxed end
         or
         %mp2 Density unrelaxed end
         Otherwise for double-hybrid DFT only the energy is correct!

WARNING: The frozen-core approximation is turned on by default for 
         the MP2 part of double-hybrid DFT.

INFO   : the flag for use of LIBINT has been found!

================================================================================
                                       INPUT FILE
================================================================================
NAME = MOR24_pme3.in
|  1> #
|  2> # MOR24_pme3 ri-B2PLYP-D3BJ/Def2-TZVPPD
|  3> #
|  4> ! rijk ri-b2plyp d3bj def2-tzvppd def2/jk def2-tzvppd/c grid4 nofinalgrid
|  5> 
|  6> *xyz 0 1
|  7> P        0.000014   -0.000022   -0.608033 
|  8> C        1.496142   -0.644859    0.281510 
|  9> H        1.381991   -0.595756    1.371521 
| 10> H        2.374450   -0.059896   -0.010082 
| 11> H        1.674284   -1.684941   -0.010215 
| 12> C       -0.189596    1.618079    0.281483 
| 13> H       -0.175035    1.494773    1.371519 
| 14> H       -1.135286    2.086341   -0.010098 
| 15> H        0.622176    2.292253   -0.010285 
| 16> C       -1.306577   -0.973225    0.281488 
| 17> H       -1.206743   -0.899098    1.371498 
| 18> H       -1.239562   -2.026308   -0.010273 
| 19> H       -2.296301   -0.607013   -0.009976 
| 20> *
| 21> 
| 22> %maxcore 5000
| 23> 
| 24> %pal
| 25> nprocs = 24
| 26> end
| 27> 
| 28> 
| 29>                          ****END OF INPUT****
================================================================================

                       ****************************
                       * Single Point Calculation *
                       ****************************

---------------------------------
CARTESIAN COORDINATES (ANGSTROEM)
---------------------------------
  P      0.000014   -0.000022   -0.608033
  C      1.496142   -0.644859    0.281510
  H      1.381991   -0.595756    1.371521
  H      2.374450   -0.059896   -0.010082
  H      1.674284   -1.684941   -0.010215
  C     -0.189596    1.618079    0.281483
  H     -0.175035    1.494773    1.371519
  H     -1.135286    2.086341   -0.010098
  H      0.622176    2.292253   -0.010285
  C     -1.306577   -0.973225    0.281488
  H     -1.206743   -0.899098    1.371498
  H     -1.239562   -2.026308   -0.010273
  H     -2.296301   -0.607013   -0.009976

----------------------------
CARTESIAN COORDINATES (A.U.)
----------------------------
  NO LB      ZA    FRAG     MASS         X           Y           Z
   0 P    15.0000    0    30.974    0.000026   -0.000042   -1.149016
   1 C     6.0000    0    12.011    2.827299   -1.218607    0.531977
   2 H     1.0000    0     1.008    2.611585   -1.125816    2.591799
   3 H     1.0000    0     1.008    4.487060   -0.113187   -0.019052
   4 H     1.0000    0     1.008    3.163938   -3.184077   -0.019304
   5 C     6.0000    0    12.011   -0.358285    3.057726    0.531926
   6 H     1.0000    0     1.008   -0.330768    2.824712    2.591795
   7 H     1.0000    0     1.008   -2.145380    3.942613   -0.019082
   8 H     1.0000    0     1.008    1.175742    4.331730   -0.019436
   9 C     6.0000    0    12.011   -2.469073   -1.839129    0.531935
  10 H     1.0000    0     1.008   -2.280414   -1.699049    2.591756
  11 H     1.0000    0     1.008   -2.342433   -3.829167   -0.019413
  12 H     1.0000    0     1.008   -4.339380   -1.147088   -0.018852

--------------------------------
INTERNAL COORDINATES (ANGSTROEM)
--------------------------------
 P      0   0   0     0.000000000000     0.00000000     0.00000000
 C      1   0   0     1.856205941646     0.00000000     0.00000000
 H      2   1   0     1.097071344777   112.13110714     0.00000000
 H      2   1   3     1.094820783826   109.47323922   239.00231603
 H      2   1   3     1.094809853131   109.48040574   121.00380486
 C      1   2   3     1.856190052919    98.94678480    50.31151194
 H      6   1   2     1.097084715805   112.13583001   309.70020222
 H      6   1   2     1.094814302202   109.47860882   188.69787616
 H      6   1   2     1.094811823139   109.47230593    70.69848452
 C      1   2   3     1.856219741822    98.94955960   309.70038817
 H     10   1   2     1.097079504769   112.12590837    50.29339066
 H     10   1   2     1.094805597462   109.48243156   289.29142906
 H     10   1   2     1.094813266460   109.47414643   171.28736402

---------------------------
INTERNAL COORDINATES (A.U.)
---------------------------
 P      0   0   0     0.000000000000     0.00000000     0.00000000
 C      1   0   0     3.507720877868     0.00000000     0.00000000
 H      2   1   0     2.073164391001   112.13110714     0.00000000
 H      2   1   3     2.068911447156   109.47323922   239.00231603
 H      2   1   3     2.068890791136   109.48040574   121.00380486
 C      1   2   3     3.507690852526    98.94678480    50.31151194
 H      6   1   2     2.073189658582   112.13583001   309.70020222
 H      6   1   2     2.068899198661   109.47860882   188.69787616
 H      6   1   2     2.068894513911   109.47230593    70.69848452
 C      1   2   3     3.507746956422    98.94955960   309.70038817
 H     10   1   2     2.073179811152   112.12590837    50.29339066
 H     10   1   2     2.068882749088   109.48243156   289.29142906
 H     10   1   2     2.068897241392   109.47414643   171.28736402

---------------------
BASIS SET INFORMATION
---------------------
There are 3 groups of distinct atoms

 Group   1 Type P   : 15s9p4d1f contracted to 6s5p4d1f pattern {732111/51111/1111/1}
 Group   2 Type C   : 12s6p3d1f contracted to 6s3p3d1f pattern {621111/411/111/1}
 Group   3 Type H   : 5s3p1d contracted to 3s3p1d pattern {311/111/1}

Atom   0P    basis set group =>   1
Atom   1C    basis set group =>   2
Atom   2H    basis set group =>   3
Atom   3H    basis set group =>   3
Atom   4H    basis set group =>   3
Atom   5C    basis set group =>   2
Atom   6H    basis set group =>   3
Atom   7H    basis set group =>   3
Atom   8H    basis set group =>   3
Atom   9C    basis set group =>   2
Atom  10H    basis set group =>   3
Atom  11H    basis set group =>   3
Atom  12H    basis set group =>   3
---------------------------------
AUXILIARY/C BASIS SET INFORMATION
---------------------------------
There are 3 groups of distinct atoms

 Group   1 Type P   : 12s9p8d6f2g contracted to 12s9p8d6f2g pattern {111111111111/111111111/11111111/111111/11}
 Group   2 Type C   : 9s7p6d4f1g contracted to 9s7p5d4f1g pattern {111111111/1111111/21111/1111/1}
 Group   3 Type H   : 5s4p3d1f contracted to 5s4p3d1f pattern {11111/1111/111/1}

Atom   0P    basis set group =>   1
Atom   1C    basis set group =>   2
Atom   2H    basis set group =>   3
Atom   3H    basis set group =>   3
Atom   4H    basis set group =>   3
Atom   5C    basis set group =>   2
Atom   6H    basis set group =>   3
Atom   7H    basis set group =>   3
Atom   8H    basis set group =>   3
Atom   9C    basis set group =>   2
Atom  10H    basis set group =>   3
Atom  11H    basis set group =>   3
Atom  12H    basis set group =>   3
----------------------------------
AUXILIARY/JK BASIS SET INFORMATION
----------------------------------
There are 3 groups of distinct atoms

 Group   1 Type P   : 16s12p10d4f1g contracted to 13s11p9d4f1g pattern {4111111111111/21111111111/211111111/1111/1}
 Group   2 Type C   : 14s10p6d2f1g contracted to 10s8p5d1f1g pattern {5111111111/31111111/21111/2/1}
 Group   3 Type H   : 4s2p2d contracted to 2s2p2d pattern {31/11/11}

Atom   0P    basis set group =>   1
Atom   1C    basis set group =>   2
Atom   2H    basis set group =>   3
Atom   3H    basis set group =>   3
Atom   4H    basis set group =>   3
Atom   5C    basis set group =>   2
Atom   6H    basis set group =>   3
Atom   7H    basis set group =>   3
Atom   8H    basis set group =>   3
Atom   9C    basis set group =>   2
Atom  10H    basis set group =>   3
Atom  11H    basis set group =>   3
Atom  12H    basis set group =>   3


           ************************************************************
           *        Program running with 24 parallel MPI-processes    *
           *              working on a common directory               *
           ************************************************************
------------------------------------------------------------------------------
                           ORCA GTO INTEGRAL CALCULATION
                           -- RI-GTO INTEGRALS CHOSEN --
------------------------------------------------------------------------------

                         BASIS SET STATISTICS AND STARTUP INFO

Gaussian basis set:
 # of primitive gaussian shells          ...  176
 # of primitive gaussian functions       ...  396
 # of contracted shells                  ...  118
 # of contracted basis functions         ...  312
 Highest angular momentum                ...    3
 Maximum contraction depth               ...    7
Auxiliary gaussian basis set:
 # of primitive gaussian shells          ...  214
 # of primitive gaussian functions       ...  610
 # of contracted shells                  ...  167
 # of contracted aux-basis functions     ...  515
 Highest angular momentum                ...    4
 Maximum contraction depth               ...    5
Ratio of auxiliary to basis functions    ...  1.65
Integral package used                  ... LIBINT
 One Electron integrals                  ... done
 Ordering auxiliary basis shells         ... done
 Integral threshhold             Thresh  ...  1.000e-10
 Primitive cut-off               TCut    ...  1.000e-11
 Pre-screening matrix                    ... done
 Shell pair data                         ... 
 Ordering of the shell pairs             ... done (   0.001 sec) 6802 of 7021 pairs
 Determination of significant pairs      ... done (   0.000 sec)
 Creation of shell pair data             ... done (   0.001 sec)
 Storage of shell pair data              ... done (   0.006 sec)
 Shell pair data done in (   0.008 sec)
 Computing two index integrals           ... done
 Cholesky decomposition of the V-matrix  ... done


Timings:
 Total evaluation time                   ...   0.223 sec (  0.004 min)
 One electron matrix time                ...   0.065 sec (  0.001 min) = 29.3%
 Schwartz matrix evaluation time         ...   0.115 sec (  0.002 min) = 51.7%
 Two index repulsion integral time       ...   0.005 sec (  0.000 min) =  2.1%
 Cholesky decomposition of V             ...   0.004 sec (  0.000 min) =  1.9%
 Three index repulsion integral time     ...   0.000 sec (  0.000 min) =  0.0%



           ************************************************************
           *        Program running with 24 parallel MPI-processes    *
           *              working on a common directory               *
           ************************************************************
-------------------------------------------------------------------------------
                                 ORCA SCF
-------------------------------------------------------------------------------

------------
SCF SETTINGS
------------
Hamiltonian:
 Density Functional     Method          .... DFT(GTOs)
 Exchange Functional    Exchange        .... B88
   X-Alpha parameter    XAlpha          ....  0.666667
   Becke's b parameter  XBeta           ....  0.004200
 Correlation Functional Correlation     .... LYP
 LDA part of GGA corr.  LDAOpt          .... VWN-3
 Gradients option       PostSCFGGA      .... off
 Hybrid DFT is turned on
   Fraction HF Exchange ScalHFX         ....  0.530000
   Scaling of DF-GGA-X  ScalDFX         ....  0.470000
   Scaling of DF-GGA-C  ScalDFC         ....  0.730000
   Scaling of DF-LDA-C  ScalLDAC        ....  0.730000
   Perturbative correction              ....  0.270000
   Density functional embedding theory  .... OFF
 RI-approximation to the Coulomb term is turned on
   Number of auxiliary basis functions  .... 515
   RI-JK (J+K treated both via RI)      .... on


General Settings:
 Integral files         IntName         .... MOR24_pme3
 Hartree-Fock type      HFTyp           .... RHF
 Total Charge           Charge          ....    0
 Multiplicity           Mult            ....    1
 Number of Electrons    NEL             ....   42
 Basis Dimension        Dim             ....  312
 Nuclear Repulsion      ENuc            ....    176.7484710169 Eh

Convergence Acceleration:
 DIIS                   CNVDIIS         .... on
   Start iteration      DIISMaxIt       ....    12
   Startup error        DIISStart       ....  0.200000
   # of expansion vecs  DIISMaxEq       ....     5
   Bias factor          DIISBfac        ....   1.050
   Max. coefficient     DIISMaxC        ....  10.000
 Newton-Raphson         CNVNR           .... off
 SOSCF                  CNVSOSCF        .... on
   Start iteration      SOSCFMaxIt      ....   150
   Startup grad/error   SOSCFStart      ....  0.003300
 Level Shifting         CNVShift        .... on
   Level shift para.    LevelShift      ....    0.2500
   Turn off err/grad.   ShiftErr        ....    0.0010
 Zerner damping         CNVZerner       .... off
 Static damping         CNVDamp         .... on
   Fraction old density DampFac         ....    0.7000
   Max. Damping (<1)    DampMax         ....    0.9800
   Min. Damping (>=0)   DampMin         ....    0.0000
   Turn off err/grad.   DampErr         ....    0.1000
 Fernandez-Rico         CNVRico         .... off

SCF Procedure:
 Maximum # iterations   MaxIter         ....   125
 SCF integral mode      SCFMode         .... Direct
   Integral package                     .... LIBINT
 Reset frequency        DirectResetFreq ....    20
 Integral Threshold     Thresh          ....  1.000e-10 Eh
 Primitive CutOff       TCut            ....  1.000e-11 Eh

Convergence Tolerance:
 Convergence Check Mode ConvCheckMode   .... Total+1el-Energy
 Convergence forced     ConvForced      .... 0
 Energy Change          TolE            ....  1.000e-06 Eh
 1-El. energy change                    ....  1.000e-03 Eh
 Orbital Gradient       TolG            ....  5.000e-05
 Orbital Rotation angle TolX            ....  5.000e-05
 DIIS Error             TolErr          ....  1.000e-06


Diagonalization of the overlap matrix:
Smallest eigenvalue                        ... 2.657e-05
Time for diagonalization                   ...    0.015 sec
Threshold for overlap eigenvalues          ... 1.000e-08
Number of eigenvalues below threshold      ... 0
Time for construction of square roots      ...    0.011 sec
Total time needed                          ...    0.027 sec

-------------------
DFT GRID GENERATION
-------------------

General Integration Accuracy     IntAcc      ...  4.670
Radial Grid Type                 RadialGrid  ... Gauss-Chebyshev
Angular Grid (max. acc.)         AngularGrid ... Lebedev-302
Angular grid pruning method      GridPruning ... 3 (G Style)
Weight generation scheme         WeightScheme... Becke
Basis function cutoff            BFCut       ...    1.0000e-10
Integration weight cutoff        WCut        ...    1.0000e-14
Grids for H and He will be reduced by one unit

# of grid points (after initial pruning)     ...  56028 (   0.0 sec)
# of grid points (after weights+screening)   ...  52082 (   0.0 sec)
nearest neighbour list constructed           ...    0.0 sec
Grid point re-assignment to atoms done       ...    0.0 sec
Grid point division into batches done        ...    0.1 sec
Reduced shell lists constructed in    0.2 sec

Total number of grid points                  ...    52082
Total number of batches                      ...      819
Average number of points per batch           ...       63
Average number of grid points per atom       ...     4006
Average number of shells per batch           ...    78.58 (66.60%)
Average number of basis functions per batch  ...   209.31 (67.09%)
Average number of large shells per batch     ...    64.28 (81.80%)
Average number of large basis fcns per batch ...   169.89 (81.17%)
Average number of aux-shells per batch       ...    78.58 (47.06%)
Average number of aux functions per batch    ...   209.31 (40.64%)
Maximum spatial batch extension              ...  14.82, 16.68,  9.68 au
Average spatial batch extension              ...   0.14,  0.14,  0.12 au

Time for grid setup =    0.277 sec

------------------------------
INITIAL GUESS: MODEL POTENTIAL
------------------------------
Loading Hartree-Fock densities                     ... done
Calculating cut-offs                               ... done
Setting up the integral package                    ... done
Initializing the effective Hamiltonian             ... done
Starting the Coulomb interaction                   ... done (   0.0 sec)
Reading the grid                                   ... done
Mapping shells                                     ... done
Starting the XC term evaluation                    ... done (   0.1 sec)
  promolecular density results
     # of electrons  =     41.995566421
     EX              =    -40.710696632
     EC              =     -0.476502466
     EX+EC           =    -41.187199099
Transforming the Hamiltonian                       ... done (   0.0 sec)
Diagonalizing the Hamiltonian                      ... done (   0.0 sec)
Back transforming the eigenvectors                 ... done (   0.0 sec)
Now organizing SCF variables                       ... done
                      ------------------
                      INITIAL GUESS DONE (   0.4 sec)
                      ------------------
--------------
SCF ITERATIONS
--------------
ITER       Energy         Delta-E        Max-DP      RMS-DP      [F,P]     Damp
  0   -460.4519784857   0.000000000000 0.04066729  0.00071323  0.2134839 0.7000
  1   -460.4178298432   0.034148642456 0.03198588  0.00072131  0.1684864 0.7000
                               ***Turning on DIIS***
  2   -460.4710435702  -0.053213726944 0.09939599  0.00160165  0.0809663 0.0000
  3   -460.6050109457  -0.133967375556 0.00824349  0.00016342  0.1189089 0.7000
  4   -460.6534610241  -0.048450078425 0.00713536  0.00016603  0.1087080 0.7000
  5   -460.6719957559  -0.018534731800 0.01844249  0.00048087  0.0868126 0.0000
  6   -460.6796296109  -0.007633855013 0.01488258  0.00013109  0.0143111 0.0000
  7   -460.6805757136  -0.000946102624 0.00480252  0.00006323  0.0075978 0.0000
                      *** Initiating the SOSCF procedure ***
                           *** Shutting down DIIS ***
                      *** Re-Reading the Fockian *** 
                      *** Removing any level shift *** 
ITER      Energy       Delta-E        Grad      Rot      Max-DP    RMS-DP
  8   -460.68090764  -0.0003319243  0.000593  0.000593  0.001011  0.000022
  9   -460.68094523  -0.0000375918  0.000303  0.000824  0.000528  0.000015
 10   -460.68094832  -0.0000030923  0.000227  0.000144  0.000414  0.000006
 11   -460.68095022  -0.0000018977  0.000043  0.000028  0.000105  0.000002
                 **** Energy Check signals convergence ****
              ***Rediagonalizing the Fockian in SOSCF/NRSCF***

               *****************************************************
               *                     SUCCESS                       *
               *           SCF CONVERGED AFTER  12 CYCLES          *
               *****************************************************


----------------
TOTAL SCF ENERGY
----------------

Total Energy       :         -460.68095024 Eh          -12535.76596 eV

Components:
Nuclear Repulsion  :          176.74847102 Eh            4809.57041 eV
Electronic Energy  :         -637.42942126 Eh          -17345.33637 eV
One Electron Energy:         -982.51943193 Eh          -26735.71296 eV
Two Electron Energy:          345.09001068 Eh            9390.37659 eV

Virial components:
Potential Energy   :         -920.33930561 Eh          -25043.70570 eV
Kinetic Energy     :          459.65835537 Eh           12507.93974 eV
Virial Ratio       :            2.00222468


DFT components:
N(Alpha)           :       20.999992384710 electrons
N(Beta)            :       20.999992384710 electrons
N(Total)           :       41.999984769420 electrons
E(X)               :      -19.449591870825 Eh       
E(C)               :       -1.059070274333 Eh       
E(XC)              :      -20.508662145158 Eh       
DFET-embed. en.    :        0.000000000000 Eh       

---------------
SCF CONVERGENCE
---------------

  Last Energy change         ...   -1.8912e-08  Tolerance :   1.0000e-06
  Last MAX-Density change    ...    7.9870e-05  Tolerance :   1.0000e-05
  Last RMS-Density change    ...    1.1640e-06  Tolerance :   1.0000e-06
  Last Orbital Gradient      ...    1.1894e-05  Tolerance :   5.0000e-05
  Last Orbital Rotation      ...    1.9246e-05  Tolerance :   5.0000e-05

             **** THE GBW FILE WAS UPDATED (MOR24_pme3.gbw) ****
             **** DENSITY FILE WAS UPDATED (MOR24_pme3.scfp) ****
             **** ENERGY FILE WAS UPDATED (MOR24_pme3.en.tmp) ****
             **** THE GBW FILE WAS UPDATED (MOR24_pme3.gbw) ****
             **** DENSITY FILE WAS UPDATED (MOR24_pme3.scfp) ****
----------------
ORBITAL ENERGIES
----------------

  NO   OCC          E(Eh)            E(eV) 
   0   2.0000     -78.251512     -2129.3319 
   1   2.0000     -10.606259      -288.6110 
   2   2.0000     -10.606258      -288.6110 
   3   2.0000     -10.606250      -288.6107 
   4   2.0000      -6.919383      -188.2860 
   5   2.0000      -4.970356      -135.2503 
   6   2.0000      -4.970355      -135.2502 
   7   2.0000      -4.967129      -135.1625 
   8   2.0000      -0.865906       -23.5625 
   9   2.0000      -0.789251       -21.4766 
  10   2.0000      -0.789248       -21.4765 
  11   2.0000      -0.604753       -16.4562 
  12   2.0000      -0.504051       -13.7159 
  13   2.0000      -0.489341       -13.3157 
  14   2.0000      -0.489330       -13.3154 
  15   2.0000      -0.461360       -12.5543 
  16   2.0000      -0.461356       -12.5541 
  17   2.0000      -0.448049       -12.1920 
  18   2.0000      -0.377387       -10.2692 
  19   2.0000      -0.377377       -10.2690 
  20   2.0000      -0.270295        -7.3551 
  21   0.0000       0.035855         0.9757 
  22   0.0000       0.050340         1.3698 
  23   0.0000       0.050343         1.3699 
  24   0.0000       0.072146         1.9632 
  25   0.0000       0.097391         2.6501 
  26   0.0000       0.102895         2.7999 
  27   0.0000       0.102903         2.8001 
  28   0.0000       0.111135         3.0241 
  29   0.0000       0.111149         3.0245 
  30   0.0000       0.136298         3.7088 
  31   0.0000       0.136303         3.7090 
  32   0.0000       0.140362         3.8194 
  33   0.0000       0.147732         4.0200 
  34   0.0000       0.168215         4.5774 
  35   0.0000       0.168228         4.5777 
  36   0.0000       0.175251         4.7688 
  37   0.0000       0.175265         4.7692 
  38   0.0000       0.178478         4.8566 
  39   0.0000       0.225762         6.1433 
  40   0.0000       0.225774         6.1436 
  41   0.0000       0.235858         6.4180 
  42   0.0000       0.248292         6.7564 
  43   0.0000       0.249586         6.7916 
  44   0.0000       0.249639         6.7930 
  45   0.0000       0.259746         7.0680 
  46   0.0000       0.274968         7.4823 
  47   0.0000       0.274981         7.4826 
  48   0.0000       0.276955         7.5363 
  49   0.0000       0.293072         7.9749 
  50   0.0000       0.301369         8.2007 
  51   0.0000       0.301409         8.2018 
  52   0.0000       0.311398         8.4736 
  53   0.0000       0.311425         8.4743 
  54   0.0000       0.320071         8.7096 
  55   0.0000       0.320133         8.7113 
  56   0.0000       0.330974         9.0063 
  57   0.0000       0.343899         9.3580 
  58   0.0000       0.343930         9.3588 
  59   0.0000       0.360531         9.8105 
  60   0.0000       0.361614         9.8400 
  61   0.0000       0.379501        10.3267 
  62   0.0000       0.379556        10.3282 
  63   0.0000       0.381054        10.3690 
  64   0.0000       0.384993        10.4762 
  65   0.0000       0.407211        11.0808 
  66   0.0000       0.407234        11.0814 
  67   0.0000       0.418089        11.3768 
  68   0.0000       0.418126        11.3778 
  69   0.0000       0.437182        11.8963 
  70   0.0000       0.439482        11.9589 
  71   0.0000       0.439490        11.9591 
  72   0.0000       0.445578        12.1248 
  73   0.0000       0.445614        12.1258 
  74   0.0000       0.464727        12.6459 
  75   0.0000       0.481093        13.0912 
  76   0.0000       0.481119        13.0919 
  77   0.0000       0.491989        13.3877 
  78   0.0000       0.514850        14.0098 
  79   0.0000       0.515820        14.0362 
  80   0.0000       0.516292        14.0490 
  81   0.0000       0.516307        14.0494 
  82   0.0000       0.538749        14.6601 
  83   0.0000       0.567205        15.4344 
  84   0.0000       0.567231        15.4351 
  85   0.0000       0.582283        15.8447 
  86   0.0000       0.582298        15.8451 
  87   0.0000       0.587743        15.9933 
  88   0.0000       0.597016        16.2456 
  89   0.0000       0.624825        17.0023 
  90   0.0000       0.624895        17.0042 
  91   0.0000       0.636867        17.3300 
  92   0.0000       0.636920        17.3315 
  93   0.0000       0.666374        18.1329 
  94   0.0000       0.723363        19.6837 
  95   0.0000       0.723445        19.6859 
  96   0.0000       0.727805        19.8046 
  97   0.0000       0.728075        19.8119 
  98   0.0000       0.728122        19.8132 
  99   0.0000       0.730605        19.8808 
 100   0.0000       0.748456        20.3665 
 101   0.0000       0.748481        20.3672 
 102   0.0000       0.753815        20.5124 
 103   0.0000       0.783449        21.3187 
 104   0.0000       0.783634        21.3238 
 105   0.0000       0.791964        21.5504 
 106   0.0000       0.808454        21.9992 
 107   0.0000       0.815117        22.1805 
 108   0.0000       0.815143        22.1812 
 109   0.0000       0.874970        23.8092 
 110   0.0000       0.875000        23.8100 
 111   0.0000       0.899956        24.4890 
 112   0.0000       0.900034        24.4912 
 113   0.0000       0.964649        26.2494 
 114   0.0000       0.964665        26.2499 
 115   0.0000       0.980858        26.6905 
 116   0.0000       0.997370        27.1398 
 117   0.0000       1.013643        27.5826 
 118   0.0000       1.013653        27.5829 
 119   0.0000       1.046203        28.4686 
 120   0.0000       1.109468        30.1902 
 121   0.0000       1.131578        30.7918 
 122   0.0000       1.131602        30.7925 
 123   0.0000       1.154338        31.4111 
 124   0.0000       1.189920        32.3794 
 125   0.0000       1.189936        32.3798 
 126   0.0000       1.254807        34.1450 
 127   0.0000       1.263395        34.3787 
 128   0.0000       1.281797        34.8795 
 129   0.0000       1.281874        34.8816 
 130   0.0000       1.303046        35.4577 
 131   0.0000       1.303087        35.4588 
 132   0.0000       1.351177        36.7674 
 133   0.0000       1.356573        36.9142 
 134   0.0000       1.356636        36.9159 
 135   0.0000       1.378142        37.5011 
 136   0.0000       1.378162        37.5017 
 137   0.0000       1.387964        37.7684 
 138   0.0000       1.425016        38.7767 
 139   0.0000       1.460544        39.7434 
 140   0.0000       1.460574        39.7442 
 141   0.0000       1.472837        40.0779 
 142   0.0000       1.472885        40.0792 
 143   0.0000       1.475383        40.1472 
 144   0.0000       1.549458        42.1629 
 145   0.0000       1.549478        42.1634 
 146   0.0000       1.563943        42.5570 
 147   0.0000       1.622076        44.1389 
 148   0.0000       1.635846        44.5136 
 149   0.0000       1.635851        44.5138 
 150   0.0000       1.668531        45.4030 
 151   0.0000       1.675205        45.5846 
 152   0.0000       1.675224        45.5852 
 153   0.0000       1.717330        46.7309 
 154   0.0000       1.719118        46.7796 
 155   0.0000       1.719142        46.7802 
 156   0.0000       1.719159        46.7807 
 157   0.0000       1.748077        47.5676 
 158   0.0000       1.748099        47.5682 
 159   0.0000       1.797844        48.9218 
 160   0.0000       1.797858        48.9222 
 161   0.0000       1.873023        50.9675 
 162   0.0000       1.929224        52.4968 
 163   0.0000       1.937080        52.7106 
 164   0.0000       1.937167        52.7130 
 165   0.0000       1.945012        52.9265 
 166   0.0000       1.966609        53.5142 
 167   0.0000       1.966642        53.5151 
 168   0.0000       1.970133        53.6100 
 169   0.0000       2.026695        55.1492 
 170   0.0000       2.026756        55.1508 
 171   0.0000       2.122275        57.7500 
 172   0.0000       2.164855        58.9087 
 173   0.0000       2.164908        58.9101 
 174   0.0000       2.310121        62.8616 
 175   0.0000       2.310160        62.8626 
 176   0.0000       2.392966        65.1159 
 177   0.0000       2.393013        65.1172 
 178   0.0000       2.409445        65.5643 
 179   0.0000       2.473111        67.2968 
 180   0.0000       2.619421        71.2781 
 181   0.0000       2.643490        71.9330 
 182   0.0000       2.643522        71.9339 
 183   0.0000       2.835315        77.1528 
 184   0.0000       2.863783        77.9275 
 185   0.0000       2.863797        77.9279 
 186   0.0000       2.891273        78.6755 
 187   0.0000       2.946031        80.1656 
 188   0.0000       2.946081        80.1669 
 189   0.0000       2.982003        81.1444 
 190   0.0000       3.005474        81.7831 
 191   0.0000       3.005474        81.7831 
 192   0.0000       3.018770        82.1449 
 193   0.0000       3.058151        83.2165 
 194   0.0000       3.058192        83.2176 
 195   0.0000       3.062442        83.3333 
 196   0.0000       3.095963        84.2454 
 197   0.0000       3.124581        85.0242 
 198   0.0000       3.124608        85.0249 
 199   0.0000       3.137128        85.3656 
 200   0.0000       3.155702        85.8710 
 201   0.0000       3.155735        85.8719 
 202   0.0000       3.188791        86.7714 
 203   0.0000       3.188812        86.7720 
 204   0.0000       3.248646        88.4001 
 205   0.0000       3.272592        89.0518 
 206   0.0000       3.272623        89.0526 
 207   0.0000       3.308474        90.0282 
 208   0.0000       3.343551        90.9827 
 209   0.0000       3.350522        91.1723 
 210   0.0000       3.350587        91.1741 
 211   0.0000       3.369585        91.6911 
 212   0.0000       3.381998        92.0288 
 213   0.0000       3.382036        92.0299 
 214   0.0000       3.475984        94.5863 
 215   0.0000       3.476093        94.5893 
 216   0.0000       3.494357        95.0863 
 217   0.0000       3.529600        96.0453 
 218   0.0000       3.583315        97.5069 
 219   0.0000       3.609329        98.2148 
 220   0.0000       3.609342        98.2152 
 221   0.0000       3.649331        99.3033 
 222   0.0000       3.649359        99.3041 
 223   0.0000       3.669721        99.8582 
 224   0.0000       3.669751        99.8590 
 225   0.0000       3.701945       100.7350 
 226   0.0000       3.701972       100.7358 
 227   0.0000       3.702628       100.7536 
 228   0.0000       3.708357       100.9095 
 229   0.0000       3.750864       102.0662 
 230   0.0000       3.750917       102.0676 
 231   0.0000       3.809485       103.6614 
 232   0.0000       3.809551       103.6632 
 233   0.0000       3.862504       105.1041 
 234   0.0000       3.867855       105.2497 
 235   0.0000       3.895396       105.9991 
 236   0.0000       3.895413       105.9996 
 237   0.0000       3.987684       108.5104 
 238   0.0000       3.987715       108.5112 
 239   0.0000       4.010207       109.1233 
 240   0.0000       4.065899       110.6387 
 241   0.0000       4.065930       110.6396 
 242   0.0000       4.133747       112.4850 
 243   0.0000       4.133756       112.4852 
 244   0.0000       4.177192       113.6672 
 245   0.0000       4.178396       113.6999 
 246   0.0000       4.225244       114.9747 
 247   0.0000       4.225277       114.9756 
 248   0.0000       4.280002       116.4648 
 249   0.0000       4.280002       116.4648 
 250   0.0000       4.281886       116.5160 
 251   0.0000       4.304276       117.1253 
 252   0.0000       4.347280       118.2955 
 253   0.0000       4.347313       118.2964 
 254   0.0000       4.347798       118.3096 
 255   0.0000       4.433753       120.6485 
 256   0.0000       4.433797       120.6498 
 257   0.0000       4.442561       120.8882 
 258   0.0000       4.457480       121.2942 
 259   0.0000       4.503526       122.5472 
 260   0.0000       4.503595       122.5490 
 261   0.0000       4.531670       123.3130 
 262   0.0000       4.531736       123.3148 
 263   0.0000       4.602075       125.2288 
 264   0.0000       4.731947       128.7628 
 265   0.0000       4.755115       129.3933 
 266   0.0000       4.755147       129.3941 
 267   0.0000       4.787470       130.2737 
 268   0.0000       4.793851       130.4473 
 269   0.0000       4.793878       130.4481 
 270   0.0000       4.801016       130.6423 
 271   0.0000       4.867679       132.4563 
 272   0.0000       4.867683       132.4564 
 273   0.0000       5.209084       141.7464 
 274   0.0000       5.209135       141.7478 
 275   0.0000       5.246211       142.7567 
 276   0.0000       5.257102       143.0530 
 277   0.0000       5.276421       143.5787 
 278   0.0000       5.276462       143.5798 
 279   0.0000       5.293471       144.0427 
 280   0.0000       5.293504       144.0436 
 281   0.0000       5.303888       144.3261 
 282   0.0000       5.344282       145.4253 
 283   0.0000       5.366713       146.0357 
 284   0.0000       5.366734       146.0363 
 285   0.0000       5.386468       146.5732 
 286   0.0000       5.448691       148.2664 
 287   0.0000       5.448700       148.2667 
 288   0.0000       5.480495       149.1318 
 289   0.0000       5.489785       149.3846 
 290   0.0000       5.489796       149.3849 
 291   0.0000       5.631038       153.2283 
 292   0.0000       5.631084       153.2296 
 293   0.0000       5.672243       154.3496 
 294   0.0000       5.780334       157.2909 
 295   0.0000       5.784769       157.4116 
 296   0.0000       5.826931       158.5589 
 297   0.0000       5.826981       158.5602 
 298   0.0000       5.882864       160.0809 
 299   0.0000       5.882887       160.0815 
 300   0.0000       6.166367       167.7954 
 301   0.0000       6.166398       167.7962 
 302   0.0000       6.186008       168.3298 
 303   0.0000       6.603551       179.6918 
 304   0.0000       6.603602       179.6931 
 305   0.0000       8.008394       217.9195 
 306   0.0000       8.159793       222.0392 
 307   0.0000       8.159818       222.0399 
 308   0.0000      15.613918       424.8763 
 309   0.0000      24.036504       654.0665 
 310   0.0000      24.036603       654.0692 
 311   0.0000      24.139043       656.8567 

                    ********************************
                    * MULLIKEN POPULATION ANALYSIS *
                    ********************************

-----------------------
MULLIKEN ATOMIC CHARGES
-----------------------
   0 P :    0.046401
   1 C :   -0.307020
   2 H :    0.098393
   3 H :    0.096494
   4 H :    0.096453
   5 C :   -0.306156
   6 H :    0.098582
   7 H :    0.096222
   8 H :    0.096044
   9 C :   -0.306677
  10 H :    0.098590
  11 H :    0.096234
  12 H :    0.096439
Sum of atomic charges:    0.0000000

--------------------------------
MULLIKEN REDUCED ORBITAL CHARGES
--------------------------------
  0 P s       :     5.826993  s :     5.826993
      pz      :     3.269196  p :     8.826992
      px      :     2.778918
      py      :     2.778878
      dz2     :     0.024270  d :     0.267819
      dxz     :     0.063537
      dyz     :     0.063552
      dx2y2   :     0.058204
      dxy     :     0.058256
      f0      :     0.003302  f :     0.031795
      f+1     :     0.003355
      f-1     :     0.003355
      f+2     :     0.006716
      f-2     :     0.006717
      f+3     :     0.004695
      f-3     :     0.003655
  1 C s       :     2.977547  s :     2.977547
      pz      :     1.080641  p :     3.238185
      px      :     1.044737
      py      :     1.112808
      dz2     :     0.045759  d :     0.088728
      dxz     :     0.005478
      dyz     :     0.011448
      dx2y2   :     0.013141
      dxy     :     0.012902
      f0      :     0.000751  f :     0.002560
      f+1     :     0.000361
      f-1     :     0.000123
      f+2     :     0.000192
      f-2     :     0.000201
      f+3     :     0.000305
      f-3     :     0.000628
  2 H s       :     0.852089  s :     0.852089
      pz      :     0.033681  p :     0.047531
      px      :     0.007619
      py      :     0.006231
      dz2     :     0.000385  d :     0.001987
      dxz     :     0.000842
      dyz     :     0.000715
      dx2y2   :     0.000023
      dxy     :     0.000022
  3 H s       :     0.849335  s :     0.849335
      pz      :     0.012096  p :     0.052190
      px      :     0.025381
      py      :     0.014713
      dz2     :     0.000249  d :     0.001980
      dxz     :     0.000451
      dyz     :     0.000211
      dx2y2   :     0.000728
      dxy     :     0.000341
  4 H s       :     0.849420  s :     0.849420
      pz      :     0.012039  p :     0.052149
      px      :     0.011791
      py      :     0.028318
      dz2     :     0.000249  d :     0.001979
      dxz     :     0.000053
      dyz     :     0.000609
      dx2y2   :     0.000321
      dxy     :     0.000747
  5 C s       :     2.977378  s :     2.977378
      pz      :     1.080583  p :     3.237633
      px      :     1.126207
      py      :     1.030842
      dz2     :     0.045837  d :     0.088585
      dxz     :     0.012626
      dyz     :     0.004173
      dx2y2   :     0.010730
      dxy     :     0.015219
      f0      :     0.000751  f :     0.002561
      f+1     :     0.000073
      f-1     :     0.000411
      f+2     :     0.000271
      f-2     :     0.000121
      f+3     :     0.000305
      f-3     :     0.000628
  6 H s       :     0.851910  s :     0.851910
      pz      :     0.033672  p :     0.047520
      px      :     0.005902
      py      :     0.007946
      dz2     :     0.000386  d :     0.001987
      dxz     :     0.000688
      dyz     :     0.000869
      dx2y2   :     0.000007
      dxy     :     0.000038
  7 H s       :     0.849596  s :     0.849596
      pz      :     0.012116  p :     0.052202
      px      :     0.024228
      py      :     0.015859
      dz2     :     0.000249  d :     0.001980
      dxz     :     0.000506
      dyz     :     0.000156
      dx2y2   :     0.000598
      dxy     :     0.000470
  8 H s       :     0.849767  s :     0.849767
      pz      :     0.012099  p :     0.052209
      px      :     0.019874
      py      :     0.020236
      dz2     :     0.000249  d :     0.001980
      dxz     :     0.000379
      dyz     :     0.000283
      dx2y2   :     0.000782
      dxy     :     0.000287
  9 C s       :     2.977681  s :     2.977681
      pz      :     1.080593  p :     3.237800
      px      :     1.064539
      py      :     1.092668
      dz2     :     0.045806  d :     0.088635
      dxz     :     0.007208
      dyz     :     0.009625
      dx2y2   :     0.015109
      dxy     :     0.010887
      f0      :     0.000751  f :     0.002561
      f+1     :     0.000292
      f-1     :     0.000192
      f+2     :     0.000126
      f-2     :     0.000267
      f+3     :     0.000305
      f-3     :     0.000629
 10 H s       :     0.851946  s :     0.851946
      pz      :     0.033655  p :     0.047478
      px      :     0.007193
      py      :     0.006630
      dz2     :     0.000385  d :     0.001987
      dxz     :     0.000805
      dyz     :     0.000752
      dx2y2   :     0.000037
      dxy     :     0.000008
 11 H s       :     0.849532  s :     0.849532
      pz      :     0.012128  p :     0.052253
      px      :     0.010517
      py      :     0.029608
      dz2     :     0.000249  d :     0.001981
      dxz     :     0.000036
      dyz     :     0.000626
      dx2y2   :     0.000277
      dxy     :     0.000792
 12 H s       :     0.849523  s :     0.849523
      pz      :     0.012050  p :     0.052059
      px      :     0.028346
      py      :     0.011663
      dz2     :     0.000249  d :     0.001979
      dxz     :     0.000561
      dyz     :     0.000101
      dx2y2   :     0.000501
      dxy     :     0.000568


                     *******************************
                     * LOEWDIN POPULATION ANALYSIS *
                     *******************************

----------------------
LOEWDIN ATOMIC CHARGES
----------------------
   0 P :    0.871399
   1 C :   -0.095593
   2 H :   -0.060252
   3 H :   -0.067312
   4 H :   -0.067312
   5 C :   -0.095600
   6 H :   -0.060235
   7 H :   -0.067310
   8 H :   -0.067320
   9 C :   -0.095580
  10 H :   -0.060250
  11 H :   -0.067322
  12 H :   -0.067312

-------------------------------
LOEWDIN REDUCED ORBITAL CHARGES
-------------------------------
  0 P s       :     4.810662  s :     4.810662
      pz      :     3.103064  p :     8.401645
      px      :     2.649290
      py      :     2.649291
      dz2     :     0.154426  d :     0.816896
      dxz     :     0.138545
      dyz     :     0.138545
      dx2y2   :     0.192688
      dxy     :     0.192692
      f0      :     0.008200  f :     0.099398
      f+1     :     0.011130
      f-1     :     0.011130
      f+2     :     0.019793
      f-2     :     0.019792
      f+3     :     0.015414
      f-3     :     0.013940
  1 C s       :     2.713327  s :     2.713327
      pz      :     0.957491  p :     2.852606
      px      :     0.948759
      py      :     0.946356
      dz2     :     0.147283  d :     0.508469
      dxz     :     0.111563
      dyz     :     0.045653
      dx2y2   :     0.103614
      dxy     :     0.100356
      f0      :     0.005100  f :     0.021191
      f+1     :     0.002355
      f-1     :     0.001604
      f+2     :     0.003020
      f-2     :     0.003101
      f+3     :     0.001750
      f-3     :     0.004262
  2 H s       :     0.716556  s :     0.716556
      pz      :     0.143167  p :     0.313841
      px      :     0.088101
      py      :     0.082573
      dz2     :     0.010699  d :     0.029856
      dxz     :     0.009596
      dyz     :     0.009225
      dx2y2   :     0.000173
      dxy     :     0.000163
  3 H s       :     0.724511  s :     0.724511
      pz      :     0.087412  p :     0.312944
      px      :     0.126034
      py      :     0.099498
      dz2     :     0.003909  d :     0.029857
      dxz     :     0.006238
      dyz     :     0.002905
      dx2y2   :     0.009513
      dxy     :     0.007291
  4 H s       :     0.724520  s :     0.724520
      pz      :     0.087416  p :     0.312935
      px      :     0.088348
      py      :     0.137171
      dz2     :     0.003910  d :     0.029857
      dxz     :     0.000778
      dyz     :     0.008366
      dx2y2   :     0.007249
      dxy     :     0.009554
  5 C s       :     2.713326  s :     2.713326
      pz      :     0.957486  p :     2.852595
      px      :     0.945841
      py      :     0.949267
      dz2     :     0.147292  d :     0.508488
      dxz     :     0.031905
      dyz     :     0.125306
      dx2y2   :     0.076225
      dxy     :     0.127759
      f0      :     0.005100  f :     0.021192
      f+1     :     0.001448
      f-1     :     0.002510
      f+2     :     0.003695
      f-2     :     0.002427
      f+3     :     0.001749
      f-3     :     0.004263
  6 H s       :     0.716554  s :     0.716554
      pz      :     0.143163  p :     0.313828
      px      :     0.081420
      py      :     0.089245
      dz2     :     0.010698  d :     0.029854
      dxz     :     0.009147
      dyz     :     0.009674
      dx2y2   :     0.000084
      dxy     :     0.000252
  7 H s       :     0.724516  s :     0.724516
      pz      :     0.087413  p :     0.312938
      px      :     0.126649
      py      :     0.098876
      dz2     :     0.003909  d :     0.029857
      dxz     :     0.006948
      dyz     :     0.002196
      dx2y2   :     0.008222
      dxy     :     0.008583
  8 H s       :     0.724516  s :     0.724516
      pz      :     0.087419  p :     0.312947
      px      :     0.114661
      py      :     0.110866
      dz2     :     0.003910  d :     0.029858
      dxz     :     0.005211
      dyz     :     0.003933
      dx2y2   :     0.009241
      dxy     :     0.007562
  9 C s       :     2.713326  s :     2.713326
      pz      :     0.957486  p :     2.852600
      px      :     0.948055
      py      :     0.947060
      dz2     :     0.147280  d :     0.508462
      dxz     :     0.092335
      dyz     :     0.064866
      dx2y2   :     0.126101
      dxy     :     0.077881
      f0      :     0.005100  f :     0.021191
      f+1     :     0.002137
      f-1     :     0.001822
      f+2     :     0.002466
      f-2     :     0.003654
      f+3     :     0.001747
      f-3     :     0.004265
 10 H s       :     0.716551  s :     0.716551
      pz      :     0.143167  p :     0.313844
      px      :     0.086495
      py      :     0.084181
      dz2     :     0.010699  d :     0.029855
      dxz     :     0.009488
      dyz     :     0.009333
      dx2y2   :     0.000247
      dxy     :     0.000089
 11 H s       :     0.724527  s :     0.724527
      pz      :     0.087419  p :     0.312938
      px      :     0.085602
      py      :     0.139917
      dz2     :     0.003910  d :     0.029857
      dxz     :     0.000529
      dyz     :     0.008615
      dx2y2   :     0.007470
      dxy     :     0.009333
 12 H s       :     0.724509  s :     0.724509
      pz      :     0.087411  p :     0.312946
      px      :     0.135274
      py      :     0.090261
      dz2     :     0.003908  d :     0.029857
      dxz     :     0.007727
      dyz     :     0.001416
      dx2y2   :     0.008717
      dxy     :     0.008089


                      *****************************
                      * MAYER POPULATION ANALYSIS *
                      *****************************

  NA   - Mulliken gross atomic population
  ZA   - Total nuclear charge
  QA   - Mulliken gross atomic charge
  VA   - Mayer's total valence
  BVA  - Mayer's bonded valence
  FA   - Mayer's free valence

  ATOM       NA         ZA         QA         VA         BVA        FA
  0 P     14.9536    15.0000     0.0464     2.8493     2.8493     0.0000
  1 C      6.3070     6.0000    -0.3070     3.9743     3.9743    -0.0000
  2 H      0.9016     1.0000     0.0984     1.0904     1.0904    -0.0000
  3 H      0.9035     1.0000     0.0965     1.0701     1.0701    -0.0000
  4 H      0.9035     1.0000     0.0965     1.0700     1.0700    -0.0000
  5 C      6.3062     6.0000    -0.3062     3.9735     3.9735     0.0000
  6 H      0.9014     1.0000     0.0986     1.0905     1.0905     0.0000
  7 H      0.9038     1.0000     0.0962     1.0702     1.0702     0.0000
  8 H      0.9040     1.0000     0.0960     1.0702     1.0702     0.0000
  9 C      6.3067     6.0000    -0.3067     3.9738     3.9738     0.0000
 10 H      0.9014     1.0000     0.0986     1.0903     1.0903     0.0000
 11 H      0.9038     1.0000     0.0962     1.0701     1.0701     0.0000
 12 H      0.9036     1.0000     0.0964     1.0698     1.0698    -0.0000

  Mayer bond orders larger than 0.100000
B(  0-P ,  1-C ) :   0.8827 B(  0-P ,  5-C ) :   0.8824 B(  0-P ,  9-C ) :   0.8826 
B(  1-C ,  2-H ) :   0.9725 B(  1-C ,  3-H ) :   1.0132 B(  1-C ,  4-H ) :   1.0132 
B(  5-C ,  6-H ) :   0.9720 B(  5-C ,  7-H ) :   1.0134 B(  5-C ,  8-H ) :   1.0135 
B(  9-C , 10-H ) :   0.9723 B(  9-C , 11-H ) :   1.0135 B(  9-C , 12-H ) :   1.0132 


-------
TIMINGS
-------

Total SCF time: 0 days 0 hours 0 min 5 sec 

Total time                  ....       5.092 sec
Sum of individual times     ....       4.891 sec  ( 96.0%)

Fock matrix formation       ....       4.162 sec  ( 81.7%)
  XC integration            ....       0.999 sec  ( 24.0% of F)
    Basis function eval.    ....       0.162 sec  ( 16.2% of XC)
    Density eval.           ....       0.162 sec  ( 16.3% of XC)
    XC-Functional eval.     ....       0.023 sec  (  2.3% of XC)
    XC-Potential eval.      ....       0.314 sec  ( 31.4% of XC)
Diagonalization             ....       0.139 sec  (  2.7%)
Density matrix formation    ....       0.020 sec  (  0.4%)
Population analysis         ....       0.015 sec  (  0.3%)
Initial guess               ....       0.157 sec  (  3.1%)
Orbital Transformation      ....       0.000 sec  (  0.0%)
Orbital Orthonormalization  ....       0.000 sec  (  0.0%)
DIIS solution               ....       0.074 sec  (  1.5%)
SOSCF solution              ....       0.046 sec  (  0.9%)
Grid generation             ....       0.277 sec  (  5.4%)


           ************************************************************
           *        Program running with 24 parallel MPI-processes    *
           *              working on a common directory               *
           ************************************************************

------------------------------------------------------------------------------
                                ORCA  MP2 
------------------------------------------------------------------------------

Freezing NCore=16 chemical core electrons

-------------
RI-MP2 ENERGY
-------------
Dimension of the basis                    ...  312
Memory devoted to MP2                     ... 5000 MB   
Data format for buffers                   ... DOUBLE
Compression type for matrix containers    ... UNCOMPRESSED
Overall scaling of the MP2 energy         ...   2.700e-01
Calculating two index integrals           ... done (    0.004 sec)
Cholesky decomposition of V**-1           ... done (    0.034 sec)

-----------------
RI-TRANSFORMATION (AUX index driven)
-----------------

Dimension of the orbital-basis         ... 312
Dimension of the aux-basis             ... 766
Transformation of internal/external MOs...    8-  20 to   21- 311
Number Format for Storage              ... Double (8 Byte)
Integral mode                          ... Direct

First Phase: integral generation and transformation of MO indices
  Aux angular momentum 0               ... done (    0.009 sec)
  Aux angular momentum 1               ... done (    0.015 sec)
  Aux angular momentum 2               ... done (    0.028 sec)
  Aux angular momentum 3               ... done (    0.021 sec)
  Aux angular momentum 4               ... done (    0.012 sec)
Closing buffer VIA ( 0.02 GB; CompressionRatio= 1.00)
  Phase 1 completed in     0.171 sec
Second Phase: sorting and transformation of aux index

IA-Transformation
Memory available                       ... 4988 MB 
Max. # MO pairs treated in a batch     ... 1    
# of internal orbitals                 ... 13
# batches for internal orbitals        ... 1
Closing buffer IAV ( 0.00 GB; CompressionRatio= 1.00)
(ia|v) transformation done in     0.017 sec

  Phase 2 completed in     0.039 sec
RI-Integral transformation completed in     0.211 sec
Opening buffers                              ... done

Starting loop over batches of integrals:

Operator 0  - window                       ... (  8- 20)x( 21-311)
Operator 0  - Memory available             ...  5000 MB
Operator 0  - Memory needed per MO         ...   1.7 MB
Operator 0  - Number of orbitals per batch ... 1
Operator 0  - Number of batches            ... 1

OPERATOR  0   PASS   0:  MOs     8 ...    8 +    9 ...    9 +   10 ...   10 +   11 ...   11
                            +   12 ...   12 +   13 ...   13 +   14 ...   14 +   15 ...   15
                            +   16 ...   16 +   17 ...   17 +   18 ...   18 +   19 ...   19
                            +   20 ...   20
  Reading integrals       ... ok
Time spent in pair loops =     0.008 sec
Deleting buffer (Ka|jb)[aa] ...done

-----------------------------------------------
 RI-MP2 CORRELATION ENERGY:     -0.229560593 Eh
-----------------------------------------------


-------
TIMINGS
-------

Total time                :    0.320 sec
Integral trafo            :    0.228 sec ( 71.1%)
I/O of integrals          :    0.002 sec (  0.5%)
K(i,j) Operators          :    0.003 sec (  0.8%)
T(i,j) pair energies      :    0.001 sec (  0.3%)
V-calculation             :    0.004 sec (  1.2%)
V**(-1/2)                 :    0.034 sec ( 10.5%)
Gamma(ia|P)               :    0.000 sec (  0.0%)
Gamma-Trafo               :    0.000 sec (  0.0%)
D(virtual)                :    0.000 sec (  0.0%)
D(internal)               :    0.000 sec (  0.0%)
W(virtual)                :    0.000 sec (  0.0%)
W(internal)               :    0.000 sec (  0.0%)
L(virtual)                :    0.000 sec (  0.0%)
L(internal)               :    0.000 sec (  0.0%)
G(D)                      :    0.000 sec (  0.0%)
G(Z)                      :    0.000 sec (  0.0%)
Z-Vector Solution         :    0.000 sec (  0.0%)
Z-Vector Solution         :    0.000 sec (  0.0%)
3-Index Derivative 
+ Separable RIJ part      :    0.000 sec (  0.0%)
2-Index Derivative 
+ Separable RIJ part      :    0.000 sec (  0.0%)
Separable Gradient (X)    :    0.000 sec (  0.0%)


---------------------------------------
MP2 TOTAL ENERGY:     -460.910510832 Eh
---------------------------------------


-------------------------------------------------------------------------------
                          DFT DISPERSION CORRECTION                            
                                                                               
                              DFTD3 V3.1  Rev 1                                
                          USING Becke-Johnson damping                          
-------------------------------------------------------------------------------
The B2PLYP functional is recognized
Active option DFTDOPT                   ...         4   

molecular C6(AA) [au] = 1663.039452 


            DFT-D V3
 parameters
 s6 scaling factor         :     0.6400 
 a1 scaling factor         :     0.3065 
 s8 scaling factor         :     0.9147 
 a2 scaling factor         :     5.0570 
 ad hoc parameters k1-k3   :    16.0000     1.3333    -4.0000 

 Edisp/kcal,au: -5.123231377862  -0.008164388018 
 E6   /kcal   :  -2.820915043 
 E8   /kcal   :  -2.302316335 
 % E8         :  44.938753786 

-------------------------   ----------------
Dispersion correction           -0.008164388
-------------------------   ----------------


-------------------------   --------------------
FINAL SINGLE POINT ENERGY      -460.918675219893
-------------------------   --------------------


                            ***************************************
                            *     ORCA property calculations      *
                            ***************************************


  WARNING: The energy has been calculated at the MP2 level but the densities
           used in the property calculations are still SCF densities
           MP2 response densities have not been calculated 
           use %mp2 Density relaxed end
           or  %mp2 Density unrelaxed end

                                    ---------------------
                                    Active property flags
                                    ---------------------
   (+) Dipole Moment


------------------------------------------------------------------------------
                       ORCA ELECTRIC PROPERTIES CALCULATION
------------------------------------------------------------------------------

Dipole Moment Calculation                       ... on
Quadrupole Moment Calculation                   ... off
Polarizability Calculation                      ... off
GBWName                                         ... MOR24_pme3.gbw
Electron density file                           ... MOR24_pme3.scfp
The origin for moment calculation is the CENTER OF MASS  = ( 0.000001, -0.000010 -0.114362)

-------------
DIPOLE MOMENT
-------------
                                X             Y             Z
Electronic contribution:      0.00004      -0.00037      -4.31241
Nuclear contribution   :     -0.00004       0.00039       4.80319
                        -----------------------------------------
Total Dipole Moment    :      0.00000       0.00002       0.49078
                        -----------------------------------------
Magnitude (a.u.)       :      0.49078
Magnitude (Debye)      :      1.24746



--------------------
Rotational spectrum 
--------------------
 
Rotational constants in cm-1:     0.191522     0.191510     0.123399 
Rotational constants in MHz :  5741.693239  5741.320508  3699.411170 

 Dipole components along the rotational axes: 
x,y,z [a.u.] :     0.000003     0.000022     0.490779 
x,y,z [Debye]:     0.000009     0.000055     1.247460 

 

Timings for individual modules:

Sum of individual times         ...        6.796 sec (=   0.113 min)
GTO integral calculation        ...        0.593 sec (=   0.010 min)   8.7 %
SCF iterations                  ...        5.411 sec (=   0.090 min)  79.6 %
MP2 module                      ...        0.791 sec (=   0.013 min)  11.6 %
                             ****ORCA TERMINATED NORMALLY****
TOTAL RUN TIME: 0 days 0 hours 0 minutes 7 seconds 297 msec
