
                                 *****************
                                 * O   R   C   A *
                                 *****************

           --- An Ab Initio, DFT and Semiempirical electronic structure package ---

                  #######################################################
                  #                        -***-                        #
                  #          Department of theory and spectroscopy      #
                  #               Directorship: Frank Neese             #
                  #        Max Planck Institute fuer Kohlenforschung    #
                  #                Kaiser Wilhelm Platz 1               #
                  #                 D-45470 Muelheim/Ruhr               #
                  #                      Germany                        #
                  #                                                     #
                  #                  All rights reserved                #
                  #                        -***-                        #
                  #######################################################


                         Program Version 4.2.0 -  RELEASE  -


 With contributions from (in alphabetic order):
   Daniel Aravena         : Magnetic Suceptibility
   Michael Atanasov       : Ab Initio Ligand Field Theory (pilot matlab implementation)
   Alexander A. Auer      : GIAO ZORA, VPT2
   Ute Becker             : Parallelization
   Giovanni Bistoni       : ED, misc. LED, open-shell LED, HFLED
   Martin Brehm           : Molecular dynamics
   Dmytro Bykov           : SCF Hessian
   Vijay G. Chilkuri      : MRCI spin determinant printing, contributions to CSF-ICE
   Dipayan Datta          : RHF DLPNO-CCSD density
   Achintya Kumar Dutta   : EOM-CC, STEOM-CC
   Dmitry Ganyushin       : Spin-Orbit,Spin-Spin,Magnetic field MRCI
   Miquel Garcia          : C-PCM Hessian, Gaussian charge scheme
   Yang Guo               : DLPNO-NEVPT2, CIM, IAO-localization
   Andreas Hansen         : Spin unrestricted coupled pair/coupled cluster methods
   Benjamin Helmich-Paris : CASSCF linear response (MC-RPA)
   Lee Huntington         : MR-EOM, pCC
   Robert Izsak           : Overlap fitted RIJCOSX, COSX-SCS-MP3, EOM
   Christian Kollmar      : KDIIS, OOCD, Brueckner-CCSD(T), CCSD density
   Simone Kossmann        : Meta GGA functionals, TD-DFT gradient, OOMP2, MP2 Hessian
   Martin Krupicka        : AUTO-CI
   Lucas Lang             : DCDCAS
   Dagmar Lenk            : GEPOL surface, SMD
   Dimitrios Liakos       : Extrapolation schemes; Compound Job, initial MDCI parallelization
   Dimitrios Manganas     : Further ROCIS development; embedding schemes
   Dimitrios Pantazis     : SARC Basis sets
   Taras Petrenko         : DFT Hessian,TD-DFT gradient, ASA, ECA, R-Raman, ABS, FL, XAS/XES, NRVS
   Peter Pinski           : DLPNO-MP2, DLPNO-MP2 Gradient
   Christoph Reimann      : Effective Core Potentials
   Marius Retegan         : Local ZFS, SOC
   Christoph Riplinger    : Optimizer, TS searches, QM/MM, DLPNO-CCSD(T), (RO)-DLPNO pert. Triples
   Tobias Risthaus        : Range-separated hybrids, TD-DFT gradient, RPA, STAB
   Michael Roemelt        : Original ROCIS implementation
   Masaaki Saitow         : Open-shell DLPNO-CCSD energy and density
   Barbara Sandhoefer     : DKH picture change effects
   Avijit Sen             : IP-ROCIS
   Kantharuban Sivalingam : CASSCF convergence, NEVPT2, FIC-MRCI
   Bernardo de Souza      : ESD, SOC TD-DFT
   Georgi Stoychev        : AutoAux, RI-MP2 NMR
   Willem Van den Heuvel  : Paramagnetic NMR
   Boris Wezisla          : Elementary symmetry handling
   Frank Wennmohs         : Technical directorship


 We gratefully acknowledge several colleagues who have allowed us to
 interface, adapt or use parts of their codes:
   Stefan Grimme, W. Hujo, H. Kruse,             : VdW corrections, initial TS optimization,
                  C. Bannwarth                     DFT functionals, gCP, sTDA/sTD-DF
   Ed Valeev, F. Pavosevic, A. Kumar             : LibInt (2-el integral package), F12 methods
   Garnet Chan, S. Sharma, J. Yang, R. Olivares  : DMRG
   Ulf Ekstrom                                   : XCFun DFT Library
   Mihaly Kallay                                 : mrcc  (arbitrary order and MRCC methods)
   Andreas Klamt, Michael Diedenhofen            : otool_cosmo (COSMO solvation model)
   Jiri Pittner, Ondrej Demel                    : Mk-CCSD
   Frank Weinhold                                : gennbo (NPA and NBO analysis)
   Christopher J. Cramer and Donald G. Truhlar   : smd solvation model
   Lars Goerigk                                  : TD-DFT with DH, B97 family of functionals
   V. Asgeirsson, H. Jonsson                     : NEB implementation
   FAccTs GmbH                                   : IRC, NEB, NEB-TS, Multilevel, MM, QM/MM, CI optimization
   S Lehtola, MJT Oliveira, MAL Marques          : LibXC Library


 Your calculation uses the libint2 library for the computation of 2-el integrals
 For citations please refer to: http://libint.valeyev.net

 Your ORCA version has been built with support for libXC version: 4.2.3
 For citations please refer to: https://tddft.org/programs/libxc/

 This ORCA versions uses:
   CBLAS   interface :  Fast vector & matrix operations
   LAPACKE interface :  Fast linear algebra routines
   SCALAPACK package :  Parallel linear algebra routines


Your calculation utilizes the atom-pairwise dispersion correction
with the Becke-Johnson damping scheme (D3BJ)
Cite in your paper:
S.Grimme, S.Ehrlich, L.Goerigk, J Comput Chem, (2011), 32, 1456–1465 
S.Grimme, J.Antony, S.Ehrlich and H.Krieg, J.Chem.Phys., 132, (2010), 154104 
   

----- Orbital basis set information -----
Your calculation utilizes the basis: def2-TZVPPD
   F. Weigend and R. Ahlrichs, Phys. Chem. Chem. Phys. 7, 3297 (2005).
   D. Rappoport and F. Furche, J. Chem. Phys. 133 134105 (2010).

----- AuxC basis set information -----
Your calculation utilizes the auxiliary basis: def2-TZVPPD/C
   A. Hellweg, C. Hattig, S. Hofener and W. Klopper, Theor. Chem. Acc. 117, 587 (2007).

----- AuxJK basis set information -----
Your calculation utilizes the auxiliary basis: def2/JK
   H-Ba, Hf-Rn: F. Weigend, J. Comput. Chem. 29, 167 (2008).

================================================================================
                                        WARNINGS
                       Please study these warnings very carefully!
================================================================================


WARNING: No MP2 level density has been requested!
         To caclulate MP2 level properties use
         %mp2 Density relaxed end
         or
         %mp2 Density unrelaxed end
         Otherwise for double-hybrid DFT only the energy is correct!

WARNING: The frozen-core approximation is turned on by default for 
         the MP2 part of double-hybrid DFT.

INFO   : the flag for use of LIBINT has been found!

================================================================================
                                       INPUT FILE
================================================================================
NAME = MOR22_pcy3.in
|  1> #
|  2> # MOR22_pcy3 ri-B2PLYP-D3BJ/Def2-TZVPPD
|  3> #
|  4> ! rijk ri-b2plyp d3bj def2-tzvppd def2/jk def2-tzvppd/c grid4 nofinalgrid
|  5> 
|  6> *xyz 0 1
|  7> P       -0.216171   -0.083077   -1.104749 
|  8> C        0.505342    1.551445   -0.512411 
|  9> C        0.372168    1.952615    0.967298 
| 10> C        0.853698    3.397029    1.180070 
| 11> C        2.300662    3.578910    0.704200 
| 12> C        2.457928    3.151362   -0.760734 
| 13> C        1.965268    1.712769   -0.974950 
| 14> C        0.795470   -1.465851   -0.339173 
| 15> C        1.194026   -1.376002    1.141683 
| 16> C        1.830829   -2.691519    1.617818 
| 17> C        3.044522   -3.062049    0.755351 
| 18> C        2.669205   -3.127202   -0.731177 
| 19> C        2.022807   -1.816580   -1.203888 
| 20> C       -1.786787   -0.169467   -0.086099 
| 21> C       -2.713096    0.996882   -0.481425 
| 22> C       -4.042154    0.954203    0.285800 
| 23> C       -4.758728   -0.385405    0.080261 
| 24> C       -3.846658   -1.555269    0.467941 
| 25> C       -2.516136   -1.508613   -0.298163 
| 26> H       -0.086881    2.275758   -1.095374 
| 27> H        0.969845    1.279400    1.591405 
| 28> H       -0.665694    1.858440    1.303963 
| 29> H        0.763179    3.670246    2.238833 
| 30> H        0.199154    4.078898    0.617939 
| 31> H        2.616561    4.621342    0.833145 
| 32> H        2.964320    2.965719    1.331124 
| 33> H        1.874427    3.827995   -1.401227 
| 34> H        3.505668    3.240568   -1.073514 
| 35> H        2.061196    1.427054   -2.029468 
| 36> H        2.603163    1.029346   -0.398698 
| 37> H        0.103060   -2.317100   -0.439871 
| 38> H        1.082328   -3.494681    1.556078 
| 39> H        0.325749   -1.129652    1.763601 
| 40> H        1.922184   -0.564787    1.270256 
| 41> H        2.123181   -2.608981    2.672179 
| 42> H        3.467034   -4.019422    1.084011 
| 43> H        3.828662   -2.303820    0.895790 
| 44> H        3.555664   -3.350052   -1.337889 
| 45> H        1.959466   -3.952268   -0.888607 
| 46> H        1.724465   -1.892063   -2.255831 
| 47> H        2.762591   -1.008464   -1.141586 
| 48> H       -1.543753   -0.076214    0.982532 
| 49> H       -2.216101    1.957671   -0.306445 
| 50> H       -2.910289    0.936504   -1.561343 
| 51> H       -3.843829    1.098520    1.357699 
| 52> H       -4.683867    1.784681   -0.033466 
| 53> H       -5.041866   -0.483893   -0.977569 
| 54> H       -5.687452   -0.415984    0.663015 
| 55> H       -4.350272   -2.511559    0.279900 
| 56> H       -3.640750   -1.510603    1.547174 
| 57> H       -1.884435   -2.344750    0.021762 
| 58> H       -2.704341   -1.645246   -1.372687 
| 59> *
| 60> 
| 61> %maxcore 5000
| 62> 
| 63> %pal
| 64> nprocs = 24
| 65> end
| 66> 
| 67> 
| 68>                          ****END OF INPUT****
================================================================================

                       ****************************
                       * Single Point Calculation *
                       ****************************

---------------------------------
CARTESIAN COORDINATES (ANGSTROEM)
---------------------------------
  P     -0.216171   -0.083077   -1.104749
  C      0.505342    1.551445   -0.512411
  C      0.372168    1.952615    0.967298
  C      0.853698    3.397029    1.180070
  C      2.300662    3.578910    0.704200
  C      2.457928    3.151362   -0.760734
  C      1.965268    1.712769   -0.974950
  C      0.795470   -1.465851   -0.339173
  C      1.194026   -1.376002    1.141683
  C      1.830829   -2.691519    1.617818
  C      3.044522   -3.062049    0.755351
  C      2.669205   -3.127202   -0.731177
  C      2.022807   -1.816580   -1.203888
  C     -1.786787   -0.169467   -0.086099
  C     -2.713096    0.996882   -0.481425
  C     -4.042154    0.954203    0.285800
  C     -4.758728   -0.385405    0.080261
  C     -3.846658   -1.555269    0.467941
  C     -2.516136   -1.508613   -0.298163
  H     -0.086881    2.275758   -1.095374
  H      0.969845    1.279400    1.591405
  H     -0.665694    1.858440    1.303963
  H      0.763179    3.670246    2.238833
  H      0.199154    4.078898    0.617939
  H      2.616561    4.621342    0.833145
  H      2.964320    2.965719    1.331124
  H      1.874427    3.827995   -1.401227
  H      3.505668    3.240568   -1.073514
  H      2.061196    1.427054   -2.029468
  H      2.603163    1.029346   -0.398698
  H      0.103060   -2.317100   -0.439871
  H      1.082328   -3.494681    1.556078
  H      0.325749   -1.129652    1.763601
  H      1.922184   -0.564787    1.270256
  H      2.123181   -2.608981    2.672179
  H      3.467034   -4.019422    1.084011
  H      3.828662   -2.303820    0.895790
  H      3.555664   -3.350052   -1.337889
  H      1.959466   -3.952268   -0.888607
  H      1.724465   -1.892063   -2.255831
  H      2.762591   -1.008464   -1.141586
  H     -1.543753   -0.076214    0.982532
  H     -2.216101    1.957671   -0.306445
  H     -2.910289    0.936504   -1.561343
  H     -3.843829    1.098520    1.357699
  H     -4.683867    1.784681   -0.033466
  H     -5.041866   -0.483893   -0.977569
  H     -5.687452   -0.415984    0.663015
  H     -4.350272   -2.511559    0.279900
  H     -3.640750   -1.510603    1.547174
  H     -1.884435   -2.344750    0.021762
  H     -2.704341   -1.645246   -1.372687

----------------------------
CARTESIAN COORDINATES (A.U.)
----------------------------
  NO LB      ZA    FRAG     MASS         X           Y           Z
   0 P    15.0000    0    30.974   -0.408504   -0.156993   -2.087673
   1 C     6.0000    0    12.011    0.954958    2.931806   -0.968316
   2 C     6.0000    0    12.011    0.703296    3.689908    1.827928
   3 C     6.0000    0    12.011    1.613255    6.419454    2.230009
   4 C     6.0000    0    12.011    4.347621    6.763160    1.330745
   5 C     6.0000    0    12.011    4.644811    5.955211   -1.437579
   6 C     6.0000    0    12.011    3.713818    3.236664   -1.842388
   7 C     6.0000    0    12.011    1.503220   -2.770057   -0.640944
   8 C     6.0000    0    12.011    2.256382   -2.600267    2.157468
   9 C     6.0000    0    12.011    3.459765   -5.086234    3.057233
  10 C     6.0000    0    12.011    5.753313   -5.786434    1.427407
  11 C     6.0000    0    12.011    5.044066   -5.909555   -1.381724
  12 C     6.0000    0    12.011    3.822551   -3.432839   -2.275019
  13 C     6.0000    0    12.011   -3.376538   -0.320246   -0.162704
  14 C     6.0000    0    12.011   -5.127008    1.883834   -0.909761
  15 C     6.0000    0    12.011   -7.638564    1.803182    0.540084
  16 C     6.0000    0    12.011   -8.992693   -0.728310    0.151671
  17 C     6.0000    0    12.011   -7.269130   -2.939032    0.884280
  18 C     6.0000    0    12.011   -4.754808   -2.850865   -0.563446
  19 H     1.0000    0     1.008   -0.164181    4.300559   -2.069957
  20 H     1.0000    0     1.008    1.832741    2.417716    3.007320
  21 H     1.0000    0     1.008   -1.257979    3.511943    2.464133
  22 H     1.0000    0     1.008    1.442199    6.935760    4.230781
  23 H     1.0000    0     1.008    0.376347    7.708000    1.167735
  24 H     1.0000    0     1.008    4.944584    8.733071    1.574416
  25 H     1.0000    0     1.008    5.601753    5.604397    2.515460
  26 H     1.0000    0     1.008    3.542154    7.233862   -2.647935
  27 H     1.0000    0     1.008    6.624752    6.123786   -2.028647
  28 H     1.0000    0     1.008    3.895096    2.696741   -3.835139
  29 H     1.0000    0     1.008    4.919265    1.945182   -0.753430
  30 H     1.0000    0     1.008    0.194755   -4.378684   -0.831236
  31 H     1.0000    0     1.008    2.045304   -6.603990    2.940561
  32 H     1.0000    0     1.008    0.615576   -2.134733    3.332723
  33 H     1.0000    0     1.008    3.632401   -1.067293    2.400436
  34 H     1.0000    0     1.008    4.012231   -4.930260    5.049686
  35 H     1.0000    0     1.008    6.551745   -7.595607    2.048484
  36 H     1.0000    0     1.008    7.235123   -4.353589    1.692798
  37 H     1.0000    0     1.008    6.719231   -6.330681   -2.528244
  38 H     1.0000    0     1.008    3.702854   -7.468704   -1.679224
  39 H     1.0000    0     1.008    3.258767   -3.575481   -4.262903
  40 H     1.0000    0     1.008    5.220540   -1.905721   -2.157285
  41 H     1.0000    0     1.008   -2.917270   -0.144024    1.856716
  42 H     1.0000    0     1.008   -4.187824    3.699462   -0.579097
  43 H     1.0000    0     1.008   -5.499649    1.769736   -2.950511
  44 H     1.0000    0     1.008   -7.263784    2.075902    2.565679
  45 H     1.0000    0     1.008   -8.851226    3.372558   -0.063242
  46 H     1.0000    0     1.008   -9.527746   -0.914425   -1.847338
  47 H     1.0000    0     1.008  -10.747727   -0.786096    1.252917
  48 H     1.0000    0     1.008   -8.220823   -4.746159    0.528934
  49 H     1.0000    0     1.008   -6.880020   -2.854626    2.923735
  50 H     1.0000    0     1.008   -3.561066   -4.430935    0.041124
  51 H     1.0000    0     1.008   -5.110464   -3.109064   -2.594002

--------------------------------
INTERNAL COORDINATES (ANGSTROEM)
--------------------------------
 P      0   0   0     0.000000000000     0.00000000     0.00000000
 C      1   0   0     1.882314395604     0.00000000     0.00000000
 C      2   1   0     1.538899414470   119.72119917     0.00000000
 C      3   2   1     1.537359706861   110.54224345   187.90271050
 C      4   3   2     1.534026653079   111.34022547   303.12944262
 C      5   4   3     1.534132168822   111.09209763    55.45010547
 C      6   5   4     1.535627620846   111.18606755   305.11970931
 C      1   2   3     1.876589475547   107.74831227   291.61349850
 C      8   1   2     1.536181701711   119.34284242    43.42432402
 C      9   8   1     1.537142666223   110.85623767   171.60047680
 C     10   9   8     1.534337806755   111.11614679    56.66652151
 C     11  10   9     1.534559630214   111.18031980   304.70227017
 C     12  11  10     1.535908881024   111.39784021    55.01378001
 C      1   2   3     1.874018589571   100.96631091    37.38101117
 C     14   1   2     1.541006489136   109.23551510    63.83272633
 C     15  14   1     1.535203851295   111.78614874   178.03072118
 C     16  15  14     1.533060394003   111.21936745   303.70433197
 C     17  16  15     1.533215329233   110.77984765    55.32689297
 C     18  17  16     1.536027640909   111.46894013   304.62636633
 H      2   1   3     1.102362582396   101.43268305   242.80785162
 H      3   2   1     1.095420366801   109.90130216    67.38535767
 H      3   2   1     1.095157424252   110.80463083   309.58247271
 H      4   3   2     1.097187453728   109.97889262   180.50244040
 H      4   3   2     1.099711072172   108.98890834    63.68451768
 H      5   4   3     1.096851615238   110.35731052   178.16729922
 H      5   4   3     1.099763085951   109.04210891   295.18502512
 H      6   5   4     1.099334760998   109.29284751    65.45279277
 H      6   5   4     1.097063419514   110.33373898   182.72719868
 H      7   6   5     1.096742200671   110.49445782   178.69261539
 H      7   6   5     1.098200070779   108.87116330   295.86991240
 H      8   1   2     1.101905874068   101.14012505   160.62736672
 H     10   9   8     1.099606644598   109.00848575   296.15165973
 H      9   8   1     1.096072657242   110.76837092    48.98001725
 H      9   8   1     1.097640590320   109.16293816   291.36892457
 H     10   9   8     1.097250806183   110.09933291   179.21701566
 H     11  10   9     1.096857714963   110.30731179   181.97348710
 H     11  10   9     1.099777190508   109.00938215    65.02109313
 H     12  11  10     1.097073895471   110.28677897   177.54931573
 H     12  11  10     1.099657927438   109.17114460   294.66381131
 H     13  12  11     1.096033625169   110.55964705   182.23508160
 H     13  12  11     1.097366563786   109.09920168    65.09380628
 H     14   1   2     1.099879021223   109.81735138   304.90960842
 H     15  14   1     1.095781699494   110.48941078   300.51317752
 H     15  14   1     1.099433248932   108.55604069    57.12155100
 H     16  15  14     1.099603414107   109.10938938    64.28832693
 H     16  15  14     1.097005041743   109.87246080   181.12226014
 H     17  16  15     1.099486844891   109.12511408   295.12590869
 H     17  16  15     1.096843456439   110.42004200   177.91078953
 H     18  17  16     1.097031012678   110.40746576   182.31144688
 H     18  17  16     1.099607668357   109.18195438    65.14405948
 H     19  18  17     1.095683915094   109.30467008   178.71615068
 H     19  18  17     1.099405077890   109.59743795   295.46140480

---------------------------
INTERNAL COORDINATES (A.U.)
---------------------------
 P      0   0   0     0.000000000000     0.00000000     0.00000000
 C      1   0   0     3.557058705629     0.00000000     0.00000000
 C      2   1   0     2.908098441001   119.72119917     0.00000000
 C      3   2   1     2.905188815293   110.54224345   187.90271050
 C      4   3   2     2.898890256455   111.34022547   303.12944262
 C      5   4   3     2.899089652313   111.09209763    55.45010547
 C      6   5   4     2.901915647084   111.18606755   305.11970931
 C      1   2   3     3.546240174582   107.74831227   291.61349850
 C      8   1   2     2.902962708176   119.34284242    43.42432402
 C      9   8   1     2.904778667927   110.85623767   171.60047680
 C     10   9   8     2.899478251688   111.11614679    56.66652151
 C     11  10   9     2.899897437276   111.18031980   304.70227017
 C     12  11  10     2.902447151793   111.39784021    55.01378001
 C      1   2   3     3.541381904166   100.96631091    37.38101117
 C     14   1   2     2.912080235062   109.23551510    63.83272633
 C     15  14   1     2.901114838688   111.78614874   178.03072118
 C     16  15  14     2.897064291427   111.21936745   303.70433197
 C     17  16  15     2.897357076581   110.77984765    55.32689297
 C     18  17  16     2.902671575451   111.46894013   304.62636633
 H      2   1   3     2.083163381011   101.43268305   242.80785162
 H      3   2   1     2.070044494774   109.90130216    67.38535767
 H      3   2   1     2.069547605367   110.80463083   309.58247271
 H      4   3   2     2.073383805121   109.97889262   180.50244040
 H      4   3   2     2.078152752846   108.98890834    63.68451768
 H      5   4   3     2.072749162349   110.35731052   178.16729922
 H      5   4   3     2.078251044644   109.04210891   295.18502512
 H      6   5   4     2.077441627786   109.29284751    65.45279277
 H      6   5   4     2.073149414425   110.33373898   182.72719868
 H      7   6   5     2.072542398783   110.49445782   178.69261539
 H      7   6   5     2.075297374024   108.87116330   295.86991240
 H      8   1   2     2.082300327347   101.14012505   160.62736672
 H     10   9   8     2.077955413331   109.00848575   296.15165973
 H      9   8   1     2.071277145066   110.76837092    48.98001725
 H      9   8   1     2.074240109180   109.16293816   291.36892457
 H     10   9   8     2.073503523910   110.09933291   179.21701566
 H     11  10   9     2.072760689158   110.30731179   181.97348710
 H     11  10   9     2.078277698394   109.00938215    65.02109313
 H     12  11  10     2.073169211115   110.28677897   177.54931573
 H     12  11  10     2.078052323853   109.17114460   294.66381131
 H     13  12  11     2.071203385139   110.55964705   182.23508160
 H     13  12  11     2.073722274078   109.09920168    65.09380628
 H     14   1   2     2.078470130556   109.81735138   304.90960842
 H     15  14   1     2.070727314606   110.48941078   300.51317752
 H     15  14   1     2.077627743009   108.55604069    57.12155100
 H     16  15  14     2.077949308586   109.10938938    64.28832693
 H     16  15  14     2.073039096425   109.87246080   181.12226014
 H     17  16  15     2.077729024693   109.12511408   295.12590869
 H     17  16  15     2.072733744453   110.42004200   177.91078953
 H     18  17  16     2.073088174379   110.40746576   182.31144688
 H     18  17  16     2.077957347954   109.18195438    65.14405948
 H     19  18  17     2.070542528870   109.30467008   178.71615068
 H     19  18  17     2.077574507454   109.59743795   295.46140480

---------------------
BASIS SET INFORMATION
---------------------
There are 3 groups of distinct atoms

 Group   1 Type P   : 15s9p4d1f contracted to 6s5p4d1f pattern {732111/51111/1111/1}
 Group   2 Type C   : 12s6p3d1f contracted to 6s3p3d1f pattern {621111/411/111/1}
 Group   3 Type H   : 5s3p1d contracted to 3s3p1d pattern {311/111/1}

Atom   0P    basis set group =>   1
Atom   1C    basis set group =>   2
Atom   2C    basis set group =>   2
Atom   3C    basis set group =>   2
Atom   4C    basis set group =>   2
Atom   5C    basis set group =>   2
Atom   6C    basis set group =>   2
Atom   7C    basis set group =>   2
Atom   8C    basis set group =>   2
Atom   9C    basis set group =>   2
Atom  10C    basis set group =>   2
Atom  11C    basis set group =>   2
Atom  12C    basis set group =>   2
Atom  13C    basis set group =>   2
Atom  14C    basis set group =>   2
Atom  15C    basis set group =>   2
Atom  16C    basis set group =>   2
Atom  17C    basis set group =>   2
Atom  18C    basis set group =>   2
Atom  19H    basis set group =>   3
Atom  20H    basis set group =>   3
Atom  21H    basis set group =>   3
Atom  22H    basis set group =>   3
Atom  23H    basis set group =>   3
Atom  24H    basis set group =>   3
Atom  25H    basis set group =>   3
Atom  26H    basis set group =>   3
Atom  27H    basis set group =>   3
Atom  28H    basis set group =>   3
Atom  29H    basis set group =>   3
Atom  30H    basis set group =>   3
Atom  31H    basis set group =>   3
Atom  32H    basis set group =>   3
Atom  33H    basis set group =>   3
Atom  34H    basis set group =>   3
Atom  35H    basis set group =>   3
Atom  36H    basis set group =>   3
Atom  37H    basis set group =>   3
Atom  38H    basis set group =>   3
Atom  39H    basis set group =>   3
Atom  40H    basis set group =>   3
Atom  41H    basis set group =>   3
Atom  42H    basis set group =>   3
Atom  43H    basis set group =>   3
Atom  44H    basis set group =>   3
Atom  45H    basis set group =>   3
Atom  46H    basis set group =>   3
Atom  47H    basis set group =>   3
Atom  48H    basis set group =>   3
Atom  49H    basis set group =>   3
Atom  50H    basis set group =>   3
Atom  51H    basis set group =>   3
---------------------------------
AUXILIARY/C BASIS SET INFORMATION
---------------------------------
There are 3 groups of distinct atoms

 Group   1 Type P   : 12s9p8d6f2g contracted to 12s9p8d6f2g pattern {111111111111/111111111/11111111/111111/11}
 Group   2 Type C   : 9s7p6d4f1g contracted to 9s7p5d4f1g pattern {111111111/1111111/21111/1111/1}
 Group   3 Type H   : 5s4p3d1f contracted to 5s4p3d1f pattern {11111/1111/111/1}

Atom   0P    basis set group =>   1
Atom   1C    basis set group =>   2
Atom   2C    basis set group =>   2
Atom   3C    basis set group =>   2
Atom   4C    basis set group =>   2
Atom   5C    basis set group =>   2
Atom   6C    basis set group =>   2
Atom   7C    basis set group =>   2
Atom   8C    basis set group =>   2
Atom   9C    basis set group =>   2
Atom  10C    basis set group =>   2
Atom  11C    basis set group =>   2
Atom  12C    basis set group =>   2
Atom  13C    basis set group =>   2
Atom  14C    basis set group =>   2
Atom  15C    basis set group =>   2
Atom  16C    basis set group =>   2
Atom  17C    basis set group =>   2
Atom  18C    basis set group =>   2
Atom  19H    basis set group =>   3
Atom  20H    basis set group =>   3
Atom  21H    basis set group =>   3
Atom  22H    basis set group =>   3
Atom  23H    basis set group =>   3
Atom  24H    basis set group =>   3
Atom  25H    basis set group =>   3
Atom  26H    basis set group =>   3
Atom  27H    basis set group =>   3
Atom  28H    basis set group =>   3
Atom  29H    basis set group =>   3
Atom  30H    basis set group =>   3
Atom  31H    basis set group =>   3
Atom  32H    basis set group =>   3
Atom  33H    basis set group =>   3
Atom  34H    basis set group =>   3
Atom  35H    basis set group =>   3
Atom  36H    basis set group =>   3
Atom  37H    basis set group =>   3
Atom  38H    basis set group =>   3
Atom  39H    basis set group =>   3
Atom  40H    basis set group =>   3
Atom  41H    basis set group =>   3
Atom  42H    basis set group =>   3
Atom  43H    basis set group =>   3
Atom  44H    basis set group =>   3
Atom  45H    basis set group =>   3
Atom  46H    basis set group =>   3
Atom  47H    basis set group =>   3
Atom  48H    basis set group =>   3
Atom  49H    basis set group =>   3
Atom  50H    basis set group =>   3
Atom  51H    basis set group =>   3
----------------------------------
AUXILIARY/JK BASIS SET INFORMATION
----------------------------------
There are 3 groups of distinct atoms

 Group   1 Type P   : 16s12p10d4f1g contracted to 13s11p9d4f1g pattern {4111111111111/21111111111/211111111/1111/1}
 Group   2 Type C   : 14s10p6d2f1g contracted to 10s8p5d1f1g pattern {5111111111/31111111/21111/2/1}
 Group   3 Type H   : 4s2p2d contracted to 2s2p2d pattern {31/11/11}

Atom   0P    basis set group =>   1
Atom   1C    basis set group =>   2
Atom   2C    basis set group =>   2
Atom   3C    basis set group =>   2
Atom   4C    basis set group =>   2
Atom   5C    basis set group =>   2
Atom   6C    basis set group =>   2
Atom   7C    basis set group =>   2
Atom   8C    basis set group =>   2
Atom   9C    basis set group =>   2
Atom  10C    basis set group =>   2
Atom  11C    basis set group =>   2
Atom  12C    basis set group =>   2
Atom  13C    basis set group =>   2
Atom  14C    basis set group =>   2
Atom  15C    basis set group =>   2
Atom  16C    basis set group =>   2
Atom  17C    basis set group =>   2
Atom  18C    basis set group =>   2
Atom  19H    basis set group =>   3
Atom  20H    basis set group =>   3
Atom  21H    basis set group =>   3
Atom  22H    basis set group =>   3
Atom  23H    basis set group =>   3
Atom  24H    basis set group =>   3
Atom  25H    basis set group =>   3
Atom  26H    basis set group =>   3
Atom  27H    basis set group =>   3
Atom  28H    basis set group =>   3
Atom  29H    basis set group =>   3
Atom  30H    basis set group =>   3
Atom  31H    basis set group =>   3
Atom  32H    basis set group =>   3
Atom  33H    basis set group =>   3
Atom  34H    basis set group =>   3
Atom  35H    basis set group =>   3
Atom  36H    basis set group =>   3
Atom  37H    basis set group =>   3
Atom  38H    basis set group =>   3
Atom  39H    basis set group =>   3
Atom  40H    basis set group =>   3
Atom  41H    basis set group =>   3
Atom  42H    basis set group =>   3
Atom  43H    basis set group =>   3
Atom  44H    basis set group =>   3
Atom  45H    basis set group =>   3
Atom  46H    basis set group =>   3
Atom  47H    basis set group =>   3
Atom  48H    basis set group =>   3
Atom  49H    basis set group =>   3
Atom  50H    basis set group =>   3
Atom  51H    basis set group =>   3


           ************************************************************
           *        Program running with 24 parallel MPI-processes    *
           *              working on a common directory               *
           ************************************************************
------------------------------------------------------------------------------
                           ORCA GTO INTEGRAL CALCULATION
                           -- RI-GTO INTEGRALS CHOSEN --
------------------------------------------------------------------------------

                         BASIS SET STATISTICS AND STARTUP INFO

Gaussian basis set:
 # of primitive gaussian shells          ...  722
 # of primitive gaussian functions       ... 1632
 # of contracted shells                  ...  481
 # of contracted basis functions         ... 1275
 Highest angular momentum                ...    3
 Maximum contraction depth               ...    7
Auxiliary gaussian basis set:
 # of primitive gaussian shells          ...  901
 # of primitive gaussian functions       ... 2545
 # of contracted shells                  ...  686
 # of contracted aux-basis functions     ... 2072
 Highest angular momentum                ...    4
 Maximum contraction depth               ...    5
Ratio of auxiliary to basis functions    ...  1.63
Integral package used                  ... LIBINT
 One Electron integrals                  ... done
 Ordering auxiliary basis shells         ... done
 Integral threshhold             Thresh  ...  1.000e-10
 Primitive cut-off               TCut    ...  1.000e-11
 Pre-screening matrix                    ... done
 Shell pair data                         ... 
 Ordering of the shell pairs             ... done (   0.018 sec) 91289 of 115921 pairs
 Determination of significant pairs      ... done (   0.000 sec)
 Creation of shell pair data             ... done (   0.009 sec)
 Storage of shell pair data              ... done (   0.008 sec)
 Shell pair data done in (   0.035 sec)
 Computing two index integrals           ... done
 Cholesky decomposition of the V-matrix  ... done


Timings:
 Total evaluation time                   ...   1.669 sec (  0.028 min)
 One electron matrix time                ...   0.765 sec (  0.013 min) = 45.8%
 Schwartz matrix evaluation time         ...   0.573 sec (  0.010 min) = 34.3%
 Two index repulsion integral time       ...   0.084 sec (  0.001 min) =  5.0%
 Cholesky decomposition of V             ...   0.192 sec (  0.003 min) = 11.5%
 Three index repulsion integral time     ...   0.000 sec (  0.000 min) =  0.0%



           ************************************************************
           *        Program running with 24 parallel MPI-processes    *
           *              working on a common directory               *
           ************************************************************
-------------------------------------------------------------------------------
                                 ORCA SCF
-------------------------------------------------------------------------------

------------
SCF SETTINGS
------------
Hamiltonian:
 Density Functional     Method          .... DFT(GTOs)
 Exchange Functional    Exchange        .... B88
   X-Alpha parameter    XAlpha          ....  0.666667
   Becke's b parameter  XBeta           ....  0.004200
 Correlation Functional Correlation     .... LYP
 LDA part of GGA corr.  LDAOpt          .... VWN-3
 Gradients option       PostSCFGGA      .... off
 Hybrid DFT is turned on
   Fraction HF Exchange ScalHFX         ....  0.530000
   Scaling of DF-GGA-X  ScalDFX         ....  0.470000
   Scaling of DF-GGA-C  ScalDFC         ....  0.730000
   Scaling of DF-LDA-C  ScalLDAC        ....  0.730000
   Perturbative correction              ....  0.270000
   Density functional embedding theory  .... OFF
 RI-approximation to the Coulomb term is turned on
   Number of auxiliary basis functions  .... 2072
   RI-JK (J+K treated both via RI)      .... on


General Settings:
 Integral files         IntName         .... MOR22_pcy3
 Hartree-Fock type      HFTyp           .... RHF
 Total Charge           Charge          ....    0
 Multiplicity           Mult            ....    1
 Number of Electrons    NEL             ....  156
 Basis Dimension        Dim             .... 1275
 Nuclear Repulsion      ENuc            ....   1736.7128645412 Eh

Convergence Acceleration:
 DIIS                   CNVDIIS         .... on
   Start iteration      DIISMaxIt       ....    12
   Startup error        DIISStart       ....  0.200000
   # of expansion vecs  DIISMaxEq       ....     5
   Bias factor          DIISBfac        ....   1.050
   Max. coefficient     DIISMaxC        ....  10.000
 Newton-Raphson         CNVNR           .... off
 SOSCF                  CNVSOSCF        .... on
   Start iteration      SOSCFMaxIt      ....   150
   Startup grad/error   SOSCFStart      ....  0.003300
 Level Shifting         CNVShift        .... on
   Level shift para.    LevelShift      ....    0.2500
   Turn off err/grad.   ShiftErr        ....    0.0010
 Zerner damping         CNVZerner       .... off
 Static damping         CNVDamp         .... on
   Fraction old density DampFac         ....    0.7000
   Max. Damping (<1)    DampMax         ....    0.9800
   Min. Damping (>=0)   DampMin         ....    0.0000
   Turn off err/grad.   DampErr         ....    0.1000
 Fernandez-Rico         CNVRico         .... off

SCF Procedure:
 Maximum # iterations   MaxIter         ....   125
 SCF integral mode      SCFMode         .... Direct
   Integral package                     .... LIBINT
 Reset frequency        DirectResetFreq ....    20
 Integral Threshold     Thresh          ....  1.000e-10 Eh
 Primitive CutOff       TCut            ....  1.000e-11 Eh

Convergence Tolerance:
 Convergence Check Mode ConvCheckMode   .... Total+1el-Energy
 Convergence forced     ConvForced      .... 0
 Energy Change          TolE            ....  1.000e-06 Eh
 1-El. energy change                    ....  1.000e-03 Eh
 Orbital Gradient       TolG            ....  5.000e-05
 Orbital Rotation angle TolX            ....  5.000e-05
 DIIS Error             TolErr          ....  1.000e-06


Diagonalization of the overlap matrix:
Smallest eigenvalue                        ... 6.764e-07
Time for diagonalization                   ...    0.247 sec
Threshold for overlap eigenvalues          ... 1.000e-08
Number of eigenvalues below threshold      ... 0
Time for construction of square roots      ...    0.199 sec
Total time needed                          ...    0.451 sec

-------------------
DFT GRID GENERATION
-------------------

General Integration Accuracy     IntAcc      ...  4.670
Radial Grid Type                 RadialGrid  ... Gauss-Chebyshev
Angular Grid (max. acc.)         AngularGrid ... Lebedev-302
Angular grid pruning method      GridPruning ... 3 (G Style)
Weight generation scheme         WeightScheme... Becke
Basis function cutoff            BFCut       ...    1.0000e-10
Integration weight cutoff        WCut        ...    1.0000e-14
Grids for H and He will be reduced by one unit

# of grid points (after initial pruning)     ... 230664 (   0.0 sec)
# of grid points (after weights+screening)   ... 195513 (   0.2 sec)
nearest neighbour list constructed           ...    0.0 sec
Grid point re-assignment to atoms done       ...    0.0 sec
Grid point division into batches done        ...    0.5 sec
Reduced shell lists constructed in    1.5 sec

Total number of grid points                  ...   195513
Total number of batches                      ...     3078
Average number of points per batch           ...       63
Average number of grid points per atom       ...     3760
Average number of shells per batch           ...   294.28 (61.18%)
Average number of basis functions per batch  ...   768.50 (60.27%)
Average number of large shells per batch     ...   219.50 (74.59%)
Average number of large basis fcns per batch ...   565.16 (73.54%)
Average number of aux-shells per batch       ...   294.28 (42.90%)
Average number of aux functions per batch    ...   768.50 (37.09%)
Maximum spatial batch extension              ...   7.97,  7.37, 15.23 au
Average spatial batch extension              ...   0.05,  0.05,  0.06 au

Time for grid setup =    1.839 sec

------------------------------
INITIAL GUESS: MODEL POTENTIAL
------------------------------
Loading Hartree-Fock densities                     ... done
Calculating cut-offs                               ... done
Setting up the integral package                    ... done
Initializing the effective Hamiltonian             ... done
Starting the Coulomb interaction                   ... done (   0.3 sec)
Reading the grid                                   ... done
Mapping shells                                     ... done
Starting the XC term evaluation                    ... done (   1.0 sec)
  promolecular density results
     # of electrons  =    155.982338653
     EX              =   -125.100436119
     EC              =     -1.738152206
     EX+EC           =   -126.838588326
Transforming the Hamiltonian                       ... done (   0.1 sec)
Diagonalizing the Hamiltonian                      ... done (   0.2 sec)
Back transforming the eigenvectors                 ... done (   0.1 sec)
Now organizing SCF variables                       ... done
                      ------------------
                      INITIAL GUESS DONE (   3.7 sec)
                      ------------------
--------------
SCF ITERATIONS
--------------
ITER       Energy         Delta-E        Max-DP      RMS-DP      [F,P]     Damp
  0  -1044.8377706361   0.000000000000 0.30890647  0.00139083  0.1737868 0.7000
  1  -1044.6731252828   0.164645353226 0.35344990  0.00144381  0.1403057 0.7000
                               ***Turning on DIIS***
  2  -1044.8502143094  -0.177089026613 0.87752727  0.00331194  0.0720855 0.0000
  3  -1045.3638649649  -0.513650655453 0.33071260  0.00121449  0.0924903 0.0000
  4  -1045.5410309367  -0.177165971806 0.10632502  0.00051643  0.0317774 0.0000
  5  -1045.5603805656  -0.019349628862 0.03584603  0.00021503  0.0137528 0.0000
  6  -1045.5644807137  -0.004100148167 0.02103038  0.00011111  0.0049554 0.0000
                      *** Initiating the SOSCF procedure ***
                           *** Shutting down DIIS ***
                      *** Re-Reading the Fockian *** 
                      *** Removing any level shift *** 
ITER      Energy       Delta-E        Grad      Rot      Max-DP    RMS-DP
  7  -1045.56503692  -0.0005562021  0.000298  0.000298  0.020942  0.000088
  8  -1045.56510469  -0.0000677718  0.000129  0.000298  0.024554  0.000096
  9  -1045.56510934  -0.0000046502  0.000062  0.000090  0.024976  0.000077
 10  -1045.56511180  -0.0000024648  0.000023  0.000020  0.019655  0.000077
 11  -1045.56511186  -0.0000000589  0.000015  0.000011  0.023373  0.000088
                 **** Energy Check signals convergence ****
              ***Rediagonalizing the Fockian in SOSCF/NRSCF***

               *****************************************************
               *                     SUCCESS                       *
               *           SCF CONVERGED AFTER  12 CYCLES          *
               *****************************************************


----------------
TOTAL SCF ENERGY
----------------

Total Energy       :        -1045.56511189 Eh          -28451.27313 eV

Components:
Nuclear Repulsion  :         1736.71286454 Eh           47258.35961 eV
Electronic Energy  :        -2782.27797643 Eh          -75709.63274 eV
One Electron Energy:        -4876.64617932 Eh         -132700.28889 eV
Two Electron Energy:         2094.36820289 Eh           56990.65615 eV

Virial components:
Potential Energy   :        -2087.79442022 Eh          -56811.77443 eV
Kinetic Energy     :         1042.22930834 Eh           28360.50130 eV
Virial Ratio       :            2.00320064


DFT components:
N(Alpha)           :       77.999522416273 electrons
N(Beta)            :       77.999522416273 electrons
N(Total)           :      155.999044832545 electrons
E(X)               :      -60.142670409401 Eh       
E(C)               :       -3.811635945140 Eh       
E(XC)              :      -63.954306354541 Eh       
DFET-embed. en.    :        0.000000000000 Eh       

---------------
SCF CONVERGENCE
---------------

  Last Energy change         ...   -2.4778e-08  Tolerance :   1.0000e-06
  Last MAX-Density change    ...    3.2586e-02  Tolerance :   1.0000e-05
  Last RMS-Density change    ...    1.2183e-04  Tolerance :   1.0000e-06
  Last Orbital Gradient      ...    4.5971e-06  Tolerance :   5.0000e-05
  Last Orbital Rotation      ...    4.1819e-06  Tolerance :   5.0000e-05

             **** THE GBW FILE WAS UPDATED (MOR22_pcy3.gbw) ****
             **** DENSITY FILE WAS UPDATED (MOR22_pcy3.scfp) ****
             **** ENERGY FILE WAS UPDATED (MOR22_pcy3.en.tmp) ****
             **** THE GBW FILE WAS UPDATED (MOR22_pcy3.gbw) ****
             **** DENSITY FILE WAS UPDATED (MOR22_pcy3.scfp) ****
----------------
ORBITAL ENERGIES
----------------

  NO   OCC          E(Eh)            E(eV) 
   0   2.0000     -78.235810     -2128.9046 
   1   2.0000     -10.611135      -288.7436 
   2   2.0000     -10.609995      -288.7126 
   3   2.0000     -10.609649      -288.7032 
   4   2.0000     -10.605720      -288.5963 
   5   2.0000     -10.605376      -288.5869 
   6   2.0000     -10.604732      -288.5694 
   7   2.0000     -10.604533      -288.5640 
   8   2.0000     -10.604096      -288.5521 
   9   2.0000     -10.603917      -288.5473 
  10   2.0000     -10.603477      -288.5353 
  11   2.0000     -10.603409      -288.5334 
  12   2.0000     -10.603318      -288.5309 
  13   2.0000     -10.603300      -288.5305 
  14   2.0000     -10.603085      -288.5246 
  15   2.0000     -10.603041      -288.5234 
  16   2.0000     -10.602202      -288.5006 
  17   2.0000     -10.602114      -288.4982 
  18   2.0000     -10.601606      -288.4844 
  19   2.0000      -6.904996      -187.8945 
  20   2.0000      -4.955883      -134.8564 
  21   2.0000      -4.955743      -134.8526 
  22   2.0000      -4.952730      -134.7706 
  23   2.0000      -0.955164       -25.9913 
  24   2.0000      -0.944837       -25.7103 
  25   2.0000      -0.944480       -25.7006 
  26   2.0000      -0.869356       -23.6564 
  27   2.0000      -0.850297       -23.1378 
  28   2.0000      -0.848616       -23.0920 
  29   2.0000      -0.846145       -23.0248 
  30   2.0000      -0.841243       -22.8914 
  31   2.0000      -0.840227       -22.8637 
  32   2.0000      -0.733279       -19.9535 
  33   2.0000      -0.705807       -19.2060 
  34   2.0000      -0.702706       -19.1216 
  35   2.0000      -0.695256       -18.9189 
  36   2.0000      -0.688078       -18.7236 
  37   2.0000      -0.687480       -18.7073 
  38   2.0000      -0.647679       -17.6242 
  39   2.0000      -0.636814       -17.3286 
  40   2.0000      -0.631981       -17.1971 
  41   2.0000      -0.601772       -16.3751 
  42   2.0000      -0.547670       -14.9029 
  43   2.0000      -0.543710       -14.7951 
  44   2.0000      -0.536395       -14.5960 
  45   2.0000      -0.513151       -13.9635 
  46   2.0000      -0.507474       -13.8091 
  47   2.0000      -0.506975       -13.7955 
  48   2.0000      -0.506352       -13.7785 
  49   2.0000      -0.503790       -13.7088 
  50   2.0000      -0.500756       -13.6263 
  51   2.0000      -0.496861       -13.5203 
  52   2.0000      -0.481763       -13.1094 
  53   2.0000      -0.475089       -12.9278 
  54   2.0000      -0.445954       -12.1350 
  55   2.0000      -0.441422       -12.0117 
  56   2.0000      -0.439911       -11.9706 
  57   2.0000      -0.438417       -11.9299 
  58   2.0000      -0.437645       -11.9089 
  59   2.0000      -0.431247       -11.7348 
  60   2.0000      -0.418001       -11.3744 
  61   2.0000      -0.412637       -11.2284 
  62   2.0000      -0.409332       -11.1385 
  63   2.0000      -0.402760       -10.9597 
  64   2.0000      -0.401589       -10.9278 
  65   2.0000      -0.399466       -10.8700 
  66   2.0000      -0.393371       -10.7042 
  67   2.0000      -0.392290       -10.6747 
  68   2.0000      -0.383894       -10.4463 
  69   2.0000      -0.378114       -10.2890 
  70   2.0000      -0.368721       -10.0334 
  71   2.0000      -0.365108        -9.9351 
  72   2.0000      -0.356823        -9.7097 
  73   2.0000      -0.354999        -9.6600 
  74   2.0000      -0.352378        -9.5887 
  75   2.0000      -0.316718        -8.6183 
  76   2.0000      -0.316479        -8.6118 
  77   2.0000      -0.252680        -6.8758 
  78   0.0000       0.028451         0.7742 
  79   0.0000       0.034878         0.9491 
  80   0.0000       0.036806         1.0016 
  81   0.0000       0.040901         1.1130 
  82   0.0000       0.049161         1.3377 
  83   0.0000       0.051150         1.3919 
  84   0.0000       0.055219         1.5026 
  85   0.0000       0.057005         1.5512 
  86   0.0000       0.062432         1.6989 
  87   0.0000       0.069088         1.8800 
  88   0.0000       0.073435         1.9983 
  89   0.0000       0.076839         2.0909 
  90   0.0000       0.077852         2.1185 
  91   0.0000       0.087323         2.3762 
  92   0.0000       0.088378         2.4049 
  93   0.0000       0.090951         2.4749 
  94   0.0000       0.097583         2.6554 
  95   0.0000       0.102297         2.7836 
  96   0.0000       0.105210         2.8629 
  97   0.0000       0.111998         3.0476 
  98   0.0000       0.115598         3.1456 
  99   0.0000       0.118120         3.2142 
 100   0.0000       0.120281         3.2730 
 101   0.0000       0.122440         3.3318 
 102   0.0000       0.124596         3.3904 
 103   0.0000       0.132284         3.5996 
 104   0.0000       0.134487         3.6596 
 105   0.0000       0.137684         3.7466 
 106   0.0000       0.143882         3.9152 
 107   0.0000       0.145807         3.9676 
 108   0.0000       0.153184         4.1683 
 109   0.0000       0.155062         4.2194 
 110   0.0000       0.156658         4.2629 
 111   0.0000       0.162737         4.4283 
 112   0.0000       0.164297         4.4707 
 113   0.0000       0.167768         4.5652 
 114   0.0000       0.171394         4.6639 
 115   0.0000       0.174583         4.7506 
 116   0.0000       0.178910         4.8684 
 117   0.0000       0.183632         4.9969 
 118   0.0000       0.188503         5.1294 
 119   0.0000       0.188702         5.1349 
 120   0.0000       0.196834         5.3561 
 121   0.0000       0.200843         5.4652 
 122   0.0000       0.203838         5.5467 
 123   0.0000       0.204866         5.5747 
 124   0.0000       0.209159         5.6915 
 125   0.0000       0.212263         5.7760 
 126   0.0000       0.213866         5.8196 
 127   0.0000       0.216637         5.8950 
 128   0.0000       0.217964         5.9311 
 129   0.0000       0.219394         5.9700 
 130   0.0000       0.222339         6.0501 
 131   0.0000       0.223833         6.0908 
 132   0.0000       0.226060         6.1514 
 133   0.0000       0.229950         6.2573 
 134   0.0000       0.233164         6.3447 
 135   0.0000       0.234294         6.3755 
 136   0.0000       0.238146         6.4803 
 137   0.0000       0.241549         6.5729 
 138   0.0000       0.241981         6.5846 
 139   0.0000       0.243846         6.6354 
 140   0.0000       0.246030         6.6948 
 141   0.0000       0.247183         6.7262 
 142   0.0000       0.252155         6.8615 
 143   0.0000       0.253407         6.8956 
 144   0.0000       0.254001         6.9117 
 145   0.0000       0.255960         6.9650 
 146   0.0000       0.256491         6.9795 
 147   0.0000       0.260816         7.0972 
 148   0.0000       0.263094         7.1592 
 149   0.0000       0.266586         7.2542 
 150   0.0000       0.267915         7.2903 
 151   0.0000       0.268519         7.3068 
 152   0.0000       0.272707         7.4207 
 153   0.0000       0.275171         7.4878 
 154   0.0000       0.277210         7.5433 
 155   0.0000       0.279520         7.6061 
 156   0.0000       0.281109         7.6494 
 157   0.0000       0.284646         7.7456 
 158   0.0000       0.286189         7.7876 
 159   0.0000       0.290969         7.9177 
 160   0.0000       0.291589         7.9345 
 161   0.0000       0.292983         7.9725 
 162   0.0000       0.296055         8.0561 
 163   0.0000       0.299846         8.1592 
 164   0.0000       0.302132         8.2214 
 165   0.0000       0.303863         8.2685 
 166   0.0000       0.305224         8.3056 
 167   0.0000       0.308509         8.3950 
 168   0.0000       0.314496         8.5579 
 169   0.0000       0.316393         8.6095 
 170   0.0000       0.317720         8.6456 
 171   0.0000       0.322024         8.7627 
 172   0.0000       0.322764         8.7828 
 173   0.0000       0.323554         8.8044 
 174   0.0000       0.328720         8.9449 
 175   0.0000       0.330349         8.9893 
 176   0.0000       0.333214         9.0672 
 177   0.0000       0.334445         9.1007 
 178   0.0000       0.337224         9.1763 
 179   0.0000       0.340026         9.2526 
 180   0.0000       0.341766         9.2999 
 181   0.0000       0.343645         9.3511 
 182   0.0000       0.344820         9.3830 
 183   0.0000       0.347341         9.4516 
 184   0.0000       0.351184         9.5562 
 185   0.0000       0.353607         9.6221 
 186   0.0000       0.355656         9.6779 
 187   0.0000       0.358119         9.7449 
 188   0.0000       0.360418         9.8075 
 189   0.0000       0.361206         9.8289 
 190   0.0000       0.362713         9.8699 
 191   0.0000       0.364798         9.9267 
 192   0.0000       0.366732         9.9793 
 193   0.0000       0.368179        10.0187 
 194   0.0000       0.370316        10.0768 
 195   0.0000       0.370403        10.0792 
 196   0.0000       0.372982        10.1494 
 197   0.0000       0.375064        10.2060 
 198   0.0000       0.376911        10.2563 
 199   0.0000       0.378446        10.2980 
 200   0.0000       0.380340        10.3496 
 201   0.0000       0.381133        10.3711 
 202   0.0000       0.385947        10.5022 
 203   0.0000       0.388692        10.5768 
 204   0.0000       0.394646        10.7389 
 205   0.0000       0.397370        10.8130 
 206   0.0000       0.399896        10.8817 
 207   0.0000       0.400718        10.9041 
 208   0.0000       0.402549        10.9539 
 209   0.0000       0.404498        11.0069 
 210   0.0000       0.405042        11.0217 
 211   0.0000       0.411176        11.1887 
 212   0.0000       0.412798        11.2328 
 213   0.0000       0.414135        11.2692 
 214   0.0000       0.416108        11.3229 
 215   0.0000       0.418069        11.3762 
 216   0.0000       0.421461        11.4685 
 217   0.0000       0.422255        11.4902 
 218   0.0000       0.426159        11.5964 
 219   0.0000       0.427910        11.6440 
 220   0.0000       0.429589        11.6897 
 221   0.0000       0.430889        11.7251 
 222   0.0000       0.433302        11.7908 
 223   0.0000       0.434308        11.8181 
 224   0.0000       0.436678        11.8826 
 225   0.0000       0.441762        12.0209 
 226   0.0000       0.443438        12.0666 
 227   0.0000       0.445716        12.1285 
 228   0.0000       0.447261        12.1706 
 229   0.0000       0.450606        12.2616 
 230   0.0000       0.452887        12.3237 
 231   0.0000       0.455869        12.4048 
 232   0.0000       0.458043        12.4640 
 233   0.0000       0.459570        12.5055 
 234   0.0000       0.462485        12.5849 
 235   0.0000       0.463942        12.6245 
 236   0.0000       0.467760        12.7284 
 237   0.0000       0.469753        12.7826 
 238   0.0000       0.471103        12.8194 
 239   0.0000       0.476915        12.9775 
 240   0.0000       0.476957        12.9787 
 241   0.0000       0.479588        13.0503 
 242   0.0000       0.481647        13.1063 
 243   0.0000       0.484276        13.1778 
 244   0.0000       0.486877        13.2486 
 245   0.0000       0.491485        13.3740 
 246   0.0000       0.492234        13.3944 
 247   0.0000       0.496217        13.5028 
 248   0.0000       0.498679        13.5697 
 249   0.0000       0.500222        13.6117 
 250   0.0000       0.506794        13.7906 
 251   0.0000       0.510353        13.8874 
 252   0.0000       0.512934        13.9577 
 253   0.0000       0.514130        13.9902 
 254   0.0000       0.518530        14.1099 
 255   0.0000       0.519956        14.1487 
 256   0.0000       0.522632        14.2216 
 257   0.0000       0.523240        14.2381 
 258   0.0000       0.530033        14.4229 
 259   0.0000       0.531330        14.4582 
 260   0.0000       0.534013        14.5312 
 261   0.0000       0.536894        14.6096 
 262   0.0000       0.538773        14.6607 
 263   0.0000       0.544007        14.8032 
 264   0.0000       0.544795        14.8246 
 265   0.0000       0.546527        14.8717 
 266   0.0000       0.548751        14.9323 
 267   0.0000       0.553050        15.0493 
 268   0.0000       0.554172        15.0798 
 269   0.0000       0.555157        15.1066 
 270   0.0000       0.556888        15.1537 
 271   0.0000       0.562281        15.3004 
 272   0.0000       0.563380        15.3304 
 273   0.0000       0.567501        15.4425 
 274   0.0000       0.569627        15.5003 
 275   0.0000       0.571576        15.5534 
 276   0.0000       0.573906        15.6168 
 277   0.0000       0.574811        15.6414 
 278   0.0000       0.580476        15.7956 
 279   0.0000       0.582804        15.8589 
 280   0.0000       0.584419        15.9028 
 281   0.0000       0.586879        15.9698 
 282   0.0000       0.588681        16.0188 
 283   0.0000       0.593237        16.1428 
 284   0.0000       0.596444        16.2301 
 285   0.0000       0.598358        16.2821 
 286   0.0000       0.599504        16.3133 
 287   0.0000       0.601973        16.3805 
 288   0.0000       0.605037        16.4639 
 289   0.0000       0.607065        16.5191 
 290   0.0000       0.611405        16.6372 
 291   0.0000       0.614966        16.7341 
 292   0.0000       0.615559        16.7502 
 293   0.0000       0.619150        16.8479 
 294   0.0000       0.623698        16.9717 
 295   0.0000       0.626285        17.0421 
 296   0.0000       0.629826        17.1384 
 297   0.0000       0.632357        17.2073 
 298   0.0000       0.636101        17.3092 
 299   0.0000       0.639661        17.4061 
 300   0.0000       0.643796        17.5186 
 301   0.0000       0.646953        17.6045 
 302   0.0000       0.647704        17.6249 
 303   0.0000       0.650913        17.7122 
 304   0.0000       0.653434        17.7808 
 305   0.0000       0.657162        17.8823 
 306   0.0000       0.658075        17.9071 
 307   0.0000       0.661910        18.0115 
 308   0.0000       0.664746        18.0887 
 309   0.0000       0.667583        18.1659 
 310   0.0000       0.669815        18.2266 
 311   0.0000       0.672517        18.3001 
 312   0.0000       0.676095        18.3975 
 313   0.0000       0.677951        18.4480 
 314   0.0000       0.682267        18.5654 
 315   0.0000       0.688323        18.7302 
 316   0.0000       0.689779        18.7699 
 317   0.0000       0.692436        18.8421 
 318   0.0000       0.694344        18.8941 
 319   0.0000       0.696138        18.9429 
 320   0.0000       0.700205        19.0535 
 321   0.0000       0.700802        19.0698 
 322   0.0000       0.704508        19.1706 
 323   0.0000       0.704773        19.1779 
 324   0.0000       0.706206        19.2169 
 325   0.0000       0.708174        19.2704 
 326   0.0000       0.710263        19.3272 
 327   0.0000       0.712334        19.3836 
 328   0.0000       0.715446        19.4683 
 329   0.0000       0.717922        19.5356 
 330   0.0000       0.720765        19.6130 
 331   0.0000       0.723530        19.6882 
 332   0.0000       0.725328        19.7372 
 333   0.0000       0.732072        19.9207 
 334   0.0000       0.733180        19.9508 
 335   0.0000       0.734033        19.9741 
 336   0.0000       0.735203        20.0059 
 337   0.0000       0.736111        20.0306 
 338   0.0000       0.739010        20.1095 
 339   0.0000       0.742698        20.2098 
 340   0.0000       0.745851        20.2956 
 341   0.0000       0.748424        20.3656 
 342   0.0000       0.750489        20.4218 
 343   0.0000       0.751581        20.4516 
 344   0.0000       0.754010        20.5177 
 345   0.0000       0.758813        20.6484 
 346   0.0000       0.759709        20.6727 
 347   0.0000       0.761545        20.7227 
 348   0.0000       0.764513        20.8035 
 349   0.0000       0.767199        20.8766 
 350   0.0000       0.770010        20.9530 
 351   0.0000       0.771485        20.9932 
 352   0.0000       0.774694        21.0805 
 353   0.0000       0.777043        21.1444 
 354   0.0000       0.780591        21.2410 
 355   0.0000       0.785237        21.3674 
 356   0.0000       0.788569        21.4581 
 357   0.0000       0.789572        21.4854 
 358   0.0000       0.792050        21.5528 
 359   0.0000       0.793482        21.5917 
 360   0.0000       0.796714        21.6797 
 361   0.0000       0.800760        21.7898 
 362   0.0000       0.803158        21.8550 
 363   0.0000       0.804337        21.8871 
 364   0.0000       0.805778        21.9263 
 365   0.0000       0.813502        22.1365 
 366   0.0000       0.815138        22.1810 
 367   0.0000       0.817257        22.2387 
 368   0.0000       0.822312        22.3763 
 369   0.0000       0.827654        22.5216 
 370   0.0000       0.829703        22.5774 
 371   0.0000       0.831748        22.6330 
 372   0.0000       0.833347        22.6765 
 373   0.0000       0.835355        22.7312 
 374   0.0000       0.837002        22.7760 
 375   0.0000       0.840255        22.8645 
 376   0.0000       0.843208        22.9449 
 377   0.0000       0.846708        23.0401 
 378   0.0000       0.850557        23.1448 
 379   0.0000       0.854234        23.2449 
 380   0.0000       0.854841        23.2614 
 381   0.0000       0.857399        23.3310 
 382   0.0000       0.862462        23.4688 
 383   0.0000       0.865735        23.5578 
 384   0.0000       0.870629        23.6910 
 385   0.0000       0.872661        23.7463 
 386   0.0000       0.873642        23.7730 
 387   0.0000       0.876892        23.8615 
 388   0.0000       0.880569        23.9615 
 389   0.0000       0.884542        24.0696 
 390   0.0000       0.885906        24.1067 
 391   0.0000       0.887093        24.1390 
 392   0.0000       0.895027        24.3549 
 393   0.0000       0.897054        24.4101 
 394   0.0000       0.903004        24.5720 
 395   0.0000       0.905505        24.6400 
 396   0.0000       0.910848        24.7854 
 397   0.0000       0.914817        24.8934 
 398   0.0000       0.919167        25.0118 
 399   0.0000       0.922122        25.0922 
 400   0.0000       0.926232        25.2041 
 401   0.0000       0.929472        25.2922 
 402   0.0000       0.931760        25.3545 
 403   0.0000       0.938232        25.5306 
 404   0.0000       0.938884        25.5483 
 405   0.0000       0.940387        25.5892 
 406   0.0000       0.942762        25.6538 
 407   0.0000       0.948287        25.8042 
 408   0.0000       0.954862        25.9831 
 409   0.0000       0.958168        26.0731 
 410   0.0000       0.962402        26.1883 
 411   0.0000       0.965465        26.2716 
 412   0.0000       0.969683        26.3864 
 413   0.0000       0.972627        26.4665 
 414   0.0000       0.976374        26.5685 
 415   0.0000       0.978888        26.6369 
 416   0.0000       0.985705        26.8224 
 417   0.0000       0.986966        26.8567 
 418   0.0000       0.990971        26.9657 
 419   0.0000       0.996401        27.1134 
 420   0.0000       1.001302        27.2468 
 421   0.0000       1.001826        27.2611 
 422   0.0000       1.006854        27.3979 
 423   0.0000       1.017100        27.6767 
 424   0.0000       1.020891        27.7799 
 425   0.0000       1.024051        27.8659 
 426   0.0000       1.026140        27.9227 
 427   0.0000       1.030020        28.0283 
 428   0.0000       1.039914        28.2975 
 429   0.0000       1.041071        28.3290 
 430   0.0000       1.043480        28.3945 
 431   0.0000       1.046763        28.4839 
 432   0.0000       1.047658        28.5082 
 433   0.0000       1.053030        28.6544 
 434   0.0000       1.061198        28.8767 
 435   0.0000       1.064495        28.9664 
 436   0.0000       1.068030        29.0626 
 437   0.0000       1.069158        29.0933 
 438   0.0000       1.076349        29.2889 
 439   0.0000       1.084857        29.5205 
 440   0.0000       1.087397        29.5896 
 441   0.0000       1.091216        29.6935 
 442   0.0000       1.091939        29.7132 
 443   0.0000       1.095498        29.8100 
 444   0.0000       1.101714        29.9792 
 445   0.0000       1.107257        30.1300 
 446   0.0000       1.113657        30.3041 
 447   0.0000       1.119903        30.4741 
 448   0.0000       1.121440        30.5159 
 449   0.0000       1.127896        30.6916 
 450   0.0000       1.135886        30.9090 
 451   0.0000       1.136320        30.9208 
 452   0.0000       1.143733        31.1226 
 453   0.0000       1.147653        31.2292 
 454   0.0000       1.156693        31.4752 
 455   0.0000       1.160688        31.5839 
 456   0.0000       1.163462        31.6594 
 457   0.0000       1.166143        31.7324 
 458   0.0000       1.173987        31.9458 
 459   0.0000       1.174928        31.9714 
 460   0.0000       1.187954        32.3259 
 461   0.0000       1.193564        32.4785 
 462   0.0000       1.199378        32.6367 
 463   0.0000       1.208554        32.8864 
 464   0.0000       1.210544        32.9406 
 465   0.0000       1.214966        33.0609 
 466   0.0000       1.221245        33.2318 
 467   0.0000       1.224106        33.3096 
 468   0.0000       1.236422        33.6448 
 469   0.0000       1.241600        33.7857 
 470   0.0000       1.244453        33.8633 
 471   0.0000       1.247019        33.9331 
 472   0.0000       1.253484        34.1090 
 473   0.0000       1.260464        34.2990 
 474   0.0000       1.262592        34.3569 
 475   0.0000       1.266534        34.4641 
 476   0.0000       1.272619        34.6297 
 477   0.0000       1.276924        34.7469 
 478   0.0000       1.277265        34.7562 
 479   0.0000       1.291437        35.1418 
 480   0.0000       1.296402        35.2769 
 481   0.0000       1.305034        35.5118 
 482   0.0000       1.307749        35.5857 
 483   0.0000       1.310581        35.6627 
 484   0.0000       1.317924        35.8625 
 485   0.0000       1.323703        36.0198 
 486   0.0000       1.325590        36.0712 
 487   0.0000       1.329034        36.1649 
 488   0.0000       1.336466        36.3671 
 489   0.0000       1.343444        36.5570 
 490   0.0000       1.350941        36.7610 
 491   0.0000       1.352676        36.8082 
 492   0.0000       1.358941        36.9787 
 493   0.0000       1.363103        37.0919 
 494   0.0000       1.365855        37.1668 
 495   0.0000       1.370537        37.2942 
 496   0.0000       1.371813        37.3289 
 497   0.0000       1.378817        37.5195 
 498   0.0000       1.381128        37.5824 
 499   0.0000       1.387992        37.7692 
 500   0.0000       1.391396        37.8618 
 501   0.0000       1.396636        38.0044 
 502   0.0000       1.398350        38.0510 
 503   0.0000       1.407827        38.3089 
 504   0.0000       1.410968        38.3944 
 505   0.0000       1.416074        38.5333 
 506   0.0000       1.418694        38.6046 
 507   0.0000       1.422949        38.7204 
 508   0.0000       1.428277        38.8654 
 509   0.0000       1.432105        38.9696 
 510   0.0000       1.434466        39.0338 
 511   0.0000       1.438518        39.1441 
 512   0.0000       1.440423        39.1959 
 513   0.0000       1.444770        39.3142 
 514   0.0000       1.448567        39.4175 
 515   0.0000       1.450402        39.4674 
 516   0.0000       1.457746        39.6673 
 517   0.0000       1.460160        39.7330 
 518   0.0000       1.465524        39.8789 
 519   0.0000       1.466342        39.9012 
 520   0.0000       1.467723        39.9388 
 521   0.0000       1.473076        40.0844 
 522   0.0000       1.479053        40.2471 
 523   0.0000       1.481431        40.3118 
 524   0.0000       1.483970        40.3809 
 525   0.0000       1.486191        40.4413 
 526   0.0000       1.492867        40.6230 
 527   0.0000       1.494112        40.6569 
 528   0.0000       1.499985        40.8167 
 529   0.0000       1.502343        40.8808 
 530   0.0000       1.506954        41.0063 
 531   0.0000       1.510109        41.0922 
 532   0.0000       1.515531        41.2397 
 533   0.0000       1.520747        41.3816 
 534   0.0000       1.524989        41.4971 
 535   0.0000       1.529825        41.6286 
 536   0.0000       1.535505        41.7832 
 537   0.0000       1.538109        41.8541 
 538   0.0000       1.542120        41.9632 
 539   0.0000       1.543618        42.0040 
 540   0.0000       1.548821        42.1456 
 541   0.0000       1.556973        42.3674 
 542   0.0000       1.557049        42.3695 
 543   0.0000       1.562113        42.5072 
 544   0.0000       1.566324        42.6218 
 545   0.0000       1.577181        42.9173 
 546   0.0000       1.578430        42.9513 
 547   0.0000       1.582317        43.0570 
 548   0.0000       1.588514        43.2257 
 549   0.0000       1.591140        43.2971 
 550   0.0000       1.592136        43.3242 
 551   0.0000       1.600697        43.5572 
 552   0.0000       1.606347        43.7109 
 553   0.0000       1.608550        43.7709 
 554   0.0000       1.613468        43.9047 
 555   0.0000       1.615305        43.9547 
 556   0.0000       1.619201        44.0607 
 557   0.0000       1.620981        44.1091 
 558   0.0000       1.627936        44.2984 
 559   0.0000       1.633094        44.4387 
 560   0.0000       1.639117        44.6027 
 561   0.0000       1.648371        44.8545 
 562   0.0000       1.656196        45.0674 
 563   0.0000       1.660581        45.1867 
 564   0.0000       1.662235        45.2317 
 565   0.0000       1.668962        45.4148 
 566   0.0000       1.671374        45.4804 
 567   0.0000       1.672940        45.5230 
 568   0.0000       1.682394        45.7803 
 569   0.0000       1.684330        45.8329 
 570   0.0000       1.691396        46.0252 
 571   0.0000       1.695327        46.1322 
 572   0.0000       1.698714        46.2244 
 573   0.0000       1.706131        46.4262 
 574   0.0000       1.707486        46.4630 
 575   0.0000       1.712712        46.6053 
 576   0.0000       1.716310        46.7032 
 577   0.0000       1.725477        46.9526 
 578   0.0000       1.729121        47.0518 
 579   0.0000       1.730887        47.0998 
 580   0.0000       1.733482        47.1704 
 581   0.0000       1.736518        47.2531 
 582   0.0000       1.739226        47.3268 
 583   0.0000       1.744733        47.4766 
 584   0.0000       1.748168        47.5701 
 585   0.0000       1.749158        47.5970 
 586   0.0000       1.756257        47.7902 
 587   0.0000       1.760109        47.8950 
 588   0.0000       1.764785        48.0222 
 589   0.0000       1.768427        48.1214 
 590   0.0000       1.771874        48.2152 
 591   0.0000       1.776245        48.3341 
 592   0.0000       1.782728        48.5105 
 593   0.0000       1.786572        48.6151 
 594   0.0000       1.795687        48.8631 
 595   0.0000       1.804281        49.0970 
 596   0.0000       1.805044        49.1177 
 597   0.0000       1.809185        49.2304 
 598   0.0000       1.810912        49.2774 
 599   0.0000       1.816921        49.4409 
 600   0.0000       1.822703        49.5983 
 601   0.0000       1.824649        49.6512 
 602   0.0000       1.826360        49.6978 
 603   0.0000       1.836210        49.9658 
 604   0.0000       1.840095        50.0715 
 605   0.0000       1.844264        50.1850 
 606   0.0000       1.852199        50.4009 
 607   0.0000       1.854617        50.4667 
 608   0.0000       1.863423        50.7063 
 609   0.0000       1.869984        50.8848 
 610   0.0000       1.872048        50.9410 
 611   0.0000       1.873667        50.9851 
 612   0.0000       1.878362        51.1128 
 613   0.0000       1.887200        51.3533 
 614   0.0000       1.892011        51.4842 
 615   0.0000       1.895977        51.5922 
 616   0.0000       1.900177        51.7064 
 617   0.0000       1.909326        51.9554 
 618   0.0000       1.913970        52.0818 
 619   0.0000       1.916100        52.1397 
 620   0.0000       1.921680        52.2916 
 621   0.0000       1.927095        52.4389 
 622   0.0000       1.931589        52.5612 
 623   0.0000       1.937030        52.7093 
 624   0.0000       1.943786        52.8931 
 625   0.0000       1.952799        53.1384 
 626   0.0000       1.954432        53.1828 
 627   0.0000       1.957079        53.2548 
 628   0.0000       1.965437        53.4823 
 629   0.0000       1.973130        53.6916 
 630   0.0000       1.976127        53.7731 
 631   0.0000       1.982294        53.9410 
 632   0.0000       1.996951        54.3398 
 633   0.0000       1.998004        54.3684 
 634   0.0000       2.004604        54.5480 
 635   0.0000       2.008598        54.6567 
 636   0.0000       2.024981        55.1025 
 637   0.0000       2.029301        55.2201 
 638   0.0000       2.037704        55.4488 
 639   0.0000       2.044921        55.6451 
 640   0.0000       2.051502        55.8242 
 641   0.0000       2.053195        55.8703 
 642   0.0000       2.062871        56.1336 
 643   0.0000       2.075377        56.4739 
 644   0.0000       2.089480        56.8576 
 645   0.0000       2.094568        56.9961 
 646   0.0000       2.103143        57.2294 
 647   0.0000       2.113448        57.5098 
 648   0.0000       2.117763        57.6273 
 649   0.0000       2.127584        57.8945 
 650   0.0000       2.135881        58.1203 
 651   0.0000       2.143397        58.3248 
 652   0.0000       2.149637        58.4946 
 653   0.0000       2.160402        58.7875 
 654   0.0000       2.165049        58.9140 
 655   0.0000       2.168465        59.0069 
 656   0.0000       2.173767        59.1512 
 657   0.0000       2.182259        59.3823 
 658   0.0000       2.186938        59.5096 
 659   0.0000       2.197860        59.8068 
 660   0.0000       2.199640        59.8553 
 661   0.0000       2.216472        60.3133 
 662   0.0000       2.222872        60.4874 
 663   0.0000       2.235003        60.8175 
 664   0.0000       2.245052        61.0910 
 665   0.0000       2.249735        61.2184 
 666   0.0000       2.261780        61.5462 
 667   0.0000       2.267364        61.6981 
 668   0.0000       2.269230        61.7489 
 669   0.0000       2.280396        62.0527 
 670   0.0000       2.283531        62.1380 
 671   0.0000       2.296179        62.4822 
 672   0.0000       2.305687        62.7409 
 673   0.0000       2.319399        63.1141 
 674   0.0000       2.329505        63.3891 
 675   0.0000       2.337312        63.6015 
 676   0.0000       2.344228        63.7897 
 677   0.0000       2.354694        64.0745 
 678   0.0000       2.368627        64.4536 
 679   0.0000       2.373097        64.5753 
 680   0.0000       2.383889        64.8689 
 681   0.0000       2.388555        64.9959 
 682   0.0000       2.405967        65.4697 
 683   0.0000       2.406492        65.4840 
 684   0.0000       2.409816        65.5744 
 685   0.0000       2.421266        65.8860 
 686   0.0000       2.429579        66.1122 
 687   0.0000       2.433218        66.2112 
 688   0.0000       2.444106        66.5075 
 689   0.0000       2.448482        66.6266 
 690   0.0000       2.452858        66.7457 
 691   0.0000       2.463331        67.0306 
 692   0.0000       2.496004        67.9197 
 693   0.0000       2.501707        68.0749 
 694   0.0000       2.506207        68.1974 
 695   0.0000       2.512981        68.3817 
 696   0.0000       2.519001        68.5455 
 697   0.0000       2.527785        68.7845 
 698   0.0000       2.540462        69.1295 
 699   0.0000       2.549053        69.3632 
 700   0.0000       2.558129        69.6102 
 701   0.0000       2.572255        69.9946 
 702   0.0000       2.574025        70.0428 
 703   0.0000       2.585804        70.3633 
 704   0.0000       2.597065        70.6697 
 705   0.0000       2.603090        70.8337 
 706   0.0000       2.610069        71.0236 
 707   0.0000       2.624369        71.4127 
 708   0.0000       2.644925        71.9721 
 709   0.0000       2.655090        72.2487 
 710   0.0000       2.694722        73.3271 
 711   0.0000       2.708573        73.7040 
 712   0.0000       2.712673        73.8156 
 713   0.0000       2.719665        74.0059 
 714   0.0000       2.727434        74.2172 
 715   0.0000       2.730376        74.2973 
 716   0.0000       2.743902        74.6654 
 717   0.0000       2.762752        75.1783 
 718   0.0000       2.770906        75.4002 
 719   0.0000       2.779676        75.6388 
 720   0.0000       2.790558        75.9349 
 721   0.0000       2.796037        76.0840 
 722   0.0000       2.800810        76.2139 
 723   0.0000       2.804771        76.3217 
 724   0.0000       2.810169        76.4686 
 725   0.0000       2.814080        76.5750 
 726   0.0000       2.816232        76.6336 
 727   0.0000       2.823775        76.8388 
 728   0.0000       2.827965        76.9528 
 729   0.0000       2.836401        77.1824 
 730   0.0000       2.851238        77.5861 
 731   0.0000       2.858171        77.7748 
 732   0.0000       2.869801        78.0913 
 733   0.0000       2.878551        78.3294 
 734   0.0000       2.885795        78.5265 
 735   0.0000       2.891947        78.6939 
 736   0.0000       2.903515        79.0087 
 737   0.0000       2.925322        79.6021 
 738   0.0000       2.926636        79.6378 
 739   0.0000       2.933837        79.8338 
 740   0.0000       2.937534        79.9344 
 741   0.0000       2.942155        80.0601 
 742   0.0000       2.948791        80.2407 
 743   0.0000       2.953724        80.3749 
 744   0.0000       2.965949        80.7076 
 745   0.0000       2.980957        81.1160 
 746   0.0000       2.986321        81.2619 
 747   0.0000       2.991570        81.4047 
 748   0.0000       3.000207        81.6398 
 749   0.0000       3.005208        81.7759 
 750   0.0000       3.018341        82.1332 
 751   0.0000       3.038716        82.6877 
 752   0.0000       3.043455        82.8166 
 753   0.0000       3.050904        83.0193 
 754   0.0000       3.062958        83.3473 
 755   0.0000       3.071035        83.5671 
 756   0.0000       3.083019        83.8932 
 757   0.0000       3.089823        84.0784 
 758   0.0000       3.095083        84.2215 
 759   0.0000       3.106084        84.5209 
 760   0.0000       3.107918        84.5707 
 761   0.0000       3.110726        84.6472 
 762   0.0000       3.111388        84.6652 
 763   0.0000       3.114162        84.7407 
 764   0.0000       3.123298        84.9893 
 765   0.0000       3.126710        85.0821 
 766   0.0000       3.129831        85.1670 
 767   0.0000       3.136503        85.3486 
 768   0.0000       3.138530        85.4037 
 769   0.0000       3.148048        85.6627 
 770   0.0000       3.153514        85.8115 
 771   0.0000       3.167129        86.1820 
 772   0.0000       3.172636        86.3318 
 773   0.0000       3.175457        86.4086 
 774   0.0000       3.179302        86.5132 
 775   0.0000       3.180323        86.5410 
 776   0.0000       3.185653        86.6860 
 777   0.0000       3.189912        86.8019 
 778   0.0000       3.197038        86.9958 
 779   0.0000       3.205267        87.2197 
 780   0.0000       3.212763        87.4237 
 781   0.0000       3.217094        87.5416 
 782   0.0000       3.218913        87.5911 
 783   0.0000       3.224616        87.7463 
 784   0.0000       3.229054        87.8670 
 785   0.0000       3.234154        88.0058 
 786   0.0000       3.237549        88.0982 
 787   0.0000       3.244023        88.2744 
 788   0.0000       3.246597        88.3444 
 789   0.0000       3.253289        88.5265 
 790   0.0000       3.258169        88.6593 
 791   0.0000       3.260812        88.7312 
 792   0.0000       3.268687        88.9455 
 793   0.0000       3.279885        89.2502 
 794   0.0000       3.287029        89.4446 
 795   0.0000       3.290749        89.5458 
 796   0.0000       3.299784        89.7917 
 797   0.0000       3.307383        89.9985 
 798   0.0000       3.316352        90.2425 
 799   0.0000       3.323633        90.4407 
 800   0.0000       3.335500        90.7636 
 801   0.0000       3.337443        90.8164 
 802   0.0000       3.342232        90.9468 
 803   0.0000       3.346995        91.0764 
 804   0.0000       3.351609        91.2019 
 805   0.0000       3.355290        91.3021 
 806   0.0000       3.360708        91.4495 
 807   0.0000       3.366055        91.5950 
 808   0.0000       3.370006        91.7025 
 809   0.0000       3.373332        91.7930 
 810   0.0000       3.382467        92.0416 
[...]
      pz      :     0.078441  p :     0.296578
      px      :     0.095815
      py      :     0.122321
      dz2     :     0.002892  d :     0.029621
      dxz     :     0.004503
      dyz     :     0.004807
      dx2y2   :     0.009349
      dxy     :     0.008070
 41 H s       :     0.665102  s :     0.665102
      pz      :     0.134396  p :     0.315474
      px      :     0.094640
      py      :     0.086438
      dz2     :     0.011347  d :     0.031121
      dxz     :     0.009722
      dyz     :     0.008828
      dx2y2   :     0.000397
      dxy     :     0.000827
 42 H s       :     0.676422  s :     0.676422
      pz      :     0.083405  p :     0.300183
      px      :     0.104730
      py      :     0.112048
      dz2     :     0.003309  d :     0.029576
      dxz     :     0.002196
      dyz     :     0.006954
      dx2y2   :     0.008853
      dxy     :     0.008263
 43 H s       :     0.677929  s :     0.677929
      pz      :     0.122842  p :     0.273203
      px      :     0.077612
      py      :     0.072748
      dz2     :     0.010715  d :     0.029485
      dxz     :     0.009242
      dyz     :     0.008722
      dx2y2   :     0.000228
      dxy     :     0.000579
 44 H s       :     0.685612  s :     0.685612
      pz      :     0.122090  p :     0.265704
      px      :     0.072037
      py      :     0.071577
      dz2     :     0.010399  d :     0.029330
      dxz     :     0.009058
      dyz     :     0.008829
      dx2y2   :     0.000350
      dxy     :     0.000693
 45 H s       :     0.696731  s :     0.696731
      pz      :     0.076203  p :     0.262471
      px      :     0.086800
      py      :     0.099468
      dz2     :     0.004094  d :     0.029178
      dxz     :     0.003793
      dyz     :     0.005237
      dx2y2   :     0.008495
      dxy     :     0.007558
 46 H s       :     0.686292  s :     0.686292
      pz      :     0.123986  p :     0.265615
      px      :     0.074182
      py      :     0.067448
      dz2     :     0.010041  d :     0.029323
      dxz     :     0.009437
      dyz     :     0.008395
      dx2y2   :     0.000483
      dxy     :     0.000966
 47 H s       :     0.698039  s :     0.698039
      pz      :     0.087597  p :     0.262594
      px      :     0.107309
      py      :     0.067688
      dz2     :     0.006305  d :     0.029157
      dxz     :     0.007776
      dyz     :     0.002176
      dx2y2   :     0.005838
      dxy     :     0.007062
 48 H s       :     0.696911  s :     0.696911
      pz      :     0.073072  p :     0.262746
      px      :     0.079647
      py      :     0.110027
      dz2     :     0.003349  d :     0.029185
      dxz     :     0.002232
      dyz     :     0.006723
      dx2y2   :     0.008583
      dxy     :     0.008299
 49 H s       :     0.685779  s :     0.685779
      pz      :     0.121409  p :     0.265641
      px      :     0.070990
      py      :     0.073242
      dz2     :     0.010617  d :     0.029336
      dxz     :     0.009183
      dyz     :     0.008695
      dx2y2   :     0.000226
      dxy     :     0.000615
 50 H s       :     0.682292  s :     0.682292
      pz      :     0.079335  p :     0.292564
      px      :     0.112779
      py      :     0.100451
      dz2     :     0.004169  d :     0.029613
      dxz     :     0.003755
      dyz     :     0.005461
      dx2y2   :     0.008632
      dxy     :     0.007595
 51 H s       :     0.678903  s :     0.678903
      pz      :     0.123992  p :     0.272016
      px      :     0.076082
      py      :     0.071942
      dz2     :     0.010468  d :     0.029415
      dxz     :     0.009136
      dyz     :     0.008883
      dx2y2   :     0.000311
      dxy     :     0.000616


                      *****************************
                      * MAYER POPULATION ANALYSIS *
                      *****************************

  NA   - Mulliken gross atomic population
  ZA   - Total nuclear charge
  QA   - Mulliken gross atomic charge
  VA   - Mayer's total valence
  BVA  - Mayer's bonded valence
  FA   - Mayer's free valence

  ATOM       NA         ZA         QA         VA         BVA        FA
  0 P     16.0578    15.0000    -1.0578     2.2000     2.2000     0.0000
  1 C      5.4336     6.0000     0.5664     4.3682     4.3682    -0.0000
  2 C      5.9603     6.0000     0.0397     4.0155     4.0155    -0.0000
  3 C      6.5237     6.0000    -0.5237     4.2537     4.2537     0.0000
  4 C      6.1450     6.0000    -0.1450     4.1717     4.1717    -0.0000
  5 C      6.4065     6.0000    -0.4065     4.2502     4.2502    -0.0000
  6 C      6.4092     6.0000    -0.4092     4.3443     4.3443    -0.0000
  7 C      5.2055     6.0000     0.7945     4.2488     4.2488    -0.0000
  8 C      6.1432     6.0000    -0.1432     4.2780     4.2780    -0.0000
  9 C      6.3838     6.0000    -0.3838     4.1878     4.1878     0.0000
 10 C      6.2141     6.0000    -0.2141     4.1967     4.1967     0.0000
 11 C      6.3787     6.0000    -0.3787     4.2482     4.2482     0.0000
 12 C      6.4220     6.0000    -0.4220     3.9994     3.9994    -0.0000
 13 C      5.3982     6.0000     0.6018     4.2311     4.2311     0.0000
 14 C      6.3304     6.0000    -0.3304     4.0089     4.0089     0.0000
 15 C      6.2308     6.0000    -0.2308     4.1409     4.1409    -0.0000
 16 C      6.3555     6.0000    -0.3555     4.3606     4.3606    -0.0000
 17 C      6.1451     6.0000    -0.1451     4.0387     4.0387    -0.0000
 18 C      6.3635     6.0000    -0.3635     3.8443     3.8443     0.0000
 19 H      0.6263     1.0000     0.3737     0.3600     0.3600     0.0000
 20 H      0.8956     1.0000     0.1044     0.7722     0.7722    -0.0000
 21 H      1.1294     1.0000    -0.1294     0.9957     0.9957    -0.0000
 22 H      0.9385     1.0000     0.0615     1.0691     1.0691     0.0000
 23 H      0.8554     1.0000     0.1446     0.9445     0.9445     0.0000
 24 H      0.9149     1.0000     0.0851     1.0458     1.0458    -0.0000
 25 H      0.8948     1.0000     0.1052     0.9603     0.9603    -0.0000
 26 H      0.8635     1.0000     0.1365     0.9516     0.9516    -0.0000
 27 H      0.9465     1.0000     0.0535     1.0856     1.0856    -0.0000
 28 H      0.8445     1.0000     0.1555     0.8686     0.8686     0.0000
 29 H      0.9001     1.0000     0.0999     0.8791     0.8791     0.0000
 30 H      0.7297     1.0000     0.2703     0.5333     0.5333     0.0000
 31 H      0.8837     1.0000     0.1163     0.9586     0.9586    -0.0000
 32 H      0.9974     1.0000     0.0026     0.9804     0.9804     0.0000
 33 H      0.8762     1.0000     0.1238     0.7896     0.7896    -0.0000
 34 H      0.9445     1.0000     0.0555     1.0711     1.0711     0.0000
 35 H      0.9118     1.0000     0.0882     1.0476     1.0476     0.0000
 36 H      0.8952     1.0000     0.1048     0.9715     0.9715     0.0000
 37 H      0.9510     1.0000     0.0490     1.0767     1.0767     0.0000
 38 H      0.8616     1.0000     0.1384     0.9529     0.9529    -0.0000
 39 H      0.8909     1.0000     0.1091     0.8737     0.8737     0.0000
 40 H      0.8929     1.0000     0.1071     0.9122     0.9122    -0.0000
 41 H      0.7261     1.0000     0.2739     0.4225     0.4225    -0.0000
 42 H      1.0590     1.0000    -0.0590     1.0514     1.0514     0.0000
 43 H      0.7203     1.0000     0.2797     0.7369     0.7369     0.0000
 44 H      0.8975     1.0000     0.1025     0.9662     0.9662    -0.0000
 45 H      0.9254     1.0000     0.0746     1.0251     1.0251    -0.0000
 46 H      0.8660     1.0000     0.1340     0.9505     0.9505     0.0000
 47 H      0.9280     1.0000     0.0720     1.0697     1.0697    -0.0000
 48 H      0.9262     1.0000     0.0738     1.0322     1.0322    -0.0000
 49 H      0.9014     1.0000     0.0986     0.9591     0.9591    -0.0000
 50 H      1.1327     1.0000    -0.1327     1.1504     1.1504    -0.0000
 51 H      0.7659     1.0000     0.2341     0.8092     0.8092     0.0000

  Mayer bond orders larger than 0.100000
B(  0-P ,  1-C ) :   0.7563 B(  0-P ,  6-C ) :   0.2772 B(  0-P ,  7-C ) :   0.6008 
B(  0-P ,  8-C ) :   0.1829 B(  0-P , 13-C ) :   0.5991 B(  0-P , 14-C ) :   0.2640 
B(  0-P , 19-H ) :  -0.1315 B(  0-P , 39-H ) :  -0.1287 B(  1-C ,  2-C ) :   1.0201 
B(  1-C ,  3-C ) :   0.2304 B(  1-C ,  5-C ) :   0.2869 B(  1-C ,  6-C ) :   1.1089 
B(  1-C ,  7-C ) :   0.1659 B(  1-C , 19-H ) :   0.8591 B(  2-C ,  3-C ) :   1.0034 
B(  2-C , 19-H ) :  -0.1415 B(  2-C , 20-H ) :   0.9775 B(  2-C , 21-H ) :   1.0232 
B(  3-C ,  4-C ) :   0.9824 B(  3-C ,  5-C ) :   0.1933 B(  3-C , 20-H ) :  -0.1287 
B(  3-C , 21-H ) :   0.1053 B(  3-C , 22-H ) :   0.9795 B(  3-C , 23-H ) :   0.9932 
B(  4-C ,  5-C ) :   0.9996 B(  4-C , 24-H ) :   1.0210 B(  4-C , 25-H ) :   1.0093 
B(  5-C ,  6-C ) :   0.9471 B(  5-C , 26-H ) :   1.0031 B(  5-C , 27-H ) :   0.9924 
B(  6-C , 19-H ) :  -0.1361 B(  6-C , 28-H ) :   0.9188 B(  6-C , 29-H ) :   1.0646 
B(  7-C ,  8-C ) :   1.1323 B(  7-C ,  9-C ) :   0.2165 B(  7-C , 11-C ) :   0.2016 
B(  7-C , 12-C ) :   1.0152 B(  7-C , 13-C ) :   0.1375 B(  7-C , 30-H ) :   0.8963 
B(  8-C ,  9-C ) :   0.9479 B(  8-C , 30-H ) :  -0.1066 B(  8-C , 32-H ) :   0.9873 
B(  8-C , 33-H ) :   1.0169 B(  9-C , 10-C ) :   0.9941 B(  9-C , 11-C ) :   0.1610 
B(  9-C , 31-H ) :   0.9943 B(  9-C , 33-H ) :  -0.1042 B(  9-C , 34-H ) :   0.9894 
B( 10-C , 11-C ) :   0.9993 B( 10-C , 35-H ) :   1.0235 B( 10-C , 36-H ) :   1.0146 
B( 11-C , 12-C ) :   0.9205 B( 11-C , 37-H ) :   1.0174 B( 11-C , 38-H ) :   0.9983 
B( 12-C , 39-H ) :   1.0138 B( 12-C , 40-H ) :   1.0331 B( 13-C , 14-C ) :   1.0487 
B( 13-C , 15-C ) :   0.2206 B( 13-C , 17-C ) :   0.1443 B( 13-C , 18-C ) :   1.0720 
B( 13-C , 41-H ) :   0.9274 B( 14-C , 15-C ) :   0.8305 B( 14-C , 16-C ) :   0.1645 
B( 14-C , 41-H ) :  -0.1620 B( 14-C , 42-H ) :   1.0469 B( 14-C , 43-H ) :   0.9092 
B( 15-C , 16-C ) :   1.0205 B( 15-C , 42-H ) :   0.1156 B( 15-C , 44-H ) :   1.0042 
B( 15-C , 45-H ) :   1.0251 B( 16-C , 17-C ) :   0.9977 B( 16-C , 18-C ) :   0.1877 
B( 16-C , 46-H ) :   0.9968 B( 16-C , 47-H ) :   1.0272 B( 17-C , 18-C ) :   0.8157 
B( 17-C , 48-H ) :   1.0244 B( 17-C , 49-H ) :   0.9946 B( 18-C , 41-H ) :  -0.1837 
B( 18-C , 50-H ) :   1.0710 B( 18-C , 51-H ) :   0.9160 

-------
TIMINGS
-------

Total SCF time: 0 days 0 hours 2 min 42 sec 

Total time                  ....     162.418 sec
Sum of individual times     ....     159.995 sec  ( 98.5%)

Fock matrix formation       ....     149.462 sec  ( 92.0%)
  XC integration            ....      14.839 sec  (  9.9% of F)
    Basis function eval.    ....       2.434 sec  ( 16.4% of XC)
    Density eval.           ....       5.673 sec  ( 38.2% of XC)
    XC-Functional eval.     ....       0.084 sec  (  0.6% of XC)
    XC-Potential eval.      ....       5.029 sec  ( 33.9% of XC)
Diagonalization             ....       2.331 sec  (  1.4%)
Density matrix formation    ....       0.213 sec  (  0.1%)
Population analysis         ....       0.445 sec  (  0.3%)
Initial guess               ....       1.869 sec  (  1.2%)
Orbital Transformation      ....       0.000 sec  (  0.0%)
Orbital Orthonormalization  ....       0.000 sec  (  0.0%)
DIIS solution               ....       2.209 sec  (  1.4%)
SOSCF solution              ....       1.627 sec  (  1.0%)
Grid generation             ....       1.839 sec  (  1.1%)


           ************************************************************
           *        Program running with 24 parallel MPI-processes    *
           *              working on a common directory               *
           ************************************************************

------------------------------------------------------------------------------
                                ORCA  MP2 
------------------------------------------------------------------------------

Freezing NCore=46 chemical core electrons

-------------
RI-MP2 ENERGY
-------------
Dimension of the basis                    ... 1275
Memory devoted to MP2                     ... 5000 MB   
Data format for buffers                   ... DOUBLE
Compression type for matrix containers    ... UNCOMPRESSED
Overall scaling of the MP2 energy         ...   2.700e-01
Calculating two index integrals           ... done (    0.059 sec)
Cholesky decomposition of V**-1           ... done (    0.937 sec)

-----------------
RI-TRANSFORMATION (AUX index driven)
-----------------

Dimension of the orbital-basis         ... 1275
Dimension of the aux-basis             ... 3082
Transformation of internal/external MOs...   23-  77 to   78-1274
Number Format for Storage              ... Double (8 Byte)
Integral mode                          ... Direct

First Phase: integral generation and transformation of MO indices
  Aux angular momentum 0               ... done (    0.688 sec)
  Aux angular momentum 1               ... done (    1.363 sec)
  Aux angular momentum 2               ... done (    1.651 sec)
  Aux angular momentum 3               ... done (    1.266 sec)
  Aux angular momentum 4               ... done (    0.302 sec)
Closing buffer VIA ( 1.51 GB; CompressionRatio= 1.00)
  Phase 1 completed in     5.666 sec
Second Phase: sorting and transformation of aux index

IA-Transformation
Memory available                       ... 4796 MB 
Max. # MO pairs treated in a batch     ... 3    
# of internal orbitals                 ... 55
# batches for internal orbitals        ... 1
Closing buffer IAV ( 0.08 GB; CompressionRatio= 1.00)
(ia|v) transformation done in     1.591 sec

  Phase 2 completed in     5.107 sec
RI-Integral transformation completed in    10.812 sec
Opening buffers                              ... done

Starting loop over batches of integrals:

Operator 0  - window                       ... ( 23- 77)x( 78-1274)
Operator 0  - Memory available             ...  5000 MB
Operator 0  - Memory needed per MO         ...  28.1 MB
Operator 0  - Number of orbitals per batch ... 3
Operator 0  - Number of batches            ... 1

OPERATOR  0   PASS   0:  MOs    23 ...   25 +   26 ...   28 +   29 ...   31 +   32 ...   34
                            +   35 ...   37 +   38 ...   40 +   41 ...   43 +   44 ...   46
                            +   47 ...   49 +   50 ...   52 +   53 ...   55 +   56 ...   58
                            +   59 ...   61 +   62 ...   64 +   65 ...   67 +   68 ...   70
                            +   71 ...   73 +   74 ...   76 +   77 ...   77
  Reading integrals       ... ok
  Internal MO  25
Time spent in pair loops =     1.147 sec
Deleting buffer (Ka|jb)[aa] ...done

-----------------------------------------------
 RI-MP2 CORRELATION ENERGY:     -1.073428356 Eh
-----------------------------------------------


-------
TIMINGS
-------

Total time                :   36.776 sec
Integral trafo            :   10.838 sec ( 29.5%)
I/O of integrals          :    0.083 sec (  0.2%)
K(i,j) Operators          :    0.866 sec (  2.4%)
T(i,j) pair energies      :    0.121 sec (  0.3%)
V-calculation             :    0.059 sec (  0.2%)
V**(-1/2)                 :    0.937 sec (  2.5%)
Gamma(ia|P)               :    0.000 sec (  0.0%)
Gamma-Trafo               :    0.000 sec (  0.0%)
D(virtual)                :    0.000 sec (  0.0%)
D(internal)               :    0.000 sec (  0.0%)
W(virtual)                :    0.000 sec (  0.0%)
W(internal)               :    0.000 sec (  0.0%)
L(virtual)                :    0.000 sec (  0.0%)
L(internal)               :    0.000 sec (  0.0%)
G(D)                      :    0.000 sec (  0.0%)
G(Z)                      :    0.000 sec (  0.0%)
Z-Vector Solution         :    0.000 sec (  0.0%)
Z-Vector Solution         :    0.000 sec (  0.0%)
3-Index Derivative 
+ Separable RIJ part      :    0.000 sec (  0.0%)
2-Index Derivative 
+ Separable RIJ part      :    0.000 sec (  0.0%)
Separable Gradient (X)    :    0.000 sec (  0.0%)


---------------------------------------
MP2 TOTAL ENERGY:    -1046.638540242 Eh
---------------------------------------


-------------------------------------------------------------------------------
                          DFT DISPERSION CORRECTION                            
                                                                               
                              DFTD3 V3.1  Rev 1                                
                          USING Becke-Johnson damping                          
-------------------------------------------------------------------------------
The B2PLYP functional is recognized
Active option DFTDOPT                   ...         4   

molecular C6(AA) [au] = 21541.164526 


            DFT-D V3
 parameters
 s6 scaling factor         :     0.6400 
 a1 scaling factor         :     0.3065 
 s8 scaling factor         :     0.9147 
 a2 scaling factor         :     5.0570 
 ad hoc parameters k1-k3   :    16.0000     1.3333    -4.0000 

 Edisp/kcal,au: -32.754229573310  -0.052197181769 
 E6   /kcal   : -18.873562649 
 E8   /kcal   : -13.880666924 
 % E8         :  42.378242764 

-------------------------   ----------------
Dispersion correction           -0.052197182
-------------------------   ----------------


-------------------------   --------------------
FINAL SINGLE POINT ENERGY     -1046.690737423696
-------------------------   --------------------


                            ***************************************
                            *     ORCA property calculations      *
                            ***************************************


  WARNING: The energy has been calculated at the MP2 level but the densities
           used in the property calculations are still SCF densities
           MP2 response densities have not been calculated 
           use %mp2 Density relaxed end
           or  %mp2 Density unrelaxed end

                                    ---------------------
                                    Active property flags
                                    ---------------------
   (+) Dipole Moment


------------------------------------------------------------------------------
                       ORCA ELECTRIC PROPERTIES CALCULATION
------------------------------------------------------------------------------

Dipole Moment Calculation                       ... on
Quadrupole Moment Calculation                   ... off
Polarizability Calculation                      ... off
GBWName                                         ... MOR22_pcy3.gbw
Electron density file                           ... MOR22_pcy3.scfp
The origin for moment calculation is the CENTER OF MASS  = (-0.009096, -0.003360 -0.045198)

-------------
DIPOLE MOMENT
-------------
                                X             Y             Z
Electronic contribution:     -1.36688      -0.48127      -6.52562
Nuclear contribution   :      1.41899       0.52417       7.05083
                        -----------------------------------------
Total Dipole Moment    :      0.05211       0.04290       0.52521
                        -----------------------------------------
Magnitude (a.u.)       :      0.52953
Magnitude (Debye)      :      1.34595



--------------------
Rotational spectrum 
--------------------
 
Rotational constants in cm-1:     0.011612     0.009073     0.005947 
Rotational constants in MHz :   348.132374   272.016111   178.294122 

 Dipole components along the rotational axes: 
x,y,z [a.u.] :     0.053095    -0.042927     0.525106 
x,y,z [Debye]:     0.134957    -0.109111     1.334714 

 

Timings for individual modules:

Sum of individual times         ...      202.509 sec (=   3.375 min)
GTO integral calculation        ...        2.038 sec (=   0.034 min)   1.0 %
SCF iterations                  ...      162.821 sec (=   2.714 min)  80.4 %
MP2 module                      ...       37.650 sec (=   0.627 min)  18.6 %
                             ****ORCA TERMINATED NORMALLY****
TOTAL RUN TIME: 0 days 0 hours 3 minutes 23 seconds 242 msec
