
                                 *****************
                                 * O   R   C   A *
                                 *****************

           --- An Ab Initio, DFT and Semiempirical electronic structure package ---

                  #######################################################
                  #                        -***-                        #
                  #          Department of theory and spectroscopy      #
                  #               Directorship: Frank Neese             #
                  #        Max Planck Institute fuer Kohlenforschung    #
                  #                Kaiser Wilhelm Platz 1               #
                  #                 D-45470 Muelheim/Ruhr               #
                  #                      Germany                        #
                  #                                                     #
                  #                  All rights reserved                #
                  #                        -***-                        #
                  #######################################################


                         Program Version 4.2.0 -  RELEASE  -


 With contributions from (in alphabetic order):
   Daniel Aravena         : Magnetic Suceptibility
   Michael Atanasov       : Ab Initio Ligand Field Theory (pilot matlab implementation)
   Alexander A. Auer      : GIAO ZORA, VPT2
   Ute Becker             : Parallelization
   Giovanni Bistoni       : ED, misc. LED, open-shell LED, HFLED
   Martin Brehm           : Molecular dynamics
   Dmytro Bykov           : SCF Hessian
   Vijay G. Chilkuri      : MRCI spin determinant printing, contributions to CSF-ICE
   Dipayan Datta          : RHF DLPNO-CCSD density
   Achintya Kumar Dutta   : EOM-CC, STEOM-CC
   Dmitry Ganyushin       : Spin-Orbit,Spin-Spin,Magnetic field MRCI
   Miquel Garcia          : C-PCM Hessian, Gaussian charge scheme
   Yang Guo               : DLPNO-NEVPT2, CIM, IAO-localization
   Andreas Hansen         : Spin unrestricted coupled pair/coupled cluster methods
   Benjamin Helmich-Paris : CASSCF linear response (MC-RPA)
   Lee Huntington         : MR-EOM, pCC
   Robert Izsak           : Overlap fitted RIJCOSX, COSX-SCS-MP3, EOM
   Christian Kollmar      : KDIIS, OOCD, Brueckner-CCSD(T), CCSD density
   Simone Kossmann        : Meta GGA functionals, TD-DFT gradient, OOMP2, MP2 Hessian
   Martin Krupicka        : AUTO-CI
   Lucas Lang             : DCDCAS
   Dagmar Lenk            : GEPOL surface, SMD
   Dimitrios Liakos       : Extrapolation schemes; Compound Job, initial MDCI parallelization
   Dimitrios Manganas     : Further ROCIS development; embedding schemes
   Dimitrios Pantazis     : SARC Basis sets
   Taras Petrenko         : DFT Hessian,TD-DFT gradient, ASA, ECA, R-Raman, ABS, FL, XAS/XES, NRVS
   Peter Pinski           : DLPNO-MP2, DLPNO-MP2 Gradient
   Christoph Reimann      : Effective Core Potentials
   Marius Retegan         : Local ZFS, SOC
   Christoph Riplinger    : Optimizer, TS searches, QM/MM, DLPNO-CCSD(T), (RO)-DLPNO pert. Triples
   Tobias Risthaus        : Range-separated hybrids, TD-DFT gradient, RPA, STAB
   Michael Roemelt        : Original ROCIS implementation
   Masaaki Saitow         : Open-shell DLPNO-CCSD energy and density
   Barbara Sandhoefer     : DKH picture change effects
   Avijit Sen             : IP-ROCIS
   Kantharuban Sivalingam : CASSCF convergence, NEVPT2, FIC-MRCI
   Bernardo de Souza      : ESD, SOC TD-DFT
   Georgi Stoychev        : AutoAux, RI-MP2 NMR
   Willem Van den Heuvel  : Paramagnetic NMR
   Boris Wezisla          : Elementary symmetry handling
   Frank Wennmohs         : Technical directorship


 We gratefully acknowledge several colleagues who have allowed us to
 interface, adapt or use parts of their codes:
   Stefan Grimme, W. Hujo, H. Kruse,             : VdW corrections, initial TS optimization,
                  C. Bannwarth                     DFT functionals, gCP, sTDA/sTD-DF
   Ed Valeev, F. Pavosevic, A. Kumar             : LibInt (2-el integral package), F12 methods
   Garnet Chan, S. Sharma, J. Yang, R. Olivares  : DMRG
   Ulf Ekstrom                                   : XCFun DFT Library
   Mihaly Kallay                                 : mrcc  (arbitrary order and MRCC methods)
   Andreas Klamt, Michael Diedenhofen            : otool_cosmo (COSMO solvation model)
   Jiri Pittner, Ondrej Demel                    : Mk-CCSD
   Frank Weinhold                                : gennbo (NPA and NBO analysis)
   Christopher J. Cramer and Donald G. Truhlar   : smd solvation model
   Lars Goerigk                                  : TD-DFT with DH, B97 family of functionals
   V. Asgeirsson, H. Jonsson                     : NEB implementation
   FAccTs GmbH                                   : IRC, NEB, NEB-TS, Multilevel, MM, QM/MM, CI optimization
   S Lehtola, MJT Oliveira, MAL Marques          : LibXC Library


 Your calculation uses the libint2 library for the computation of 2-el integrals
 For citations please refer to: http://libint.valeyev.net

 Your ORCA version has been built with support for libXC version: 4.2.3
 For citations please refer to: https://tddft.org/programs/libxc/

 This ORCA versions uses:
   CBLAS   interface :  Fast vector & matrix operations
   LAPACKE interface :  Fast linear algebra routines
   SCALAPACK package :  Parallel linear algebra routines


Your calculation utilizes the atom-pairwise dispersion correction
with the Becke-Johnson damping scheme (D3BJ)
Cite in your paper:
S.Grimme, S.Ehrlich, L.Goerigk, J Comput Chem, (2011), 32, 1456–1465 
S.Grimme, J.Antony, S.Ehrlich and H.Krieg, J.Chem.Phys., 132, (2010), 154104 
   

----- Orbital basis set information -----
Your calculation utilizes the basis: def2-TZVPPD
   F. Weigend and R. Ahlrichs, Phys. Chem. Chem. Phys. 7, 3297 (2005).
   D. Rappoport and F. Furche, J. Chem. Phys. 133 134105 (2010).

----- AuxC basis set information -----
Your calculation utilizes the auxiliary basis: def2-TZVPPD/C
   A. Hellweg, C. Hattig, S. Hofener and W. Klopper, Theor. Chem. Acc. 117, 587 (2007).

----- AuxJK basis set information -----
Your calculation utilizes the auxiliary basis: def2/JK
   H-Ba, Hf-Rn: F. Weigend, J. Comput. Chem. 29, 167 (2008).

cite the ECPs for Mo [Def2-ECP], I  [Def2-ECP] as follows:
Ce-Yb(ecp-28): M. Dolg, H. Stoll, H.Preuss, J. Chem. Phys., 1989, 90, 1730-1734.
Y-Cd(ecp-28), Hf-Hg(ecp-46): D. Andrae,U. Haeussermann, M. Dolg, H. Stoll, H. Preuss, Theor. Chim. Acta, 1990, 77, 123-141.
In-Sb(ecp-28), Tl-Bi(ecp-46): B. Metz, H. Stoll, M. Dolg, J. Chem. Phys., 2000, 113, 2563-2569.
Te-Xe(ecp-28), Po-Rn(ecp-46): K. A. Peterson, D. Figgen, E. Goll, H. Stoll, M. Dolg, J. Chem. Phys., 2003, 119, 11113-11123.
Rb(ecp-28), Cs(ecp-46): T. Leininger, A. Nicklass, W. Kuechle, H. Stoll, M. Dolg, A. Bergner, Chem. Phys. Lett., 1996, 255, 274-280.
Sr(ecp-28), Ba(ecp-46): M. Kaupp, P. V. Schleyer, H. Stoll and H. Preuss, J. Chem. Phys., 1991, 94, 1360-1366.
La(ecp-46): M. Dolg, H. Stoll, A. Savin, H. Preuss, Theor. Chim. Acta, 1989, 75, 173-194.
Lu(ecp-28): X. Cao, M. Dolg, J. Chem. Phys., 2001, 115, 7348-7355.

ECP parameters for Mo [Def2-ECP], I  [Def2-ECP] have been obtained from:
TURBOMOLE (7.0.2)

================================================================================
                                        WARNINGS
                       Please study these warnings very carefully!
================================================================================


WARNING: No MP2 level density has been requested!
         To caclulate MP2 level properties use
         %mp2 Density relaxed end
         or
         %mp2 Density unrelaxed end
         Otherwise for double-hybrid DFT only the energy is correct!

WARNING: The frozen-core approximation is turned on by default for 
         the MP2 part of double-hybrid DFT.

INFO   : the flag for use of LIBINT has been found!

================================================================================
                                       INPUT FILE
================================================================================
NAME = MOR35_pr36.in
|  1> #
|  2> # MOR35_pr36 ri-B2PLYP-D3BJ/Def2-TZVPPD
|  3> #
|  4> ! rijk ri-b2plyp d3bj def2-tzvppd def2/jk def2-tzvppd/c grid4 nofinalgrid
|  5> 
|  6> *xyz 0 1
|  7> Mo       0.001156    0.812745    0.000207 
|  8> C        1.172497    1.772826   -1.694485 
|  9> C        0.639726    0.579325   -2.273801 
| 10> C       -0.771247    0.649846   -2.254302 
| 11> C       -1.164711    1.879753   -1.653638 
| 12> C        0.046469    2.597671   -1.356619 
| 13> H        2.218029    2.030602   -1.618416 
| 14> H        1.217264   -0.260486   -2.625291 
| 15> H       -1.439014   -0.129218   -2.585395 
| 16> H       -2.178363    2.230425   -1.528995 
| 17> H        0.103229    3.616282   -1.010207 
| 18> C       -0.046468    2.595414    1.359819 
| 19> C       -1.170703    1.767726    1.696458 
| 20> C        0.775662    0.648005    2.254259 
| 21> C        1.166251    1.879509    1.655532 
| 22> H       -2.216820    2.023173    1.620920 
| 23> H       -1.210568   -0.267639    2.623707 
| 24> C       -0.635131    0.574168    2.273601 
| 25> H        2.179106    2.232469    1.530897 
| 26> H       -0.105362    3.614384    1.014912 
| 27> H        1.445278   -0.130208    2.583598 
| 28> I        1.897907   -1.310822   -0.012606 
| 29> I       -1.900461   -1.307301    0.011561 
| 30> *
| 31> 
| 32> %maxcore 5000
| 33> 
| 34> %pal
| 35> nprocs = 24
| 36> end
| 37> 
| 38> 
| 39>                          ****END OF INPUT****
================================================================================

                       ****************************
                       * Single Point Calculation *
                       ****************************

---------------------------------
CARTESIAN COORDINATES (ANGSTROEM)
---------------------------------
  Mo     0.001156    0.812745    0.000207
  C      1.172497    1.772826   -1.694485
  C      0.639726    0.579325   -2.273801
  C     -0.771247    0.649846   -2.254302
  C     -1.164711    1.879753   -1.653638
  C      0.046469    2.597671   -1.356619
  H      2.218029    2.030602   -1.618416
  H      1.217264   -0.260486   -2.625291
  H     -1.439014   -0.129218   -2.585395
  H     -2.178363    2.230425   -1.528995
  H      0.103229    3.616282   -1.010207
  C     -0.046468    2.595414    1.359819
  C     -1.170703    1.767726    1.696458
  C      0.775662    0.648005    2.254259
  C      1.166251    1.879509    1.655532
  H     -2.216820    2.023173    1.620920
  H     -1.210568   -0.267639    2.623707
  C     -0.635131    0.574168    2.273601
  H      2.179106    2.232469    1.530897
  H     -0.105362    3.614384    1.014912
  H      1.445278   -0.130208    2.583598
  I      1.897907   -1.310822   -0.012606
  I     -1.900461   -1.307301    0.011561

----------------------------
CARTESIAN COORDINATES (A.U.)
----------------------------
  NO LB      ZA    FRAG     MASS         X           Y           Z
   0 Mo   14.0000*   0    95.940    0.002185    1.535865    0.000391
   1 C     6.0000    0    12.011    2.215698    3.350156   -3.202113
   2 C     6.0000    0    12.011    1.208907    1.094766   -4.296861
   3 C     6.0000    0    12.011   -1.457446    1.228031   -4.260013
   4 C     6.0000    0    12.011   -2.200985    3.552218   -3.124923
   5 C     6.0000    0    12.011    0.087814    4.908887   -2.563638
   6 H     1.0000    0     1.008    4.191467    3.837282   -3.058363
   7 H     1.0000    0     1.008    2.300296   -0.492247   -4.961081
   8 H     1.0000    0     1.008   -2.719342   -0.244187   -4.885688
   9 H     1.0000    0     1.008   -4.116509    4.214892   -2.889382
  10 H     1.0000    0     1.008    0.195075    6.833783   -1.909015
  11 C     6.0000    0    12.011   -0.087812    4.904622    2.569686
  12 C     6.0000    0    12.011   -2.212308    3.340518    3.205841
  13 C     6.0000    0    12.011    1.465789    1.224552    4.259932
  14 C     6.0000    0    12.011    2.203895    3.551757    3.128502
  15 H     1.0000    0     1.008   -4.189183    3.823243    3.063095
  16 H     1.0000    0     1.008   -2.287642   -0.505764    4.958088
  17 C     6.0000    0    12.011   -1.200224    1.085020    4.296483
  18 H     1.0000    0     1.008    4.117914    4.218755    2.892976
  19 H     1.0000    0     1.008   -0.199105    6.830196    1.917906
  20 H     1.0000    0     1.008    2.731180   -0.246057    4.882293
  21 I    25.0000*   0   126.900    3.586524   -2.477095   -0.023822
  22 I    25.0000*   0   126.900   -3.591351   -2.470441    0.021847
* core charge reduced due to ECP

--------------------------------
INTERNAL COORDINATES (ANGSTROEM)
--------------------------------
 Mo     0   0   0     0.000000000000     0.00000000     0.00000000
 C      1   0   0     2.272834406574     0.00000000     0.00000000
 C      2   1   0     1.429649118944    75.96253074     0.00000000
 C      3   2   1     1.412868794040   108.95936266    62.40018753
 C      4   3   2     1.424177793971   108.95522929   359.49006337
 C      2   1   3     1.436127349773    70.31271919   113.50739396
 H      2   1   3     1.079524025653   123.19321864   235.82475285
 H      3   2   1     1.078136298093   125.64501915   245.13699600
 H      4   3   2     1.078181829301   125.32476601   182.95533992
 H      5   4   3     1.079813458953   126.04950694   177.82550056
 H      6   2   1     1.077400269475   125.26433742   119.73309751
 C      1   2   3     2.242481125780    97.30883427   194.34124349
 C     12   1   2     1.436070185224    72.57695984   155.30232802
 C     12   1   2     2.295282654442    63.52474806   234.06312397
 C     14  12   1     1.423950803036    36.92955442    97.52052655
 H     13  12   1     1.079499854999   127.29051839   242.74006449
 H     14  12   1     2.218108512301    95.41718515   280.74040613
 C     17  14  12     1.078119185180    31.31146303   358.46285336
 H     15  14  12     1.079810120276   126.05194839   175.27068656
 H     12   1   2     1.077371432137   123.98139621    34.08882420
 H     14  12   1     1.078176811913   162.53093595    95.01146702
 I      1   2   3     2.847343557153    88.18774088    66.67929041
 I      1   2   3     2.847959123675   131.41732159   346.76759073

---------------------------
INTERNAL COORDINATES (A.U.)
---------------------------
 Mo     0   0   0     0.000000000000     0.00000000     0.00000000
 C      1   0   0     4.295034576178     0.00000000     0.00000000
 C      2   1   0     2.701645302406    75.96253074     0.00000000
 C      3   2   1     2.669935083898   108.95936266    62.40018753
 C      4   3   2     2.691305996618   108.95522929   359.49006337
 C      2   1   3     2.713887384504    70.31271919   113.50739396
 H      2   1   3     2.040004763471   123.19321864   235.82475285
 H      3   2   1     2.037382338435   125.64501915   245.13699600
 H      4   3   2     2.037468379948   125.32476601   182.95533992
 H      5   4   3     2.040551713144   126.04950694   177.82550056
 H      6   2   1     2.035991445921   125.26433742   119.73309751
 C      1   2   3     4.237675188212    97.30883427   194.34124349
 C     12   1   2     2.713779359163    72.57695984   155.30232802
 C     12   1   2     4.337455616835    63.52474806   234.06312397
 C     14  12   1     2.690877045915    36.92955442    97.52052655
 H     13  12   1     2.039959087555   127.29051839   242.74006449
 H     14  12   1     4.191617623567    95.41718515   280.74040613
 C     17  14  12     2.037349999717    31.31146303   358.46285336
 H     15  14  12     2.040545403958   126.05194839   175.27068656
 H     12   1   2     2.035936951250   123.98139621    34.08882420
 H     14  12   1     2.037458898459   162.53093595    95.01146702
 I      1   2   3     5.380699532204    88.18774088    66.67929041
 I      1   2   3     5.381862784347   131.41732159   346.76759073

---------------------
BASIS SET INFORMATION
---------------------
There are 4 groups of distinct atoms

 Group   1 Type Mo  : 7s7p5d2f1g contracted to 6s4p3d2f1g pattern {211111/4111/311/11/1}
 Group   2 Type C   : 12s6p3d1f contracted to 6s3p3d1f pattern {621111/411/111/1}
 Group   3 Type H   : 5s3p1d contracted to 3s3p1d pattern {311/111/1}
 Group   4 Type I   : 12s11p9d2f contracted to 7s6p4d2f pattern {5211111/341111/6111/11}

Atom   0Mo   basis set group =>   1
Atom   1C    basis set group =>   2
Atom   2C    basis set group =>   2
Atom   3C    basis set group =>   2
Atom   4C    basis set group =>   2
Atom   5C    basis set group =>   2
Atom   6H    basis set group =>   3
Atom   7H    basis set group =>   3
Atom   8H    basis set group =>   3
Atom   9H    basis set group =>   3
Atom  10H    basis set group =>   3
Atom  11C    basis set group =>   2
Atom  12C    basis set group =>   2
Atom  13C    basis set group =>   2
Atom  14C    basis set group =>   2
Atom  15H    basis set group =>   3
Atom  16H    basis set group =>   3
Atom  17C    basis set group =>   2
Atom  18H    basis set group =>   3
Atom  19H    basis set group =>   3
Atom  20H    basis set group =>   3
Atom  21I    basis set group =>   4
Atom  22I    basis set group =>   4
---------------------------------
AUXILIARY/C BASIS SET INFORMATION
---------------------------------
There are 4 groups of distinct atoms

 Group   1 Type Mo  : 8s7p6d5f4g3h1i contracted to 8s7p6d5f4g3h1i pattern {11111111/1111111/111111/11111/1111/111/1}
 Group   2 Type C   : 9s7p6d4f1g contracted to 9s7p5d4f1g pattern {111111111/1111111/21111/1111/1}
 Group   3 Type H   : 5s4p3d1f contracted to 5s4p3d1f pattern {11111/1111/111/1}
 Group   4 Type I   : 10s9p9d7f4g3h contracted to 10s9p9d7f4g3h pattern {1111111111/111111111/111111111/1111111/1111/111}

Atom   0Mo   basis set group =>   1
Atom   1C    basis set group =>   2
Atom   2C    basis set group =>   2
Atom   3C    basis set group =>   2
Atom   4C    basis set group =>   2
Atom   5C    basis set group =>   2
Atom   6H    basis set group =>   3
Atom   7H    basis set group =>   3
Atom   8H    basis set group =>   3
Atom   9H    basis set group =>   3
Atom  10H    basis set group =>   3
Atom  11C    basis set group =>   2
Atom  12C    basis set group =>   2
Atom  13C    basis set group =>   2
Atom  14C    basis set group =>   2
Atom  15H    basis set group =>   3
Atom  16H    basis set group =>   3
Atom  17C    basis set group =>   2
Atom  18H    basis set group =>   3
Atom  19H    basis set group =>   3
Atom  20H    basis set group =>   3
Atom  21I    basis set group =>   4
Atom  22I    basis set group =>   4
----------------------------------
AUXILIARY/JK BASIS SET INFORMATION
----------------------------------
There are 4 groups of distinct atoms

 Group   1 Type Mo  : 13s12p10d9f6g3h2i contracted to 11s10p9d8f6g3h2i pattern {31111111111/3111111111/211111111/21111111/111111/111/11}
 Group   2 Type C   : 14s10p6d2f1g contracted to 10s8p5d1f1g pattern {5111111111/31111111/21111/2/1}
 Group   3 Type H   : 4s2p2d contracted to 2s2p2d pattern {31/11/11}
 Group   4 Type I   : 13s12p11d8f6g3h contracted to 11s10p10d7f5g3h pattern {31111111111/3111111111/2111111111/2111111/21111/111}

Atom   0Mo   basis set group =>   1
Atom   1C    basis set group =>   2
Atom   2C    basis set group =>   2
Atom   3C    basis set group =>   2
Atom   4C    basis set group =>   2
Atom   5C    basis set group =>   2
Atom   6H    basis set group =>   3
Atom   7H    basis set group =>   3
Atom   8H    basis set group =>   3
Atom   9H    basis set group =>   3
Atom  10H    basis set group =>   3
Atom  11C    basis set group =>   2
Atom  12C    basis set group =>   2
Atom  13C    basis set group =>   2
Atom  14C    basis set group =>   2
Atom  15H    basis set group =>   3
Atom  16H    basis set group =>   3
Atom  17C    basis set group =>   2
Atom  18H    basis set group =>   3
Atom  19H    basis set group =>   3
Atom  20H    basis set group =>   3
Atom  21I    basis set group =>   4
Atom  22I    basis set group =>   4
-------------------------
ECP PARAMETER INFORMATION
-------------------------

 Group 1, Type Mo ECP Def2-ECP (replacing 28 core electrons, lmax=3)
 Group 2, Type I  ECP Def2-ECP (replacing 28 core electrons, lmax=3)

Atom   0Mo   ECP group =>   1
Atom  21I    ECP group =>   2
Atom  22I    ECP group =>   2



           ************************************************************
           *        Program running with 24 parallel MPI-processes    *
           *              working on a common directory               *
           ************************************************************
------------------------------------------------------------------------------
                           ORCA GTO INTEGRAL CALCULATION
                           -- RI-GTO INTEGRALS CHOSEN --
------------------------------------------------------------------------------

                         BASIS SET STATISTICS AND STARTUP INFO

Gaussian basis set:
 # of primitive gaussian shells          ...  400
 # of primitive gaussian functions       ...  994
 # of contracted shells                  ...  254
 # of contracted basis functions         ...  714
 Highest angular momentum                ...    4
 Maximum contraction depth               ...    6
Auxiliary gaussian basis set:
 # of primitive gaussian shells          ...  571
 # of primitive gaussian functions       ... 1939
 # of contracted shells                  ...  451
 # of contracted aux-basis functions     ... 1621
 Highest angular momentum                ...    6
 Maximum contraction depth               ...    5
Ratio of auxiliary to basis functions    ...  2.27
Integral package used                  ... LIBINT
 One Electron integrals                  
   ECP integrals                         ... done
 Ordering auxiliary basis shells         ... done
 Integral threshhold             Thresh  ...  1.000e-10
 Primitive cut-off               TCut    ...  1.000e-11
 Pre-screening matrix                    ... done
 Shell pair data                         ... 
 Ordering of the shell pairs             ... done (   0.005 sec) 29235 of 32385 pairs
 Determination of significant pairs      ... done (   0.000 sec)
 Creation of shell pair data             ... done (   0.003 sec)
 Storage of shell pair data              ... done (   0.015 sec)
 Shell pair data done in (   0.023 sec)
 Computing two index integrals           ... done
 Cholesky decomposition of the V-matrix  ... done


Timings:
 Total evaluation time                   ...   6.454 sec (  0.108 min)
 One electron matrix time                ...   5.644 sec (  0.094 min) = 87.5%
 Schwartz matrix evaluation time         ...   0.402 sec (  0.007 min) =  6.2%
 Two index repulsion integral time       ...   0.207 sec (  0.003 min) =  3.2%
 Cholesky decomposition of V             ...   0.144 sec (  0.002 min) =  2.2%
 Three index repulsion integral time     ...   0.000 sec (  0.000 min) =  0.0%



           ************************************************************
           *        Program running with 24 parallel MPI-processes    *
           *              working on a common directory               *
           ************************************************************
-------------------------------------------------------------------------------
                                 ORCA SCF
-------------------------------------------------------------------------------

------------
SCF SETTINGS
------------
Hamiltonian:
 Density Functional     Method          .... DFT(GTOs)
 Exchange Functional    Exchange        .... B88
   X-Alpha parameter    XAlpha          ....  0.666667
   Becke's b parameter  XBeta           ....  0.004200
 Correlation Functional Correlation     .... LYP
 LDA part of GGA corr.  LDAOpt          .... VWN-3
 Gradients option       PostSCFGGA      .... off
 Hybrid DFT is turned on
   Fraction HF Exchange ScalHFX         ....  0.530000
   Scaling of DF-GGA-X  ScalDFX         ....  0.470000
   Scaling of DF-GGA-C  ScalDFC         ....  0.730000
   Scaling of DF-LDA-C  ScalLDAC        ....  0.730000
   Perturbative correction              ....  0.270000
   Density functional embedding theory  .... OFF
 RI-approximation to the Coulomb term is turned on
   Number of auxiliary basis functions  .... 1621
   RI-JK (J+K treated both via RI)      .... on


General Settings:
 Integral files         IntName         .... MOR35_pr36
 Hartree-Fock type      HFTyp           .... RHF
 Total Charge           Charge          ....    0
 Multiplicity           Mult            ....    1
 Number of Electrons    NEL             ....  134
 Basis Dimension        Dim             ....  714
 Nuclear Repulsion      ENuc            ....   1358.0084068252 Eh

Convergence Acceleration:
 DIIS                   CNVDIIS         .... on
   Start iteration      DIISMaxIt       ....    12
   Startup error        DIISStart       ....  0.200000
   # of expansion vecs  DIISMaxEq       ....     5
   Bias factor          DIISBfac        ....   1.050
   Max. coefficient     DIISMaxC        ....  10.000
 Newton-Raphson         CNVNR           .... off
 SOSCF                  CNVSOSCF        .... off
 Level Shifting         CNVShift        .... on
   Level shift para.    LevelShift      ....    0.2500
   Turn off err/grad.   ShiftErr        ....    0.0010
 Zerner damping         CNVZerner       .... off
 Static damping         CNVDamp         .... on
   Fraction old density DampFac         ....    0.7000
   Max. Damping (<1)    DampMax         ....    0.9800
   Min. Damping (>=0)   DampMin         ....    0.0000
   Turn off err/grad.   DampErr         ....    0.1000
 Fernandez-Rico         CNVRico         .... off

SCF Procedure:
 Maximum # iterations   MaxIter         ....   125
 SCF integral mode      SCFMode         .... Direct
   Integral package                     .... LIBINT
 Reset frequency        DirectResetFreq ....    20
 Integral Threshold     Thresh          ....  1.000e-10 Eh
 Primitive CutOff       TCut            ....  1.000e-11 Eh

Convergence Tolerance:
 Convergence Check Mode ConvCheckMode   .... Total+1el-Energy
 Convergence forced     ConvForced      .... 0
 Energy Change          TolE            ....  1.000e-06 Eh
 1-El. energy change                    ....  1.000e-03 Eh
 DIIS Error             TolErr          ....  1.000e-06


Diagonalization of the overlap matrix:
Smallest eigenvalue                        ... 7.558e-07
Time for diagonalization                   ...    0.098 sec
Threshold for overlap eigenvalues          ... 1.000e-08
Number of eigenvalues below threshold      ... 0
Time for construction of square roots      ...    0.069 sec
Total time needed                          ...    0.169 sec

-------------------
DFT GRID GENERATION
-------------------

General Integration Accuracy     IntAcc      ...  4.670
Radial Grid Type                 RadialGrid  ... Gauss-Chebyshev
Angular Grid (max. acc.)         AngularGrid ... Lebedev-302
Angular grid pruning method      GridPruning ... 3 (G Style)
Weight generation scheme         WeightScheme... Becke
Basis function cutoff            BFCut       ...    1.0000e-10
Integration weight cutoff        WCut        ...    1.0000e-14
Grids for H and He will be reduced by one unit

# of grid points (after initial pruning)     ... 128142 (   0.0 sec)
# of grid points (after weights+screening)   ... 113352 (   0.1 sec)
nearest neighbour list constructed           ...    0.0 sec
Grid point re-assignment to atoms done       ...    0.0 sec
Grid point division into batches done        ...    0.4 sec
Reduced shell lists constructed in    0.9 sec

Total number of grid points                  ...   113352
Total number of batches                      ...     1782
Average number of points per batch           ...       63
Average number of grid points per atom       ...     4928
Average number of shells per batch           ...   196.72 (77.45%)
Average number of basis functions per batch  ...   584.36 (81.84%)
Average number of large shells per batch     ...   162.88 (82.80%)
Average number of large basis fcns per batch ...   476.93 (81.62%)
Average number of aux-shells per batch       ...   196.72 (43.62%)
Average number of aux functions per batch    ...   584.36 (36.05%)
Maximum spatial batch extension              ...   1.94,  1.89,  2.20 au
Average spatial batch extension              ...   0.05,  0.05,  0.05 au

Time for grid setup =    1.007 sec

------------------------------
INITIAL GUESS: MODEL POTENTIAL
------------------------------
Loading Hartree-Fock densities                     ... done
  calling /sw/apps/orca/orca_4_2_0_linux_x86-64_openmpi314/orca MOR35_pr36_atom42.inp > MOR35_pr36_atom42.out in order to generate an atomic fitting density for atom 0 (Mo with ECP) on-the-fly... 
    atom 0 (Mo), assumed electronic state with S=5: 1s2 2s2 2p6 3s2 3p6 4s2 3d10 4p6 5s2 4d4           ... done
  calling /sw/apps/orca/orca_4_2_0_linux_x86-64_openmpi314/orca MOR35_pr36_atom53.inp > MOR35_pr36_atom53.out in order to generate an atomic fitting density for atom 21 (I  with ECP) on-the-fly... 
    atom 21 (I ), assumed electronic state with S=2: 1s2 2s2 2p6 3s2 3p6 4s2 3d10 4p6 5s2 4d10 5p5           ... done
Calculating cut-offs                               ... done
Setting up the integral package                    ... done
Initializing the effective Hamiltonian             ... done
Starting the Coulomb interaction                   ... done (   0.1 sec)
Reading the grid                                   ... done
Mapping shells                                     ... done
Starting the XC term evaluation                    ... done (   0.4 sec)
  promolecular density results
     # of electrons  =    217.996623892
     EX              =   -522.202174922
     EC              =     -3.632477252
     EX+EC           =   -525.834652174
Transforming the Hamiltonian                       ... done (   0.0 sec)
Diagonalizing the Hamiltonian                      ... done (   0.1 sec)
Back transforming the eigenvectors                 ... done (   0.0 sec)
Now organizing SCF variables                       ... done
                      ------------------
                      INITIAL GUESS DONE (   4.4 sec)
                      ------------------
--------------
SCF ITERATIONS
--------------
ITER       Energy         Delta-E        Max-DP      RMS-DP      [F,P]     Damp
  0   -481.3496225992   0.000000000000260.59918848  0.96642912  6.7438195 0.7000
  1   -824.3663593218-343.016736722579114.16211851  0.57179040  2.7701407 0.7000
  2   -890.5994725957 -66.23311327384989.54644477  0.44362224  0.8943037 0.7000
  3   -943.2411350534 -52.64166245772868.11122144  0.33834425  0.6272316 0.7000
  4   -975.3581949856 -32.11705993220848.61212147  0.24774276  0.4695692 0.7000
  5   -997.7333868884 -22.37519190281334.22597821  0.17752623  0.3419209 0.7000
  6  -1013.2394933651 -15.50610647672023.88067534  0.12533402  0.2567032 0.7000
  7  -1024.0336289561 -10.79413559099716.75727395  0.08833854  0.2058917 0.7000
                               ***Turning on DIIS***
  8  -1031.5572166371  -7.52358768099911.87347062  0.06249098  0.1580819 0.7000
  9  -1036.8076077059  -5.250391068781 8.46899387  0.04438192  0.1179620 0.7000
 10  -1040.4702726995  -3.66266499362519.63677835  0.10322266  0.0841126 0.0000
 11  -1049.1491963059  -8.678923606383 0.21439305  0.00123464  0.0234546 0.0000
 12  -1049.1570034761  -0.007807170210 0.05685579  0.00045097  0.0084524 0.0000
 13  -1049.1575965453  -0.000593069149 0.04605439  0.00027707  0.0066164 0.0000
 14  -1049.1579331503  -0.000336605005 0.02032790  0.00013987  0.0012556 0.0000
 15  -1049.1579664542  -0.000033303954 0.02265845  0.00013391  0.0009756 0.0000
 16  -1049.1579809630  -0.000014508731 0.01166507  0.00005523  0.0006791 0.0000
 17  -1049.1579842923  -0.000003329288 0.02337612  0.00011791  0.0004577 0.0000
 18  -1049.1579861887  -0.000001896417 0.00893811  0.00005634  0.0002502 0.0000
 19  -1049.1579867682  -0.000000579536 0.02180599  0.00011132  0.0001660 0.0000
                 **** Energy Check signals convergence ****

               *****************************************************
               *                     SUCCESS                       *
               *           SCF CONVERGED AFTER  20 CYCLES          *
               *****************************************************


----------------
TOTAL SCF ENERGY
----------------

Total Energy       :        -1049.15798707 Eh          -28549.04023 eV

Components:
Nuclear Repulsion  :         1358.00840683 Eh           36953.28742 eV
Electronic Energy  :        -2407.16639389 Eh          -65502.32765 eV
One Electron Energy:        -4378.69257160 Eh         -119150.28236 eV
Two Electron Energy:         1971.52617771 Eh           53647.95470 eV

Virial components:
Potential Energy   :        -1684.63627624 Eh          -45841.28360 eV
Kinetic Energy     :          635.47828917 Eh           17292.24337 eV
Virial Ratio       :            2.65097377


DFT components:
N(Alpha)           :       67.000268344399 electrons
N(Beta)            :       67.000268344399 electrons
N(Total)           :      134.000536688798 electrons
E(X)               :      -49.473792616586 Eh       
E(C)               :       -3.551915155397 Eh       
E(XC)              :      -53.025707771984 Eh       
DFET-embed. en.    :        0.000000000000 Eh       

---------------
SCF CONVERGENCE
---------------

  Last Energy change         ...   -2.9911e-07  Tolerance :   1.0000e-06
  Last MAX-Density change    ...    1.6580e-02  Tolerance :   1.0000e-05
  Last RMS-Density change    ...    7.4681e-05  Tolerance :   1.0000e-06
  Last DIIS Error            ...    4.8049e-05  Tolerance :   1.0000e-06

             **** THE GBW FILE WAS UPDATED (MOR35_pr36.gbw) ****
             **** DENSITY FILE WAS UPDATED (MOR35_pr36.scfp) ****
             **** ENERGY FILE WAS UPDATED (MOR35_pr36.en.tmp) ****
             **** THE GBW FILE WAS UPDATED (MOR35_pr36.gbw) ****
             **** DENSITY FILE WAS UPDATED (MOR35_pr36.scfp) ****
----------------
ORBITAL ENERGIES
----------------

  NO   OCC          E(Eh)            E(eV) 
   0   2.0000     -10.675518      -290.4956 
   1   2.0000     -10.675513      -290.4955 
   2   2.0000     -10.666924      -290.2618 
   3   2.0000     -10.666901      -290.2611 
   4   2.0000     -10.665028      -290.2102 
   5   2.0000     -10.664973      -290.2087 
   6   2.0000     -10.663059      -290.1566 
   7   2.0000     -10.663032      -290.1559 
   8   2.0000     -10.661851      -290.1237 
   9   2.0000     -10.661826      -290.1230 
  10   2.0000      -7.154580      -194.6860 
  11   2.0000      -7.154571      -194.6858 
  12   2.0000      -5.105480      -138.9272 
  13   2.0000      -5.105473      -138.9270 
  14   2.0000      -5.099168      -138.7554 
  15   2.0000      -5.099158      -138.7552 
  16   2.0000      -5.098927      -138.7489 
  17   2.0000      -5.098918      -138.7486 
  18   2.0000      -2.816053       -76.6287 
  19   2.0000      -2.007463       -54.6259 
  20   2.0000      -2.007438       -54.6252 
  21   2.0000      -2.005395       -54.5696 
  22   2.0000      -2.005382       -54.5692 
  23   2.0000      -2.005114       -54.5619 
  24   2.0000      -2.005059       -54.5604 
  25   2.0000      -1.999152       -54.3997 
  26   2.0000      -1.999137       -54.3993 
  27   2.0000      -1.999104       -54.3984 
  28   2.0000      -1.999093       -54.3981 
  29   2.0000      -1.767543       -48.0973 
  30   2.0000      -1.749347       -47.6022 
  31   2.0000      -1.733702       -47.1764 
  32   2.0000      -1.053481       -28.6667 
  33   2.0000      -1.037424       -28.2298 
  34   2.0000      -0.868423       -23.6310 
  35   2.0000      -0.860735       -23.4218 
  36   2.0000      -0.858838       -23.3702 
  37   2.0000      -0.857184       -23.3252 
  38   2.0000      -0.724692       -19.7199 
  39   2.0000      -0.715489       -19.4694 
  40   2.0000      -0.684517       -18.6266 
  41   2.0000      -0.663586       -18.0571 
  42   2.0000      -0.662468       -18.0267 
  43   2.0000      -0.661081       -17.9889 
  44   2.0000      -0.650308       -17.6958 
  45   2.0000      -0.639316       -17.3967 
  46   2.0000      -0.517018       -14.0688 
  47   2.0000      -0.514856       -14.0099 
  48   2.0000      -0.511675       -13.9234 
  49   2.0000      -0.510710       -13.8971 
  50   2.0000      -0.509150       -13.8547 
  51   2.0000      -0.489290       -13.3143 
  52   2.0000      -0.483629       -13.1602 
  53   2.0000      -0.480430       -13.0732 
  54   2.0000      -0.478148       -13.0111 
  55   2.0000      -0.459145       -12.4940 
  56   2.0000      -0.367848       -10.0096 
  57   2.0000      -0.361963        -9.8495 
  58   2.0000      -0.355096        -9.6627 
  59   2.0000      -0.335091        -9.1183 
  60   2.0000      -0.324439        -8.8284 
  61   2.0000      -0.311220        -8.4687 
  62   2.0000      -0.308957        -8.4072 
  63   2.0000      -0.259142        -7.0516 
  64   2.0000      -0.257330        -7.0023 
  65   2.0000      -0.245099        -6.6695 
  66   2.0000      -0.242986        -6.6120 
  67   0.0000      -0.023303        -0.6341 
  68   0.0000      -0.015351        -0.4177 
  69   0.0000       0.002214         0.0602 
  70   0.0000       0.015850         0.4313 
  71   0.0000       0.027084         0.7370 
  72   0.0000       0.028583         0.7778 
  73   0.0000       0.030999         0.8435 
  74   0.0000       0.036200         0.9851 
  75   0.0000       0.045439         1.2365 
  76   0.0000       0.046738         1.2718 
  77   0.0000       0.050588         1.3766 
  78   0.0000       0.055384         1.5071 
  79   0.0000       0.057807         1.5730 
  80   0.0000       0.068318         1.8590 
  81   0.0000       0.069152         1.8817 
  82   0.0000       0.069629         1.8947 
  83   0.0000       0.074197         2.0190 
  84   0.0000       0.076918         2.0931 
  85   0.0000       0.084856         2.3090 
  86   0.0000       0.089665         2.4399 
  87   0.0000       0.091696         2.4952 
  88   0.0000       0.092408         2.5145 
  89   0.0000       0.092637         2.5208 
  90   0.0000       0.096497         2.6258 
  91   0.0000       0.115375         3.1395 
  92   0.0000       0.120811         3.2874 
  93   0.0000       0.121378         3.3029 
  94   0.0000       0.130267         3.5447 
  95   0.0000       0.138671         3.7734 
  96   0.0000       0.140117         3.8128 
  97   0.0000       0.147853         4.0233 
  98   0.0000       0.148877         4.0511 
  99   0.0000       0.162961         4.4344 
 100   0.0000       0.163402         4.4464 
 101   0.0000       0.164151         4.4668 
 102   0.0000       0.171156         4.6574 
 103   0.0000       0.173733         4.7275 
 104   0.0000       0.181543         4.9400 
 105   0.0000       0.181975         4.9518 
 106   0.0000       0.186507         5.0751 
 107   0.0000       0.195108         5.3092 
 108   0.0000       0.197430         5.3723 
 109   0.0000       0.197865         5.3842 
 110   0.0000       0.200535         5.4568 
 111   0.0000       0.207804         5.6546 
 112   0.0000       0.211251         5.7484 
 113   0.0000       0.216059         5.8793 
 114   0.0000       0.218358         5.9418 
 115   0.0000       0.220717         6.0060 
 116   0.0000       0.225171         6.1272 
 117   0.0000       0.227278         6.1845 
 118   0.0000       0.230343         6.2680 
 119   0.0000       0.233182         6.3452 
 120   0.0000       0.238554         6.4914 
 121   0.0000       0.238945         6.5020 
 122   0.0000       0.257544         7.0081 
 123   0.0000       0.258034         7.0215 
 124   0.0000       0.262866         7.1529 
 125   0.0000       0.265985         7.2378 
 126   0.0000       0.269330         7.3288 
 127   0.0000       0.275236         7.4896 
 128   0.0000       0.279224         7.5981 
 129   0.0000       0.280320         7.6279 
 130   0.0000       0.288850         7.8600 
 131   0.0000       0.291138         7.9223 
 132   0.0000       0.291784         7.9399 
 133   0.0000       0.295660         8.0453 
 134   0.0000       0.300683         8.1820 
 135   0.0000       0.304570         8.2878 
 136   0.0000       0.305587         8.3154 
 137   0.0000       0.312204         8.4955 
 138   0.0000       0.316632         8.6160 
 139   0.0000       0.319572         8.6960 
 140   0.0000       0.321323         8.7437 
 141   0.0000       0.324460         8.8290 
 142   0.0000       0.328123         8.9287 
 143   0.0000       0.330036         8.9807 
 144   0.0000       0.336855         9.1663 
 145   0.0000       0.339164         9.2291 
 146   0.0000       0.342626         9.3233 
 147   0.0000       0.342906         9.3309 
 148   0.0000       0.349302         9.5050 
 149   0.0000       0.352288         9.5862 
 150   0.0000       0.358295         9.7497 
 151   0.0000       0.358553         9.7567 
 152   0.0000       0.361174         9.8280 
 153   0.0000       0.369635        10.0583 
 154   0.0000       0.373256        10.1568 
 155   0.0000       0.380075        10.3424 
 156   0.0000       0.386380        10.5139 
 157   0.0000       0.386754        10.5241 
 158   0.0000       0.389576        10.6009 
 159   0.0000       0.397769        10.8239 
 160   0.0000       0.405096        11.0232 
 161   0.0000       0.405165        11.0251 
 162   0.0000       0.408685        11.1209 
 163   0.0000       0.409725        11.1492 
 164   0.0000       0.415505        11.3065 
 165   0.0000       0.417441        11.3592 
 166   0.0000       0.418748        11.3947 
 167   0.0000       0.421143        11.4599 
 168   0.0000       0.421315        11.4646 
 169   0.0000       0.424201        11.5431 
 170   0.0000       0.430828        11.7234 
 171   0.0000       0.433633        11.7998 
 172   0.0000       0.438902        11.9431 
 173   0.0000       0.443008        12.0549 
 174   0.0000       0.444725        12.1016 
 175   0.0000       0.452072        12.3015 
 176   0.0000       0.455058        12.3828 
 177   0.0000       0.461162        12.5489 
 178   0.0000       0.462948        12.5975 
 179   0.0000       0.463998        12.6260 
 180   0.0000       0.467931        12.7330 
 181   0.0000       0.470486        12.8026 
 182   0.0000       0.476979        12.9793 
 183   0.0000       0.478585        13.0230 
 184   0.0000       0.485282        13.2052 
 185   0.0000       0.486450        13.2370 
 186   0.0000       0.489535        13.3209 
 187   0.0000       0.496370        13.5069 
 188   0.0000       0.507564        13.8115 
 189   0.0000       0.508921        13.8484 
 190   0.0000       0.519984        14.1495 
 191   0.0000       0.521485        14.1903 
 192   0.0000       0.525715        14.3054 
 193   0.0000       0.529717        14.4143 
 194   0.0000       0.533762        14.5244 
 195   0.0000       0.535222        14.5641 
 196   0.0000       0.549425        14.9506 
 197   0.0000       0.550273        14.9737 
 198   0.0000       0.561009        15.2658 
 199   0.0000       0.569710        15.5026 
 200   0.0000       0.571683        15.5563 
 201   0.0000       0.575354        15.6562 
 202   0.0000       0.575927        15.6718 
 203   0.0000       0.576128        15.6772 
 204   0.0000       0.580078        15.7847 
 205   0.0000       0.586363        15.9558 
 206   0.0000       0.590221        16.0607 
 207   0.0000       0.600095        16.3294 
 208   0.0000       0.606055        16.4916 
 209   0.0000       0.607618        16.5341 
 210   0.0000       0.616684        16.7808 
 211   0.0000       0.616957        16.7883 
 212   0.0000       0.621732        16.9182 
 213   0.0000       0.622918        16.9505 
 214   0.0000       0.626521        17.0485 
 215   0.0000       0.633575        17.2405 
 216   0.0000       0.634370        17.2621 
 217   0.0000       0.644378        17.5344 
 218   0.0000       0.646917        17.6035 
 219   0.0000       0.655851        17.8466 
 220   0.0000       0.656456        17.8631 
 221   0.0000       0.661824        18.0091 
 222   0.0000       0.665855        18.1188 
 223   0.0000       0.668882        18.2012 
 224   0.0000       0.677472        18.4350 
 225   0.0000       0.683457        18.5978 
 226   0.0000       0.684548        18.6275 
 227   0.0000       0.687673        18.7125 
 228   0.0000       0.688050        18.7228 
 229   0.0000       0.693088        18.8599 
 230   0.0000       0.696240        18.9457 
 231   0.0000       0.700348        19.0574 
 232   0.0000       0.704237        19.1633 
 233   0.0000       0.707209        19.2441 
 234   0.0000       0.711460        19.3598 
 235   0.0000       0.719656        19.5828 
 236   0.0000       0.725174        19.7330 
 237   0.0000       0.732723        19.9384 
 238   0.0000       0.738685        20.1007 
 239   0.0000       0.742446        20.2030 
 240   0.0000       0.749922        20.4064 
 241   0.0000       0.753605        20.5066 
 242   0.0000       0.757848        20.6221 
 243   0.0000       0.761099        20.7106 
 244   0.0000       0.765445        20.8288 
 245   0.0000       0.767662        20.8891 
 246   0.0000       0.772073        21.0092 
 247   0.0000       0.774009        21.0619 
 248   0.0000       0.779541        21.2124 
 249   0.0000       0.783999        21.3337 
 250   0.0000       0.787852        21.4386 
 251   0.0000       0.788972        21.4690 
 252   0.0000       0.797197        21.6928 
 253   0.0000       0.798798        21.7364 
 254   0.0000       0.804452        21.8903 
 255   0.0000       0.807503        21.9733 
 256   0.0000       0.811653        22.0862 
 257   0.0000       0.812502        22.1093 
 258   0.0000       0.821779        22.3618 
 259   0.0000       0.825428        22.4610 
 260   0.0000       0.826763        22.4974 
 261   0.0000       0.831642        22.6301 
 262   0.0000       0.834881        22.7183 
 263   0.0000       0.835901        22.7460 
 264   0.0000       0.836448        22.7609 
 265   0.0000       0.864354        23.5203 
 266   0.0000       0.882077        24.0025 
 267   0.0000       0.884745        24.0751 
 268   0.0000       0.889516        24.2050 
 269   0.0000       0.897497        24.4221 
 270   0.0000       0.909504        24.7489 
 271   0.0000       0.923134        25.1198 
 272   0.0000       0.940248        25.5855 
 273   0.0000       0.943696        25.6793 
 274   0.0000       0.947337        25.7784 
 275   0.0000       0.954980        25.9863 
 276   0.0000       0.955507        26.0007 
 277   0.0000       0.961491        26.1635 
 278   0.0000       0.968714        26.3600 
 279   0.0000       0.990990        26.9662 
 280   0.0000       0.993431        27.0326 
 281   0.0000       1.017915        27.6989 
 282   0.0000       1.021886        27.8069 
 283   0.0000       1.023076        27.8393 
 284   0.0000       1.024606        27.8809 
 285   0.0000       1.025436        27.9035 
 286   0.0000       1.043019        28.3820 
 287   0.0000       1.057743        28.7826 
 288   0.0000       1.067006        29.0347 
 289   0.0000       1.069052        29.0904 
 290   0.0000       1.071442        29.1554 
 291   0.0000       1.081539        29.4302 
 292   0.0000       1.081663        29.4336 
 293   0.0000       1.094157        29.7735 
 294   0.0000       1.100677        29.9510 
 295   0.0000       1.103627        30.0312 
 296   0.0000       1.106858        30.1191 
 297   0.0000       1.110432        30.2164 
 298   0.0000       1.114979        30.3401 
 299   0.0000       1.127638        30.6846 
 300   0.0000       1.131345        30.7855 
 301   0.0000       1.147800        31.2332 
 302   0.0000       1.150644        31.3106 
 303   0.0000       1.159204        31.5435 
 304   0.0000       1.182619        32.1807 
 305   0.0000       1.191304        32.4170 
 306   0.0000       1.197105        32.5749 
 307   0.0000       1.205202        32.7952 
 308   0.0000       1.207619        32.8610 
 309   0.0000       1.222551        33.2673 
 310   0.0000       1.223052        33.2809 
 311   0.0000       1.225690        33.3527 
 312   0.0000       1.230249        33.4768 
 313   0.0000       1.249656        34.0049 
 314   0.0000       1.258530        34.2463 
 315   0.0000       1.260744        34.3066 
 316   0.0000       1.279515        34.8174 
 317   0.0000       1.287210        35.0268 
 318   0.0000       1.297590        35.3092 
 319   0.0000       1.300974        35.4013 
 320   0.0000       1.310714        35.6663 
 321   0.0000       1.332698        36.2645 
 322   0.0000       1.339921        36.4611 
 323   0.0000       1.345441        36.6113 
 324   0.0000       1.359426        36.9919 
 325   0.0000       1.360227        37.0136 
 326   0.0000       1.365575        37.1592 
 327   0.0000       1.380932        37.5771 
 328   0.0000       1.391059        37.8526 
 329   0.0000       1.392971        37.9047 
 330   0.0000       1.398383        38.0519 
 331   0.0000       1.403449        38.1898 
 332   0.0000       1.421477        38.6803 
 333   0.0000       1.424960        38.7751 
 334   0.0000       1.426083        38.8057 
 335   0.0000       1.438489        39.1433 
 336   0.0000       1.448387        39.4126 
 337   0.0000       1.455477        39.6055 
 338   0.0000       1.460120        39.7319 
 339   0.0000       1.467965        39.9454 
 340   0.0000       1.474114        40.1127 
 341   0.0000       1.483972        40.3809 
 342   0.0000       1.494749        40.6742 
 343   0.0000       1.498261        40.7697 
 344   0.0000       1.502309        40.8799 
 345   0.0000       1.512433        41.1554 
 346   0.0000       1.523720        41.4625 
 347   0.0000       1.529009        41.6065 
 348   0.0000       1.533812        41.7372 
 349   0.0000       1.540594        41.9217 
 350   0.0000       1.547021        42.0966 
 351   0.0000       1.550315        42.1862 
 352   0.0000       1.555831        42.3363 
 353   0.0000       1.558985        42.4221 
 354   0.0000       1.562294        42.5122 
 355   0.0000       1.566468        42.6258 
 356   0.0000       1.571912        42.7739 
 357   0.0000       1.589696        43.2578 
 358   0.0000       1.591922        43.3184 
 359   0.0000       1.594501        43.3886 
 360   0.0000       1.597861        43.4800 
 361   0.0000       1.613816        43.9142 
 362   0.0000       1.637442        44.5571 
 363   0.0000       1.643188        44.7134 
 364   0.0000       1.659665        45.1618 
 365   0.0000       1.687204        45.9112 
 366   0.0000       1.689215        45.9659 
 367   0.0000       1.701956        46.3126 
 368   0.0000       1.707420        46.4613 
 369   0.0000       1.716226        46.7009 
 370   0.0000       1.728267        47.0285 
 371   0.0000       1.736918        47.2639 
 372   0.0000       1.739414        47.3319 
 373   0.0000       1.764774        48.0219 
 374   0.0000       1.774266        48.2802 
 375   0.0000       1.791184        48.7406 
 376   0.0000       1.795710        48.8637 
 377   0.0000       1.797323        48.9077 
 378   0.0000       1.805326        49.1254 
 379   0.0000       1.809181        49.2303 
 380   0.0000       1.810702        49.2717 
 381   0.0000       1.842319        50.1321 
 382   0.0000       1.844310        50.1862 
 383   0.0000       1.849753        50.3343 
 384   0.0000       1.870438        50.8972 
 385   0.0000       1.873837        50.9897 
 386   0.0000       1.885970        51.3198 
 387   0.0000       1.888054        51.3765 
 388   0.0000       1.899443        51.6865 
 389   0.0000       1.901270        51.7362 
 390   0.0000       1.904049        51.8118 
 391   0.0000       1.909336        51.9557 
 392   0.0000       1.920113        52.2489 
 393   0.0000       1.934918        52.6518 
 394   0.0000       1.938505        52.7494 
 395   0.0000       1.941331        52.8263 
 396   0.0000       1.961179        53.3664 
 397   0.0000       1.967360        53.5346 
 398   0.0000       1.978700        53.8432 
 399   0.0000       1.982677        53.9514 
 400   0.0000       1.986137        54.0455 
 401   0.0000       2.006005        54.5862 
 402   0.0000       2.012935        54.7748 
 403   0.0000       2.018026        54.9133 
 404   0.0000       2.024717        55.0954 
 405   0.0000       2.027800        55.1792 
 406   0.0000       2.064237        56.1708 
 407   0.0000       2.068045        56.2744 
 408   0.0000       2.073031        56.4101 
 409   0.0000       2.080507        56.6135 
 410   0.0000       2.092944        56.9519 
 411   0.0000       2.105977        57.3066 
 412   0.0000       2.115064        57.5538 
 413   0.0000       2.138851        58.2011 
 414   0.0000       2.148411        58.4612 
 415   0.0000       2.167799        58.9888 
 416   0.0000       2.187206        59.5169 
 417   0.0000       2.199122        59.8411 
 418   0.0000       2.218776        60.3760 
 419   0.0000       2.227873        60.6235 
 420   0.0000       2.243415        61.0464 
 421   0.0000       2.266841        61.6839 
 422   0.0000       2.269976        61.7692 
 423   0.0000       2.271346        61.8065 
 424   0.0000       2.286759        62.2259 
 425   0.0000       2.304824        62.7174 
 426   0.0000       2.363254        64.3074 
 427   0.0000       2.399758        65.3007 
 428   0.0000       2.406138        65.4744 
 429   0.0000       2.406505        65.4843 
 430   0.0000       2.422131        65.9095 
 431   0.0000       2.451466        66.7078 
 432   0.0000       2.458847        66.9086 
 433   0.0000       2.459134        66.9164 
 434   0.0000       2.508275        68.2536 
 435   0.0000       2.521677        68.6183 
 436   0.0000       2.552245        69.4501 
 437   0.0000       2.569112        69.9091 
 438   0.0000       2.614096        71.1332 
 439   0.0000       2.617220        71.2182 
 440   0.0000       2.630914        71.5908 
 441   0.0000       2.641738        71.8854 
 442   0.0000       2.649065        72.0847 
 443   0.0000       2.653009        72.1921 
 444   0.0000       2.662743        72.4569 
 445   0.0000       2.669422        72.6387 
 446   0.0000       2.701135        73.5016 
 447   0.0000       2.714272        73.8591 
 448   0.0000       2.729508        74.2737 
 449   0.0000       2.731537        74.3289 
 450   0.0000       2.741889        74.6106 
 451   0.0000       2.746704        74.7416 
 452   0.0000       2.779534        75.6350 
 453   0.0000       2.817761        76.6752 
 454   0.0000       2.818683        76.7003 
 455   0.0000       2.822984        76.8173 
 456   0.0000       2.841075        77.3096 
 457   0.0000       2.846926        77.4688 
 458   0.0000       2.872646        78.1687 
 459   0.0000       2.892365        78.7053 
 460   0.0000       2.898574        78.8742 
 461   0.0000       2.922038        79.5127 
 462   0.0000       2.934926        79.8634 
 463   0.0000       2.941021        80.0293 
 464   0.0000       2.955466        80.4223 
 465   0.0000       2.964527        80.6689 
 466   0.0000       2.967152        80.7403 
 467   0.0000       2.972864        80.8957 
 468   0.0000       2.979052        81.0641 
 469   0.0000       2.981481        81.1302 
 470   0.0000       2.993547        81.4586 
 471   0.0000       3.003595        81.7320 
 472   0.0000       3.005028        81.7710 
 473   0.0000       3.010444        81.9183 
 474   0.0000       3.014803        82.0370 
 475   0.0000       3.033438        82.5440 
 476   0.0000       3.035865        82.6101 
 477   0.0000       3.045278        82.8662 
 478   0.0000       3.057686        83.2039 
 479   0.0000       3.100062        84.3570 
 480   0.0000       3.100388        84.3659 
 481   0.0000       3.116232        84.7970 
 482   0.0000       3.120509        84.9134 
 483   0.0000       3.155270        85.8593 
 484   0.0000       3.159286        85.9686 
 485   0.0000       3.170778        86.2813 
 486   0.0000       3.209663        87.3394 
 487   0.0000       3.217670        87.5573 
 488   0.0000       3.221051        87.6492 
 489   0.0000       3.237372        88.0934 
 490   0.0000       3.255364        88.5829 
 491   0.0000       3.257086        88.6298 
 492   0.0000       3.273368        89.0729 
 493   0.0000       3.281080        89.2827 
 494   0.0000       3.286878        89.4405 
 495   0.0000       3.294783        89.6556 
 496   0.0000       3.323435        90.4353 
 497   0.0000       3.323972        90.4499 
 498   0.0000       3.332480        90.6814 
 499   0.0000       3.343587        90.9836 
 500   0.0000       3.347347        91.0860 
 501   0.0000       3.361347        91.4669 
 502   0.0000       3.361707        91.4767 
 503   0.0000       3.379743        91.9675 
 504   0.0000       3.394413        92.3667 
 505   0.0000       3.398326        92.4732 
 506   0.0000       3.405763        92.6755 
 507   0.0000       3.411481        92.8311 
 508   0.0000       3.417836        93.0041 
 509   0.0000       3.420685        93.0816 
 510   0.0000       3.424082        93.1740 
 511   0.0000       3.424442        93.1838 
 512   0.0000       3.428782        93.3019 
 513   0.0000       3.439458        93.5924 
 514   0.0000       3.447153        93.8018 
 515   0.0000       3.452734        93.9537 
 516   0.0000       3.454138        93.9919 
 517   0.0000       3.456938        94.0681 
 518   0.0000       3.460102        94.1542 
 519   0.0000       3.479380        94.6787 
 520   0.0000       3.485818        94.8539 
 521   0.0000       3.499100        95.2153 
 522   0.0000       3.504809        95.3707 
 523   0.0000       3.524584        95.9088 
 524   0.0000       3.532363        96.1205 
 525   0.0000       3.534433        96.1768 
 526   0.0000       3.544994        96.4642 
 527   0.0000       3.551145        96.6316 
 528   0.0000       3.559667        96.8635 
 529   0.0000       3.562571        96.9425 
 530   0.0000       3.590863        97.7123 
 531   0.0000       3.596745        97.8724 
 532   0.0000       3.610795        98.2547 
 533   0.0000       3.612841        98.3104 
 534   0.0000       3.615134        98.3728 
 535   0.0000       3.618811        98.4728 
 536   0.0000       3.623087        98.5892 
 537   0.0000       3.633348        98.8684 
 538   0.0000       3.634625        98.9032 
 539   0.0000       3.641238        99.0831 
 540   0.0000       3.649613        99.3110 
 541   0.0000       3.651290        99.3566 
 542   0.0000       3.666931        99.7823 
 543   0.0000       3.677623       100.0732 
 544   0.0000       3.680526       100.1522 
 545   0.0000       3.687868       100.3520 
 546   0.0000       3.696586       100.5892 
 547   0.0000       3.702577       100.7522 
 548   0.0000       3.718204       101.1775 
 549   0.0000       3.725556       101.3775 
 550   0.0000       3.732655       101.5707 
 551   0.0000       3.740613       101.7872 
 552   0.0000       3.745126       101.9101 
 553   0.0000       3.751263       102.0770 
 554   0.0000       3.761691       102.3608 
 555   0.0000       3.764543       102.4384 
 556   0.0000       3.775267       102.7302 
 557   0.0000       3.779431       102.8435 
 558   0.0000       3.781730       102.9061 
 559   0.0000       3.809864       103.6717 
 560   0.0000       3.815434       103.8232 
 561   0.0000       3.835741       104.3758 
 562   0.0000       3.842748       104.5665 
 563   0.0000       3.875372       105.4542 
 564   0.0000       3.878144       105.5297 
 565   0.0000       3.885941       105.7418 
 566   0.0000       3.889726       105.8448 
 567   0.0000       3.930467       106.9534 
 568   0.0000       3.936814       107.1261 
 569   0.0000       3.951613       107.5289 
 570   0.0000       3.967547       107.9624 
 571   0.0000       3.975149       108.1693 
 572   0.0000       3.986930       108.4899 
 573   0.0000       3.992656       108.6457 
 574   0.0000       4.002335       108.9091 
 575   0.0000       4.009954       109.1164 
 576   0.0000       4.022830       109.4668 
 577   0.0000       4.028729       109.6273 
 578   0.0000       4.047315       110.1330 
 579   0.0000       4.055240       110.3487 
 580   0.0000       4.065076       110.6164 
 581   0.0000       4.073518       110.8461 
 582   0.0000       4.079393       111.0059 
 583   0.0000       4.085196       111.1638 
 584   0.0000       4.110493       111.8522 
 585   0.0000       4.116229       112.0083 
 586   0.0000       4.130063       112.3847 
 587   0.0000       4.151029       112.9552 
 588   0.0000       4.158390       113.1555 
 589   0.0000       4.169776       113.4654 
 590   0.0000       4.175712       113.6269 
 591   0.0000       4.222878       114.9104 
 592   0.0000       4.226038       114.9963 
 593   0.0000       4.239946       115.3748 
 594   0.0000       4.284678       116.5920 
 595   0.0000       4.293057       116.8200 
 596   0.0000       4.295736       116.8929 
 597   0.0000       4.310701       117.3001 
 598   0.0000       4.313148       117.3667 
 599   0.0000       4.329796       117.8197 
 600   0.0000       4.336498       118.0021 
 601   0.0000       4.343514       118.1930 
 602   0.0000       4.345918       118.2584 
 603   0.0000       4.355745       118.5258 
 604   0.0000       4.358664       118.6053 
 605   0.0000       4.358781       118.6085 
 606   0.0000       4.367268       118.8394 
 607   0.0000       4.386981       119.3758 
 608   0.0000       4.388530       119.4180 
 609   0.0000       4.408653       119.9656 
 610   0.0000       4.428138       120.4957 
 611   0.0000       4.428751       120.5124 
 612   0.0000       4.434304       120.6636 
 613   0.0000       4.436452       120.7220 
 614   0.0000       4.437861       120.7603 
 615   0.0000       4.446704       121.0010 
 616   0.0000       4.464827       121.4941 
 617   0.0000       4.497717       122.3891 
 618   0.0000       4.508138       122.6727 
 619   0.0000       4.509595       122.7123 
 620   0.0000       4.536124       123.4342 
 621   0.0000       4.546802       123.7248 
 622   0.0000       4.553011       123.8937 
 623   0.0000       4.577331       124.5555 
 624   0.0000       4.582076       124.6846 
 625   0.0000       4.608494       125.4035 
 626   0.0000       4.613886       125.5502 
 627   0.0000       4.613965       125.5524 
 628   0.0000       4.638915       126.2313 
 629   0.0000       4.675740       127.2334 
 630   0.0000       4.682811       127.4258 
 631   0.0000       4.684961       127.4843 
 632   0.0000       4.691503       127.6623 
 633   0.0000       4.747075       129.1745 
 634   0.0000       4.757003       129.4446 
 635   0.0000       4.801164       130.6463 
 636   0.0000       4.837778       131.6426 
 637   0.0000       4.848197       131.9261 
 638   0.0000       4.864040       132.3573 
 639   0.0000       4.927555       134.0856 
 640   0.0000       4.934367       134.2709 
 641   0.0000       4.951616       134.7403 
 642   0.0000       4.966059       135.1333 
 643   0.0000       4.967273       135.1664 
 644   0.0000       4.984475       135.6345 
 645   0.0000       5.010722       136.3487 
 646   0.0000       5.027863       136.8151 
 647   0.0000       5.041332       137.1816 
 648   0.0000       5.067005       137.8802 
 649   0.0000       5.078412       138.1906 
 650   0.0000       5.086627       138.4141 
 651   0.0000       5.091231       138.5395 
 652   0.0000       5.129526       139.5815 
 653   0.0000       5.194614       141.3526 
 654   0.0000       5.206991       141.6894 
 655   0.0000       5.220755       142.0640 
 656   0.0000       5.223470       142.1378 
 657   0.0000       5.237899       142.5305 
 658   0.0000       5.369131       146.1015 
 659   0.0000       5.373773       146.2278 
 660   0.0000       5.385740       146.5534 
 661   0.0000       5.387674       146.6061 
 662   0.0000       5.409326       147.1952 
 663   0.0000       5.411777       147.2620 
 664   0.0000       5.418902       147.4558 
 665   0.0000       5.420910       147.5105 
 666   0.0000       5.425556       147.6369 
 667   0.0000       5.465226       148.7164 
 668   0.0000       5.474230       148.9614 
 669   0.0000       5.480791       149.1399 
 670   0.0000       5.499708       149.6547 
 671   0.0000       5.533818       150.5829 
 672   0.0000       5.534979       150.6144 
 673   0.0000       5.562145       151.3537 
 674   0.0000       5.580966       151.8658 
 675   0.0000       5.583138       151.9249 
 676   0.0000       5.627628       153.1356 
 677   0.0000       5.712884       155.4555 
 678   0.0000       5.883033       160.0855 
 679   0.0000       5.904521       160.6702 
 680   0.0000       5.905862       160.7067 
 681   0.0000       5.935539       161.5142 
 682   0.0000       6.072352       165.2371 
 683   0.0000       6.086503       165.6222 
 684   0.0000       6.097844       165.9308 
 685   0.0000       6.104628       166.1154 
 686   0.0000       6.123655       166.6331 
 687   0.0000       6.149416       167.3341 
 688   0.0000       6.178171       168.1166 
 689   0.0000       6.186882       168.3536 
 690   0.0000       6.680128       181.7755 
 691   0.0000       6.688660       182.0077 
 692   0.0000      23.587029       641.8357 
 693   0.0000      23.719564       645.4422 
 694   0.0000      23.818902       648.1453 
 695   0.0000      23.839522       648.7064 
 696   0.0000      23.841401       648.7575 
 697   0.0000      23.911422       650.6629 
 698   0.0000      24.205969       658.6779 
 699   0.0000      24.225325       659.2046 
 700   0.0000      24.246582       659.7830 
 701   0.0000      24.252945       659.9562 
 702   0.0000      25.617672       697.0923 
 703   0.0000      35.026316       953.1145 
 704   0.0000      35.028903       953.1849 
 705   0.0000      35.122937       955.7437 
 706   0.0000      35.174728       957.1530 
 707   0.0000      35.292030       960.3450 
 708   0.0000      35.303096       960.6461 
 709   0.0000      43.479413      1183.1350 
 710   0.0000      43.485428      1183.2986 
 711   0.0000      84.724609      2305.4738 
 712   0.0000     118.128783      3214.4476 
 713   0.0000     118.130554      3214.4958 

                    ********************************
                    * MULLIKEN POPULATION ANALYSIS *
                    ********************************

-----------------------
MULLIKEN ATOMIC CHARGES
-----------------------
   0 Mo:   -0.739373
   1 C :    0.284868
   2 C :   -0.264049
   3 C :   -0.307415
   4 C :    0.351434
   5 C :    0.007421
   6 H :   -0.033271
   7 H :    0.221634
   8 H :    0.242792
   9 H :    0.018796
  10 H :    0.224672
  11 C :    0.007555
  12 C :    0.288120
  13 C :   -0.307513
  14 C :    0.351864
  15 H :   -0.034280
  16 H :    0.219662
  17 C :   -0.264279
  18 H :    0.018953
  19 H :    0.224754
  20 H :    0.242344
  21 I :   -0.377446
  22 I :   -0.377244
Sum of atomic charges:    0.0000000

--------------------------------
MULLIKEN REDUCED ORBITAL CHARGES
--------------------------------
  0 Mos       :     2.409563  s :     2.409563
      pz      :     2.749360  p :     7.452511
      px      :     2.267579
      py      :     2.435572
      dz2     :     0.802856  d :     4.765900
      dxz     :     0.780852
      dyz     :     0.712804
      dx2y2   :     1.635993
      dxy     :     0.833394
      f0      :     0.022045  f :     0.105327
      f+1     :     0.022981
      f-1     :     0.014104
      f+2     :     0.010894
      f-2     :     0.016473
      f+3     :     0.009948
      f-3     :     0.008883
      g0      :     0.001274  g :     0.006072
      g+1     :     0.001051
      g-1     :     0.000580
      g+2     :     0.000800
      g-2     :     0.000853
      g+3     :     0.000643
      g-3     :     0.000243
      g+4     :     0.000344
      g-4     :     0.000285
  1 C s       :     3.084945  s :     3.084945
      pz      :     0.957942  p :     2.692639
      px      :     0.902888
      py      :     0.831809
      dz2     :     0.000194  d :    -0.070738
      dxz     :    -0.056300
      dyz     :     0.022378
      dx2y2   :    -0.030414
      dxy     :    -0.006595
      f0      :     0.000635  f :     0.008286
      f+1     :     0.001245
      f-1     :     0.000994
      f+2     :     0.000942
      f-2     :     0.001149
      f+3     :     0.001693
      f-3     :     0.001629
  2 C s       :     3.480424  s :     3.480424
      pz      :     0.936945  p :     2.708504
      px      :     0.896478
      py      :     0.875081
      dz2     :     0.010879  d :     0.066865
      dxz     :     0.031145
      dyz     :    -0.019991
      dx2y2   :     0.012522
      dxy     :     0.032310
      f0      :     0.000802  f :     0.008257
      f+1     :     0.000701
      f-1     :     0.001210
      f+2     :     0.001343
      f-2     :     0.000743
      f+3     :     0.001323
      f-3     :     0.002135
  3 C s       :     3.532724  s :     3.532724
      pz      :     0.906471  p :     2.706028
      px      :     0.902970
      py      :     0.896587
      dz2     :     0.013992  d :     0.060375
      dxz     :     0.012917
      dyz     :     0.005561
      dx2y2   :    -0.002570
      dxy     :     0.030475
      f0      :     0.000840  f :     0.008288
      f+1     :     0.000579
      f-1     :     0.001310
      f+2     :     0.001361
      f-2     :     0.000747
      f+3     :     0.001385
      f-3     :     0.002065
  4 C s       :     3.023891  s :     3.023891
      pz      :     0.956354  p :     2.685801
      px      :     0.923033
      py      :     0.806414
      dz2     :     0.002000  d :    -0.069362
      dxz     :    -0.023119
      dyz     :     0.031535
      dx2y2   :    -0.068498
      dxy     :    -0.011282
      f0      :     0.000637  f :     0.008236
      f+1     :     0.001145
      f-1     :     0.001027
      f+2     :     0.001056
      f-2     :     0.001073
      f+3     :     0.001735
      f-3     :     0.001563
  5 C s       :     3.021195  s :     3.021195
      pz      :     0.903099  p :     2.887894
      px      :     0.923720
      py      :     1.061075
      dz2     :     0.062229  d :     0.074887
      dxz     :     0.061971
      dyz     :     0.014598
      dx2y2   :    -0.017120
      dxy     :    -0.046790
      f0      :     0.001162  f :     0.008603
      f+1     :     0.000639
      f-1     :     0.000870
      f+2     :     0.000821
      f-2     :     0.001690
      f+3     :     0.002030
      f-3     :     0.001393
  6 H s       :     0.955035  s :     0.955035
      pz      :     0.033395  p :     0.076168
      px      :     0.023589
      py      :     0.019184
      dz2     :     0.000118  d :     0.002067
      dxz     :     0.000743
      dyz     :     0.000077
      dx2y2   :     0.000356
      dxy     :     0.000773
  7 H s       :     0.735704  s :     0.735704
      pz      :     0.018459  p :     0.040630
      px      :     0.003341
      py      :     0.018829
      dz2     :     0.000273  d :     0.002032
      dxz     :     0.000291
      dyz     :     0.000447
      dx2y2   :     0.000675
      dxy     :     0.000345
  8 H s       :     0.722655  s :     0.722655
      pz      :     0.013681  p :     0.032536
      px      :     0.002478
      py      :     0.016377
      dz2     :     0.000258  d :     0.002017
      dxz     :     0.000328
      dyz     :     0.000399
      dx2y2   :     0.000746
      dxy     :     0.000286
  9 H s       :     0.918324  s :     0.918324
      pz      :     0.028848  p :     0.060825
      px      :     0.020666
      py      :     0.011311
      dz2     :     0.000137  d :     0.002056
      dxz     :     0.000664
      dyz     :     0.000123
      dx2y2   :     0.000440
      dxy     :     0.000691
 10 H s       :     0.763244  s :     0.763244
      pz      :    -0.016365  p :     0.010018
      px      :     0.008192
      py      :     0.018191
      dz2     :     0.000288  d :     0.002066
      dxz     :     0.000112
      dyz     :     0.000535
      dx2y2   :     0.000360
      dxy     :     0.000770
 11 C s       :     3.022406  s :     3.022406
      pz      :     0.903766  p :     2.886947
      px      :     0.922681
      py      :     1.060501
      dz2     :     0.061916  d :     0.074487
      dxz     :     0.061516
      dyz     :     0.014505
      dx2y2   :    -0.017187
      dxy     :    -0.046263
      f0      :     0.001163  f :     0.008604
      f+1     :     0.000636
      f-1     :     0.000871
      f+2     :     0.000818
      f-2     :     0.001691
      f+3     :     0.002030
      f-3     :     0.001396
 12 C s       :     3.082629  s :     3.082629
      pz      :     0.956412  p :     2.690986
      px      :     0.902765
      py      :     0.831809
      dz2     :     0.000186  d :    -0.070024
      dxz     :    -0.055779
      dyz     :     0.021938
      dx2y2   :    -0.029241
      dxy     :    -0.007129
      f0      :     0.000638  f :     0.008288
      f+1     :     0.001245
      f-1     :     0.000992
      f+2     :     0.000937
      f-2     :     0.001151
      f+3     :     0.001694
      f-3     :     0.001631
 13 C s       :     3.533020  s :     3.533020
      pz      :     0.905335  p :     2.705465
      px      :     0.902824
      py      :     0.897306
      dz2     :     0.014071  d :     0.060739
      dxz     :     0.012685
      dyz     :     0.006976
      dx2y2   :    -0.003055
      dxy     :     0.030061
      f0      :     0.000840  f :     0.008289
      f+1     :     0.000578
      f-1     :     0.001312
      f+2     :     0.001359
      f-2     :     0.000745
      f+3     :     0.001390
      f-3     :     0.002064
 14 C s       :     3.024314  s :     3.024314
      pz      :     0.956218  p :     2.685205
      px      :     0.922382
      py      :     0.806604
      dz2     :     0.002011  d :    -0.069618
      dxz     :    -0.023161
      dyz     :     0.031410
      dx2y2   :    -0.068980
      dxy     :    -0.010898
      f0      :     0.000639  f :     0.008235
      f+1     :     0.001142
      f-1     :     0.001025
      f+2     :     0.001058
      f-2     :     0.001070
      f+3     :     0.001738
      f-3     :     0.001564
 15 H s       :     0.955737  s :     0.955737
      pz      :     0.033451  p :     0.076475
      px      :     0.023682
      py      :     0.019342
      dz2     :     0.000118  d :     0.002068
      dxz     :     0.000745
      dyz     :     0.000076
      dx2y2   :     0.000355
      dxy     :     0.000774
 16 H s       :     0.737129  s :     0.737129
      pz      :     0.018834  p :     0.041176
      px      :     0.003354
      py      :     0.018988
      dz2     :     0.000272  d :     0.002033
      dxz     :     0.000290
      dyz     :     0.000449
      dx2y2   :     0.000674
      dxy     :     0.000348
 17 C s       :     3.483416  s :     3.483416
      pz      :     0.937413  p :     2.706385
      px      :     0.894725
      py      :     0.874248
      dz2     :     0.010671  d :     0.066222
      dxz     :     0.031750
      dyz     :    -0.020794
      dx2y2   :     0.012652
      dxy     :     0.031942
      f0      :     0.000801  f :     0.008256
      f+1     :     0.000703
      f-1     :     0.001208
      f+2     :     0.001340
      f-2     :     0.000741
      f+3     :     0.001326
      f-3     :     0.002136
 18 H s       :     0.918444  s :     0.918444
      pz      :     0.028809  p :     0.060548
      px      :     0.020536
      py      :     0.011203
      dz2     :     0.000137  d :     0.002055
      dxz     :     0.000662
      dyz     :     0.000124
      dx2y2   :     0.000442
      dxy     :     0.000689
 19 H s       :     0.763338  s :     0.763338
      pz      :    -0.016339  p :     0.009842
      px      :     0.008065
      py      :     0.018116
      dz2     :     0.000287  d :     0.002066
      dxz     :     0.000112
      dyz     :     0.000537
      dx2y2   :     0.000360
      dxy     :     0.000771
 20 H s       :     0.723039  s :     0.723039
      pz      :     0.013642  p :     0.032600
      px      :     0.002704
      py      :     0.016254
      dz2     :     0.000257  d :     0.002017
      dxz     :     0.000329
      dyz     :     0.000399
      dx2y2   :     0.000747
      dxy     :     0.000285
 21 I s       :     4.009425  s :     4.009425
      pz      :     3.930719  p :    11.327898
      px      :     3.707556
      py      :     3.689624
      dz2     :     2.006088  d :    10.035316
      dxz     :     2.004920
      dyz     :     2.004686
      dx2y2   :     2.010314
      dxy     :     2.009307
      f0      :     0.000257  f :     0.004807
      f+1     :     0.000440
      f-1     :     0.000661
      f+2     :     0.000145
      f-2     :     0.000620
      f+3     :     0.001307
      f-3     :     0.001377
 22 I s       :     4.009386  s :     4.009386
      pz      :     3.930874  p :    11.327753
      px      :     3.705892
      py      :     3.690986
      dz2     :     2.006124  d :    10.035303
      dxz     :     2.004940
      dyz     :     2.004653
      dx2y2   :     2.010288
      dxy     :     2.009298
      f0      :     0.000257  f :     0.004803
      f+1     :     0.000442
      f-1     :     0.000658
      f+2     :     0.000144
      f-2     :     0.000622
      f+3     :     0.001303
      f-3     :     0.001377


                     *******************************
                     * LOEWDIN POPULATION ANALYSIS *
                     *******************************

----------------------
LOEWDIN ATOMIC CHARGES
----------------------
   0 Mo:    0.723634
   1 C :   -0.082251
   2 C :   -0.142355
   3 C :   -0.136454
   4 C :   -0.068125
   5 C :   -0.078218
   6 H :    0.007741
   7 H :   -0.045540
   8 H :   -0.046960
   9 H :    0.010594
  10 H :    0.001221
  11 C :   -0.078185
  12 C :   -0.082859
  13 C :   -0.136439
  14 C :   -0.067659
  15 H :    0.007617
  16 H :   -0.045811
  17 C :   -0.142937
  18 H :    0.010637
  19 H :    0.001197
  20 H :   -0.047108
  21 I :    0.218845
  22 I :    0.219413

-------------------------------
LOEWDIN REDUCED ORBITAL CHARGES
-------------------------------
  0 Mos       :     1.825190  s :     1.825190
      pz      :     2.110820  p :     6.514543
      px      :     2.185206
      py      :     2.218517
      dz2     :     0.837130  d :     4.687301
      dxz     :     0.718619
      dyz     :     0.746728
      dx2y2   :     1.542577
      dxy     :     0.842248
      f0      :     0.041699  f :     0.231713
      f+1     :     0.052060
      f-1     :     0.035006
      f+2     :     0.024439
      f-2     :     0.033209
      f+3     :     0.026523
      f-3     :     0.018777
      g0      :     0.003558  g :     0.017619
      g+1     :     0.002713
      g-1     :     0.001688
      g+2     :     0.002261
      g-2     :     0.002902
      g+3     :     0.001858
      g-3     :     0.000715
      g+4     :     0.001017
      g-4     :     0.000907
  1 C s       :     2.636487  s :     2.636487
      pz      :     0.789459  p :     2.605095
      px      :     0.930022
      py      :     0.885614
      dz2     :     0.120826  d :     0.792653
      dxz     :     0.107476
      dyz     :     0.151717
      dx2y2   :     0.219563
      dxy     :     0.193071
      f0      :     0.003240  f :     0.048016
      f+1     :     0.006228
      f-1     :     0.004200
      f+2     :     0.005446
      f-2     :     0.007984
      f+3     :     0.010486
      f-3     :     0.010431
  2 C s       :     2.647358  s :     2.647358
      pz      :     0.734159  p :     2.580679
      px      :     0.933413
      py      :     0.913108
      dz2     :     0.114013  d :     0.866791
      dxz     :     0.176121
[...]
      dxz     :     0.008208
      dyz     :     0.000629
      dx2y2   :     0.008754
      dxy     :     0.008560
  7 H s       :     0.696529  s :     0.696529
      pz      :     0.109258  p :     0.319860
      px      :     0.089727
      py      :     0.120874
      dz2     :     0.003856  d :     0.029151
      dxz     :     0.003462
      dyz     :     0.006063
      dx2y2   :     0.007679
      dxy     :     0.008091
  8 H s       :     0.696895  s :     0.696895
      pz      :     0.108802  p :     0.321020
      px      :     0.094476
      py      :     0.117742
      dz2     :     0.003745  d :     0.029045
      dxz     :     0.004066
      dyz     :     0.005219
      dx2y2   :     0.007728
      dxy     :     0.008287
  9 H s       :     0.701410  s :     0.701410
      pz      :     0.075929  p :     0.258935
      px      :     0.114504
      py      :     0.068502
      dz2     :     0.003007  d :     0.029061
      dxz     :     0.007776
      dyz     :     0.001139
      dx2y2   :     0.008550
      dxy     :     0.008589
 10 H s       :     0.692875  s :     0.692875
      pz      :     0.099914  p :     0.276271
      px      :     0.060523
      py      :     0.115835
      dz2     :     0.003786  d :     0.029633
      dxz     :     0.000977
      dyz     :     0.008805
      dx2y2   :     0.008282
      dxy     :     0.007782
 11 C s       :     2.628960  s :     2.628960
      pz      :     0.765541  p :     2.564582
      px      :     0.910571
      py      :     0.888470
      dz2     :     0.119714  d :     0.834593
      dxz     :     0.165165
      dyz     :     0.119860
      dx2y2   :     0.249901
      dxy     :     0.179954
      f0      :     0.004500  f :     0.050050
      f+1     :     0.004603
      f-1     :     0.004034
      f+2     :     0.003698
      f-2     :     0.010959
      f+3     :     0.014030
      f-3     :     0.008226
 12 C s       :     2.636497  s :     2.636497
      pz      :     0.789264  p :     2.605078
      px      :     0.930107
      py      :     0.885707
      dz2     :     0.120792  d :     0.793257
      dxz     :     0.107399
      dyz     :     0.151988
      dx2y2   :     0.220001
      dxy     :     0.193077
      f0      :     0.003246  f :     0.048027
      f+1     :     0.006221
      f-1     :     0.004198
      f+2     :     0.005415
      f-2     :     0.008004
      f+3     :     0.010478
      f-3     :     0.010464
 13 C s       :     2.647770  s :     2.647770
      pz      :     0.727483  p :     2.574718
      px      :     0.937229
      py      :     0.910006
      dz2     :     0.114841  d :     0.866092
      dxz     :     0.170256
      dyz     :     0.146248
      dx2y2   :     0.184953
      dxy     :     0.249793
      f0      :     0.003893  f :     0.047859
      f+1     :     0.003489
      f-1     :     0.005541
      f+2     :     0.008884
      f-2     :     0.003653
      f+3     :     0.008851
      f-3     :     0.013549
 14 C s       :     2.635767  s :     2.635767
      pz      :     0.790404  p :     2.603085
      px      :     0.925961
      py      :     0.886720
      dz2     :     0.116426  d :     0.781069
      dxz     :     0.110160
      dyz     :     0.145365
      dx2y2   :     0.205213
      dxy     :     0.203906
      f0      :     0.003294  f :     0.047738
      f+1     :     0.005751
      f-1     :     0.004271
      f+2     :     0.006332
      f-2     :     0.007241
      f+3     :     0.011525
      f-3     :     0.009325
 15 H s       :     0.701029  s :     0.701029
      pz      :     0.075952  p :     0.262232
      px      :     0.118795
      py      :     0.067484
      dz2     :     0.002967  d :     0.029122
      dxz     :     0.008220
      dyz     :     0.000619
      dx2y2   :     0.008759
      dxy     :     0.008558
 16 H s       :     0.696506  s :     0.696506
      pz      :     0.109414  p :     0.320145
      px      :     0.089767
      py      :     0.120964
      dz2     :     0.003854  d :     0.029159
      dxz     :     0.003440
      dyz     :     0.006078
      dx2y2   :     0.007690
      dxy     :     0.008097
 17 C s       :     2.647358  s :     2.647358
      pz      :     0.734096  p :     2.580849
      px      :     0.933336
      py      :     0.913417
      dz2     :     0.114048  d :     0.867210
      dxz     :     0.176308
      dyz     :     0.140414
      dx2y2   :     0.190333
      dxy     :     0.246107
      f0      :     0.003737  f :     0.047521
      f+1     :     0.004083
      f-1     :     0.005094
      f+2     :     0.008418
      f-2     :     0.003823
      f+3     :     0.008127
      f-3     :     0.014240
 18 H s       :     0.701438  s :     0.701438
      pz      :     0.075964  p :     0.258866
      px      :     0.114395
      py      :     0.068507
      dz2     :     0.003007  d :     0.029060
      dxz     :     0.007764
      dyz     :     0.001151
      dx2y2   :     0.008547
      dxy     :     0.008591
 19 H s       :     0.692874  s :     0.692874
      pz      :     0.099872  p :     0.276293
      px      :     0.060540
      py      :     0.115882
      dz2     :     0.003780  d :     0.029636
      dxz     :     0.000971
      dyz     :     0.008802
      dx2y2   :     0.008290
      dxy     :     0.007792
 20 H s       :     0.696905  s :     0.696905
      pz      :     0.108843  p :     0.321159
      px      :     0.094558
      py      :     0.117758
      dz2     :     0.003739  d :     0.029044
      dxz     :     0.004070
      dyz     :     0.005198
      dx2y2   :     0.007738
      dxy     :     0.008299
 21 I s       :     3.652580  s :     3.652580
      pz      :     3.700297  p :    10.899445
      px      :     3.641870
      py      :     3.557278
      dz2     :     2.041138  d :    10.222809
      dxz     :     2.027598
      dyz     :     2.044974
      dx2y2   :     2.075271
      dxy     :     2.033828
      f0      :     0.000374  f :     0.006321
      f+1     :     0.000636
      f-1     :     0.000849
      f+2     :     0.000138
      f-2     :     0.000817
      f+3     :     0.001585
      f-3     :     0.001922
 22 I s       :     3.652474  s :     3.652474
      pz      :     3.700113  p :    10.898866
      px      :     3.640445
      py      :     3.558308
      dz2     :     2.041167  d :    10.222930
      dxz     :     2.027832
      dyz     :     2.044802
      dx2y2   :     2.075234
      dxy     :     2.033895
      f0      :     0.000374  f :     0.006316
      f+1     :     0.000639
      f-1     :     0.000846
      f+2     :     0.000136
      f-2     :     0.000819
      f+3     :     0.001586
      f-3     :     0.001916


                      *****************************
                      * MAYER POPULATION ANALYSIS *
                      *****************************

  NA   - Mulliken gross atomic population
  ZA   - Total nuclear charge
  QA   - Mulliken gross atomic charge
  VA   - Mayer's total valence
  BVA  - Mayer's bonded valence
  FA   - Mayer's free valence

  ATOM       NA         ZA         QA         VA         BVA        FA
  0 Mo    14.7394    14.0000    -0.7394     7.0906     7.0906     0.0000
  1 C      5.7151     6.0000     0.2849     3.1498     3.1498     0.0000
  2 C      6.2640     6.0000    -0.2640     3.6067     3.6067     0.0000
  3 C      6.3074     6.0000    -0.3074     3.6093     3.6093     0.0000
  4 C      5.6486     6.0000     0.3514     3.1029     3.1029    -0.0000
  5 C      5.9926     6.0000     0.0074     3.6081     3.6081     0.0000
  6 H      1.0333     1.0000    -0.0333     1.0806     1.0806    -0.0000
  7 H      0.7784     1.0000     0.2216     0.7664     0.7664     0.0000
  8 H      0.7572     1.0000     0.2428     0.7251     0.7251     0.0000
  9 H      0.9812     1.0000     0.0188     1.0044     1.0044    -0.0000
 10 H      0.7753     1.0000     0.2247     0.7529     0.7529    -0.0000
 11 C      5.9924     6.0000     0.0076     3.6084     3.6084     0.0000
 12 C      5.7119     6.0000     0.2881     3.1417     3.1417     0.0000
 13 C      6.3075     6.0000    -0.3075     3.6020     3.6020    -0.0000
 14 C      5.6481     6.0000     0.3519     3.1051     3.1051    -0.0000
 15 H      1.0343     1.0000    -0.0343     1.0823     1.0823     0.0000
 16 H      0.7803     1.0000     0.2197     0.7697     0.7697     0.0000
 17 C      6.2643     6.0000    -0.2643     3.5973     3.5973     0.0000
 18 H      0.9810     1.0000     0.0190     1.0037     1.0037    -0.0000
 19 H      0.7752     1.0000     0.2248     0.7522     0.7522    -0.0000
 20 H      0.7577     1.0000     0.2423     0.7257     0.7257    -0.0000
 21 I     25.3774    25.0000    -0.3774     1.0215     1.0215     0.0000
 22 I     25.3772    25.0000    -0.3772     1.0212     1.0212     0.0000

  Mayer bond orders larger than 0.100000
B(  0-Mo,  1-C ) :   0.3163 B(  0-Mo,  2-C ) :   0.6119 B(  0-Mo,  3-C ) :   0.5853 
B(  0-Mo,  4-C ) :   0.2936 B(  0-Mo,  5-C ) :   0.7987 B(  0-Mo, 11-C ) :   0.7985 
B(  0-Mo, 12-C ) :   0.3163 B(  0-Mo, 13-C ) :   0.5857 B(  0-Mo, 14-C ) :   0.2939 
B(  0-Mo, 17-C ) :   0.6109 B(  0-Mo, 21-I ) :   0.8034 B(  0-Mo, 22-I ) :   0.8031 
B(  1-C ,  2-C ) :   0.9379 B(  1-C ,  3-C ) :  -0.2297 B(  1-C ,  5-C ) :   1.1283 
B(  1-C ,  6-H ) :   1.0103 B(  1-C , 11-C ) :  -0.1179 B(  1-C , 14-C ) :   0.3444 
B(  2-C ,  3-C ) :   1.1547 B(  2-C ,  4-C ) :  -0.2156 B(  2-C ,  7-H ) :   1.0160 
B(  2-C , 21-I ) :   0.1758 B(  3-C ,  4-C ) :   0.9490 B(  3-C ,  8-H ) :   1.0041 
B(  3-C , 22-I ) :   0.2097 B(  4-C ,  5-C ) :   1.1373 B(  4-C ,  9-H ) :   0.9838 
B(  4-C , 11-C ) :  -0.1338 B(  4-C , 12-C ) :   0.3441 B(  5-C , 10-H ) :   0.8696 
B(  5-C , 12-C ) :  -0.1171 B(  5-C , 14-C ) :  -0.1362 B(  7-H , 21-I ) :  -0.1598 
B(  8-H , 22-I ) :  -0.1764 B( 11-C , 12-C ) :   1.1281 B( 11-C , 14-C ) :   1.1374 
B( 11-C , 19-H ) :   0.8690 B( 12-C , 13-C ) :  -0.2285 B( 12-C , 15-H ) :   1.0111 
B( 12-C , 17-C ) :   0.9337 B( 13-C , 14-C ) :   0.9492 B( 13-C , 17-C ) :   1.1476 
B( 13-C , 20-H ) :   1.0063 B( 13-C , 21-I ) :   0.2068 B( 14-C , 17-C ) :  -0.2138 
B( 14-C , 18-H ) :   0.9841 B( 16-H , 17-C ) :   1.0182 B( 16-H , 22-I ) :  -0.1580 
B( 17-C , 22-I ) :   0.1765 B( 20-H , 21-I ) :  -0.1764 

-------
TIMINGS
-------

Total SCF time: 0 days 0 hours 1 min 34 sec 

Total time                  ....      94.416 sec
Sum of individual times     ....      93.526 sec  ( 99.1%)

Fock matrix formation       ....      84.618 sec  ( 89.6%)
  XC integration            ....       9.653 sec  ( 11.4% of F)
    Basis function eval.    ....       1.399 sec  ( 14.5% of XC)
    Density eval.           ....       2.961 sec  ( 30.7% of XC)
    XC-Functional eval.     ....       0.079 sec  (  0.8% of XC)
    XC-Potential eval.      ....       3.419 sec  ( 35.4% of XC)
Diagonalization             ....       2.832 sec  (  3.0%)
Density matrix formation    ....       0.132 sec  (  0.1%)
Population analysis         ....       0.102 sec  (  0.1%)
Initial guess               ....       3.382 sec  (  3.6%)
Orbital Transformation      ....       0.000 sec  (  0.0%)
Orbital Orthonormalization  ....       0.000 sec  (  0.0%)
DIIS solution               ....       1.452 sec  (  1.5%)
Grid generation             ....       1.007 sec  (  1.1%)


           ************************************************************
           *        Program running with 24 parallel MPI-processes    *
           *              working on a common directory               *
           ************************************************************

------------------------------------------------------------------------------
                                ORCA  MP2 
------------------------------------------------------------------------------

Freezing NCore=36 chemical core electrons

-------------
RI-MP2 ENERGY
-------------
Dimension of the basis                    ...  714
Memory devoted to MP2                     ... 5000 MB   
Data format for buffers                   ... DOUBLE
Compression type for matrix containers    ... UNCOMPRESSED
Overall scaling of the MP2 energy         ...   2.700e-01
Calculating two index integrals           ... done (    0.032 sec)
Cholesky decomposition of V**-1           ... done (    0.330 sec)

-----------------
RI-TRANSFORMATION (AUX index driven)
-----------------

Dimension of the orbital-basis         ... 714
Dimension of the aux-basis             ... 1886
Transformation of internal/external MOs...   18-  66 to   67- 713
Number Format for Storage              ... Double (8 Byte)
Integral mode                          ... Direct

First Phase: integral generation and transformation of MO indices
  Aux angular momentum 0               ... done (    0.106 sec)
  Aux angular momentum 1               ... done (    0.221 sec)
  Aux angular momentum 2               ... done (    0.338 sec)
  Aux angular momentum 3               ... done (    0.271 sec)
  Aux angular momentum 4               ... done (    0.120 sec)
  Aux angular momentum 5               ... done (    0.153 sec)
  Aux angular momentum 6               ... done (    0.185 sec)
Closing buffer VIA ( 0.45 GB; CompressionRatio= 1.00)
  Phase 1 completed in     1.502 sec
Second Phase: sorting and transformation of aux index

IA-Transformation
Memory available                       ... 4933 MB 
Max. # MO pairs treated in a batch     ... 3    
# of internal orbitals                 ... 49
# batches for internal orbitals        ... 1
Closing buffer IAV ( 0.03 GB; CompressionRatio= 1.00)
(ia|v) transformation done in     0.378 sec

  Phase 2 completed in     0.877 sec
RI-Integral transformation completed in     2.391 sec
Opening buffers                              ... done

Starting loop over batches of integrals:

Operator 0  - window                       ... ( 18- 66)x( 67-713)
Operator 0  - Memory available             ...  5000 MB
Operator 0  - Memory needed per MO         ...   9.3 MB
Operator 0  - Number of orbitals per batch ... 3
Operator 0  - Number of batches            ... 1

OPERATOR  0   PASS   0:  MOs    18 ...   20 +   21 ...   23 +   24 ...   26 +   27 ...   29
                            +   30 ...   32 +   33 ...   35 +   36 ...   38 +   39 ...   41
                            +   42 ...   44 +   45 ...   47 +   48 ...   50 +   51 ...   53
                            +   54 ...   56 +   57 ...   59 +   60 ...   62 +   63 ...   65
                            +   66 ...   66
  Reading integrals       ... ok
  Internal MO  20
Time spent in pair loops =     0.259 sec
Deleting buffer (Ka|jb)[aa] ...done

-----------------------------------------------
 RI-MP2 CORRELATION ENERGY:     -1.069519002 Eh
-----------------------------------------------


-------
TIMINGS
-------

Total time                :    7.460 sec
Integral trafo            :    2.403 sec ( 32.2%)
I/O of integrals          :    0.029 sec (  0.4%)
K(i,j) Operators          :    0.162 sec (  2.2%)
T(i,j) pair energies      :    0.030 sec (  0.4%)
V-calculation             :    0.032 sec (  0.4%)
V**(-1/2)                 :    0.330 sec (  4.4%)
Gamma(ia|P)               :    0.000 sec (  0.0%)
Gamma-Trafo               :    0.000 sec (  0.0%)
D(virtual)                :    0.000 sec (  0.0%)
D(internal)               :    0.000 sec (  0.0%)
W(virtual)                :    0.000 sec (  0.0%)
W(internal)               :    0.000 sec (  0.0%)
L(virtual)                :    0.000 sec (  0.0%)
L(internal)               :    0.000 sec (  0.0%)
G(D)                      :    0.000 sec (  0.0%)
G(Z)                      :    0.000 sec (  0.0%)
Z-Vector Solution         :    0.000 sec (  0.0%)
Z-Vector Solution         :    0.000 sec (  0.0%)
3-Index Derivative 
+ Separable RIJ part      :    0.000 sec (  0.0%)
2-Index Derivative 
+ Separable RIJ part      :    0.000 sec (  0.0%)
Separable Gradient (X)    :    0.000 sec (  0.0%)


---------------------------------------
MP2 TOTAL ENERGY:    -1050.227506069 Eh
---------------------------------------


-------------------------------------------------------------------------------
                          DFT DISPERSION CORRECTION                            
                                                                               
                              DFTD3 V3.1  Rev 1                                
                          USING Becke-Johnson damping                          
-------------------------------------------------------------------------------
The B2PLYP functional is recognized
Active option DFTDOPT                   ...         4   

molecular C6(AA) [au] = 13451.477004 


            DFT-D V3
 parameters
 s6 scaling factor         :     0.6400 
 a1 scaling factor         :     0.3065 
 s8 scaling factor         :     0.9147 
 a2 scaling factor         :     5.0570 
 ad hoc parameters k1-k3   :    16.0000     1.3333    -4.0000 

 Edisp/kcal,au: -25.310245845143  -0.040334439863 
 E6   /kcal   : -11.511015433 
 E8   /kcal   : -13.799230412 
 % E8         :  54.520333371 

-------------------------   ----------------
Dispersion correction           -0.040334440
-------------------------   ----------------


-------------------------   --------------------
FINAL SINGLE POINT ENERGY     -1050.267840509182
-------------------------   --------------------


                            ***************************************
                            *     ORCA property calculations      *
                            ***************************************


  WARNING: The energy has been calculated at the MP2 level but the densities
           used in the property calculations are still SCF densities
           MP2 response densities have not been calculated 
           use %mp2 Density relaxed end
           or  %mp2 Density unrelaxed end

                                    ---------------------
                                    Active property flags
                                    ---------------------
   (+) Dipole Moment


------------------------------------------------------------------------------
                       ORCA ELECTRIC PROPERTIES CALCULATION
------------------------------------------------------------------------------

Dipole Moment Calculation                       ... on
Quadrupole Moment Calculation                   ... off
Polarizability Calculation                      ... off
GBWName                                         ... MOR35_pr36.gbw
Electron density file                           ... MOR35_pr36.scfp
The origin for moment calculation is the CENTER OF MASS  = (-0.000205, -0.235031 -0.000098)

-------------
DIPOLE MOMENT
-------------
                                X             Y             Z
Electronic contribution:     -0.09770    -123.86856      -0.05602
Nuclear contribution   :      0.10150     127.02090       0.05751
                        -----------------------------------------
Total Dipole Moment    :      0.00380       3.15234       0.00149
                        -----------------------------------------
Magnitude (a.u.)       :      3.15234
Magnitude (Debye)      :      8.01262



--------------------
Rotational spectrum 
--------------------
 
Rotational constants in cm-1:     0.012573     0.011263     0.008836 
Rotational constants in MHz :   376.926737   337.652277   264.898337 

 Dipole components along the rotational axes: 
x,y,z [a.u.] :    -0.002039     3.152343     0.001243 
x,y,z [Debye]:    -0.005182     8.012618     0.003160 

 

Timings for individual modules:

Sum of individual times         ...      109.802 sec (=   1.830 min)
GTO integral calculation        ...        6.859 sec (=   0.114 min)   6.2 %
SCF iterations                  ...       94.823 sec (=   1.580 min)  86.4 %
MP2 module                      ...        8.120 sec (=   0.135 min)   7.4 %
                             ****ORCA TERMINATED NORMALLY****
TOTAL RUN TIME: 0 days 0 hours 1 minutes 50 seconds 375 msec
