
                                 *****************
                                 * O   R   C   A *
                                 *****************

           --- An Ab Initio, DFT and Semiempirical electronic structure package ---

                  #######################################################
                  #                        -***-                        #
                  #          Department of theory and spectroscopy      #
                  #               Directorship: Frank Neese             #
                  #        Max Planck Institute fuer Kohlenforschung    #
                  #                Kaiser Wilhelm Platz 1               #
                  #                 D-45470 Muelheim/Ruhr               #
                  #                      Germany                        #
                  #                                                     #
                  #                  All rights reserved                #
                  #                        -***-                        #
                  #######################################################


                         Program Version 4.2.0 -  RELEASE  -


 With contributions from (in alphabetic order):
   Daniel Aravena         : Magnetic Suceptibility
   Michael Atanasov       : Ab Initio Ligand Field Theory (pilot matlab implementation)
   Alexander A. Auer      : GIAO ZORA, VPT2
   Ute Becker             : Parallelization
   Giovanni Bistoni       : ED, misc. LED, open-shell LED, HFLED
   Martin Brehm           : Molecular dynamics
   Dmytro Bykov           : SCF Hessian
   Vijay G. Chilkuri      : MRCI spin determinant printing, contributions to CSF-ICE
   Dipayan Datta          : RHF DLPNO-CCSD density
   Achintya Kumar Dutta   : EOM-CC, STEOM-CC
   Dmitry Ganyushin       : Spin-Orbit,Spin-Spin,Magnetic field MRCI
   Miquel Garcia          : C-PCM Hessian, Gaussian charge scheme
   Yang Guo               : DLPNO-NEVPT2, CIM, IAO-localization
   Andreas Hansen         : Spin unrestricted coupled pair/coupled cluster methods
   Benjamin Helmich-Paris : CASSCF linear response (MC-RPA)
   Lee Huntington         : MR-EOM, pCC
   Robert Izsak           : Overlap fitted RIJCOSX, COSX-SCS-MP3, EOM
   Christian Kollmar      : KDIIS, OOCD, Brueckner-CCSD(T), CCSD density
   Simone Kossmann        : Meta GGA functionals, TD-DFT gradient, OOMP2, MP2 Hessian
   Martin Krupicka        : AUTO-CI
   Lucas Lang             : DCDCAS
   Dagmar Lenk            : GEPOL surface, SMD
   Dimitrios Liakos       : Extrapolation schemes; Compound Job, initial MDCI parallelization
   Dimitrios Manganas     : Further ROCIS development; embedding schemes
   Dimitrios Pantazis     : SARC Basis sets
   Taras Petrenko         : DFT Hessian,TD-DFT gradient, ASA, ECA, R-Raman, ABS, FL, XAS/XES, NRVS
   Peter Pinski           : DLPNO-MP2, DLPNO-MP2 Gradient
   Christoph Reimann      : Effective Core Potentials
   Marius Retegan         : Local ZFS, SOC
   Christoph Riplinger    : Optimizer, TS searches, QM/MM, DLPNO-CCSD(T), (RO)-DLPNO pert. Triples
   Tobias Risthaus        : Range-separated hybrids, TD-DFT gradient, RPA, STAB
   Michael Roemelt        : Original ROCIS implementation
   Masaaki Saitow         : Open-shell DLPNO-CCSD energy and density
   Barbara Sandhoefer     : DKH picture change effects
   Avijit Sen             : IP-ROCIS
   Kantharuban Sivalingam : CASSCF convergence, NEVPT2, FIC-MRCI
   Bernardo de Souza      : ESD, SOC TD-DFT
   Georgi Stoychev        : AutoAux, RI-MP2 NMR
   Willem Van den Heuvel  : Paramagnetic NMR
   Boris Wezisla          : Elementary symmetry handling
   Frank Wennmohs         : Technical directorship


 We gratefully acknowledge several colleagues who have allowed us to
 interface, adapt or use parts of their codes:
   Stefan Grimme, W. Hujo, H. Kruse,             : VdW corrections, initial TS optimization,
                  C. Bannwarth                     DFT functionals, gCP, sTDA/sTD-DF
   Ed Valeev, F. Pavosevic, A. Kumar             : LibInt (2-el integral package), F12 methods
   Garnet Chan, S. Sharma, J. Yang, R. Olivares  : DMRG
   Ulf Ekstrom                                   : XCFun DFT Library
   Mihaly Kallay                                 : mrcc  (arbitrary order and MRCC methods)
   Andreas Klamt, Michael Diedenhofen            : otool_cosmo (COSMO solvation model)
   Jiri Pittner, Ondrej Demel                    : Mk-CCSD
   Frank Weinhold                                : gennbo (NPA and NBO analysis)
   Christopher J. Cramer and Donald G. Truhlar   : smd solvation model
   Lars Goerigk                                  : TD-DFT with DH, B97 family of functionals
   V. Asgeirsson, H. Jonsson                     : NEB implementation
   FAccTs GmbH                                   : IRC, NEB, NEB-TS, Multilevel, MM, QM/MM, CI optimization
   S Lehtola, MJT Oliveira, MAL Marques          : LibXC Library


 Your calculation uses the libint2 library for the computation of 2-el integrals
 For citations please refer to: http://libint.valeyev.net

 Your ORCA version has been built with support for libXC version: 4.2.3
 For citations please refer to: https://tddft.org/programs/libxc/

 This ORCA versions uses:
   CBLAS   interface :  Fast vector & matrix operations
   LAPACKE interface :  Fast linear algebra routines
   SCALAPACK package :  Parallel linear algebra routines


Your calculation utilizes the atom-pairwise dispersion correction
with the Becke-Johnson damping scheme (D3BJ)
Cite in your paper:
S.Grimme, S.Ehrlich, L.Goerigk, J Comput Chem, (2011), 32, 1456–1465 
S.Grimme, J.Antony, S.Ehrlich and H.Krieg, J.Chem.Phys., 132, (2010), 154104 
   

----- Orbital basis set information -----
Your calculation utilizes the basis: def2-TZVPPD
   F. Weigend and R. Ahlrichs, Phys. Chem. Chem. Phys. 7, 3297 (2005).
   D. Rappoport and F. Furche, J. Chem. Phys. 133 134105 (2010).

----- AuxC basis set information -----
Your calculation utilizes the auxiliary basis: def2-TZVPPD/C
   A. Hellweg, C. Hattig, S. Hofener and W. Klopper, Theor. Chem. Acc. 117, 587 (2007).

----- AuxJK basis set information -----
Your calculation utilizes the auxiliary basis: def2/JK
   H-Ba, Hf-Rn: F. Weigend, J. Comput. Chem. 29, 167 (2008).

cite the ECPs for Ru [Def2-ECP] as follows:
Ce-Yb(ecp-28): M. Dolg, H. Stoll, H.Preuss, J. Chem. Phys., 1989, 90, 1730-1734.
Y-Cd(ecp-28), Hf-Hg(ecp-46): D. Andrae,U. Haeussermann, M. Dolg, H. Stoll, H. Preuss, Theor. Chim. Acta, 1990, 77, 123-141.
In-Sb(ecp-28), Tl-Bi(ecp-46): B. Metz, H. Stoll, M. Dolg, J. Chem. Phys., 2000, 113, 2563-2569.
Te-Xe(ecp-28), Po-Rn(ecp-46): K. A. Peterson, D. Figgen, E. Goll, H. Stoll, M. Dolg, J. Chem. Phys., 2003, 119, 11113-11123.
Rb(ecp-28), Cs(ecp-46): T. Leininger, A. Nicklass, W. Kuechle, H. Stoll, M. Dolg, A. Bergner, Chem. Phys. Lett., 1996, 255, 274-280.
Sr(ecp-28), Ba(ecp-46): M. Kaupp, P. V. Schleyer, H. Stoll and H. Preuss, J. Chem. Phys., 1991, 94, 1360-1366.
La(ecp-46): M. Dolg, H. Stoll, A. Savin, H. Preuss, Theor. Chim. Acta, 1989, 75, 173-194.
Lu(ecp-28): X. Cao, M. Dolg, J. Chem. Phys., 2001, 115, 7348-7355.

ECP parameters for Ru [Def2-ECP] have been obtained from:
TURBOMOLE (7.0.2)

================================================================================
                                        WARNINGS
                       Please study these warnings very carefully!
================================================================================


WARNING: No MP2 level density has been requested!
         To caclulate MP2 level properties use
         %mp2 Density relaxed end
         or
         %mp2 Density unrelaxed end
         Otherwise for double-hybrid DFT only the energy is correct!

WARNING: The frozen-core approximation is turned on by default for 
         the MP2 part of double-hybrid DFT.

INFO   : the flag for use of LIBINT has been found!

================================================================================
                                       INPUT FILE
================================================================================
NAME = MOR33_pr28.in
|  1> #
|  2> # MOR33_pr28 ri-B2PLYP-D3BJ/Def2-TZVPPD
|  3> #
|  4> ! rijk ri-b2plyp d3bj def2-tzvppd def2/jk def2-tzvppd/c grid4 nofinalgrid
|  5> 
|  6> *xyz 0 1
|  7> C        1.962238    1.228976    0.498763 
|  8> C        1.599117    0.285883    1.541183 
|  9> C        2.190996   -0.926462   -0.368778 
| 10> C        2.300550    0.493131   -0.671789 
| 11> C        2.081248    2.713946    0.664976 
| 12> H        1.434728    3.080045    1.466376 
| 13> H        1.821015    3.245065   -0.254703 
| 14> H        3.112287    2.986784    0.927647 
| 15> C        2.741378    1.051608   -1.988266 
| 16> H        2.535990    2.123448   -2.051886 
| 17> H        2.213045    0.558789   -2.809947 
| 18> H        3.820515    0.902993   -2.128525 
| 19> C        2.527241   -2.035347   -1.317221 
| 20> H        3.613873   -2.134320   -1.446849 
| 21> H        2.080344   -1.846887   -2.298459 
| 22> H        2.144835   -2.993343   -0.953257 
| 23> C        1.716574   -2.315630    1.788054 
| 24> H        2.711935   -2.577282    2.171299 
| 25> H        1.368788   -3.152284    1.175589 
| 26> H        1.050088   -2.217418    2.648594 
| 27> C        1.340513    0.619038    2.979845 
| 28> H        2.276059    0.647386    3.557074 
| 29> H        0.683714   -0.121696    3.445256 
| 30> H        0.861589    1.596880    3.080055 
| 31> Ru       0.207249   -0.005545   -0.119227 
| 32> Cl      -0.429544   -0.245973   -2.480800 
| 33> P       -1.456891    1.528216    0.068580 
| 34> C       -1.650760    2.737817   -1.304822 
| 35> H       -1.703179    2.179367   -2.242601 
| 36> H       -0.763254    3.377318   -1.338338 
| 37> H       -2.542801    3.360896   -1.175052 
| 38> C       -1.549065    2.651656    1.528190 
| 39> H       -2.472379    3.241595    1.506577 
| 40> H       -0.697323    3.336564    1.527717 
| 41> H       -1.520496    2.059136    2.446687 
| 42> C       -3.144680    0.720288    0.161598 
| 43> H       -3.432756    0.709722    1.219807 
| 44> H       -3.887248    1.321720   -0.374189 
| 45> C        1.787636   -1.042026    1.001372 
| 46> P       -1.484414   -1.469966    0.216463 
| 47> H       -2.382409   -3.625079   -0.568542 
| 48> H       -0.624918   -3.689033   -0.270965 
| 49> H       -1.236340   -2.863867   -1.723131 
| 50> C       -3.065590   -0.710530   -0.380679 
| 51> C       -1.439182   -3.076884   -0.670420 
| 52> C       -1.931261   -2.000447    1.926464 
| 53> H       -2.988264   -0.701756   -1.472521 
| 54> H       -3.935017   -1.311110   -0.088429 
| 55> H       -1.104361   -2.563780    2.366010 
| 56> H       -2.827619   -2.630913    1.925421 
| 57> H       -2.109292   -1.117280    2.546403 
| 58> *
| 59> 
| 60> %maxcore 5000
| 61> 
| 62> %pal
| 63> nprocs = 24
| 64> end
| 65> 
| 66> 
| 67>                          ****END OF INPUT****
================================================================================

                       ****************************
                       * Single Point Calculation *
                       ****************************

---------------------------------
CARTESIAN COORDINATES (ANGSTROEM)
---------------------------------
  C      1.962238    1.228976    0.498763
  C      1.599117    0.285883    1.541183
  C      2.190996   -0.926462   -0.368778
  C      2.300550    0.493131   -0.671789
  C      2.081248    2.713946    0.664976
  H      1.434728    3.080045    1.466376
  H      1.821015    3.245065   -0.254703
  H      3.112287    2.986784    0.927647
  C      2.741378    1.051608   -1.988266
  H      2.535990    2.123448   -2.051886
  H      2.213045    0.558789   -2.809947
  H      3.820515    0.902993   -2.128525
  C      2.527241   -2.035347   -1.317221
  H      3.613873   -2.134320   -1.446849
  H      2.080344   -1.846887   -2.298459
  H      2.144835   -2.993343   -0.953257
  C      1.716574   -2.315630    1.788054
  H      2.711935   -2.577282    2.171299
  H      1.368788   -3.152284    1.175589
  H      1.050088   -2.217418    2.648594
  C      1.340513    0.619038    2.979845
  H      2.276059    0.647386    3.557074
  H      0.683714   -0.121696    3.445256
  H      0.861589    1.596880    3.080055
  Ru     0.207249   -0.005545   -0.119227
  Cl    -0.429544   -0.245973   -2.480800
  P     -1.456891    1.528216    0.068580
  C     -1.650760    2.737817   -1.304822
  H     -1.703179    2.179367   -2.242601
  H     -0.763254    3.377318   -1.338338
  H     -2.542801    3.360896   -1.175052
  C     -1.549065    2.651656    1.528190
  H     -2.472379    3.241595    1.506577
  H     -0.697323    3.336564    1.527717
  H     -1.520496    2.059136    2.446687
  C     -3.144680    0.720288    0.161598
  H     -3.432756    0.709722    1.219807
  H     -3.887248    1.321720   -0.374189
  C      1.787636   -1.042026    1.001372
  P     -1.484414   -1.469966    0.216463
  H     -2.382409   -3.625079   -0.568542
  H     -0.624918   -3.689033   -0.270965
  H     -1.236340   -2.863867   -1.723131
  C     -3.065590   -0.710530   -0.380679
  C     -1.439182   -3.076884   -0.670420
  C     -1.931261   -2.000447    1.926464
  H     -2.988264   -0.701756   -1.472521
  H     -3.935017   -1.311110   -0.088429
  H     -1.104361   -2.563780    2.366010
  H     -2.827619   -2.630913    1.925421
  H     -2.109292   -1.117280    2.546403

----------------------------
CARTESIAN COORDINATES (A.U.)
----------------------------
  NO LB      ZA    FRAG     MASS         X           Y           Z
   0 C     6.0000    0    12.011    3.708092    2.322428    0.942525
   1 C     6.0000    0    12.011    3.021893    0.540241    2.912414
   2 C     6.0000    0    12.011    4.140382   -1.750759   -0.696889
   3 C     6.0000    0    12.011    4.347409    0.931883   -1.269497
   4 C     6.0000    0    12.011    3.932989    5.128615    1.256623
   5 H     1.0000    0     1.008    2.711243    5.820442    2.771049
   6 H     1.0000    0     1.008    3.441220    6.132284   -0.481319
   7 H     1.0000    0     1.008    5.881370    5.644204    1.752999
   8 C     6.0000    0    12.011    5.180454    1.987251   -3.757278
   9 H     1.0000    0     1.008    4.792327    4.012735   -3.877503
  10 H     1.0000    0     1.008    4.182049    1.055958   -5.310030
  11 H     1.0000    0     1.008    7.219727    1.706409   -4.022329
  12 C     6.0000    0    12.011    4.775793   -3.846248   -2.489187
  13 H     1.0000    0     1.008    6.829230   -4.033280   -2.734148
  14 H     1.0000    0     1.008    3.931280   -3.490111   -4.343458
  15 H     1.0000    0     1.008    4.053151   -5.656598   -1.801395
  16 C     6.0000    0    12.011    3.243855   -4.375907    3.378932
  17 H     1.0000    0     1.008    5.124814   -4.870357    4.103160
  18 H     1.0000    0     1.008    2.586634   -5.956953    2.221541
  19 H     1.0000    0     1.008    1.984379   -4.190313    5.005117
  20 C     6.0000    0    12.011    2.533202    1.169812    5.631091
  21 H     1.0000    0     1.008    4.301128    1.223382    6.721896
  22 H     1.0000    0     1.008    1.292032   -0.229972    6.510590
  23 H     1.0000    0     1.008    1.628167    3.017666    5.820460
  24 Ru   16.0000*   0   101.070    0.391644   -0.010479   -0.225306
  25 Cl   17.0000    0    35.453   -0.811721   -0.464822   -4.688033
  26 P    15.0000    0    30.974   -2.753125    2.887910    0.129597
  27 C     6.0000    0    12.011   -3.119484    5.173724   -2.465756
  28 H     1.0000    0     1.008   -3.218542    4.118407   -4.237902
  29 H     1.0000    0     1.008   -1.442341    6.382206   -2.529092
  30 H     1.0000    0     1.008   -4.805198    6.351173   -2.220526
  31 C     6.0000    0    12.011   -2.927309    5.010904    2.887861
  32 H     1.0000    0     1.008   -4.672119    6.125727    2.847018
  33 H     1.0000    0     1.008   -1.317749    6.305192    2.886967
  34 H     1.0000    0     1.008   -2.873321    3.891203    4.623568
  35 C     6.0000    0    12.011   -5.942584    1.361147    0.305376
  36 H     1.0000    0     1.008   -6.486969    1.341180    2.305101
  37 H     1.0000    0     1.008   -7.345834    2.497689   -0.707115
  38 C     6.0000    0    12.011    3.378142   -1.969144    1.892319
  39 P    15.0000    0    30.974   -2.805136   -2.777833    0.409056
  40 H     1.0000    0     1.008   -4.502101   -6.850407   -1.074389
  41 H     1.0000    0     1.008   -1.180924   -6.971262   -0.512050
  42 H     1.0000    0     1.008   -2.336344   -5.411924   -3.256246
  43 C     6.0000    0    12.011   -5.793126   -1.342707   -0.719379
  44 C     6.0000    0    12.011   -2.719660   -5.814468   -1.266910
  45 C     6.0000    0    12.011   -3.649554   -3.780297    3.640489
  46 H     1.0000    0     1.008   -5.647001   -1.326127   -2.782661
  47 H     1.0000    0     1.008   -7.436104   -2.477639   -0.167107
  48 H     1.0000    0     1.008   -2.086940   -4.844842    4.471111
  49 H     1.0000    0     1.008   -5.343426   -4.971705    3.638518
  50 H     1.0000    0     1.008   -3.985984   -2.111353    4.812004
* core charge reduced due to ECP

--------------------------------
INTERNAL COORDINATES (ANGSTROEM)
--------------------------------
 C      0   0   0     0.000000000000     0.00000000     0.00000000
 C      1   0   0     1.451868011801     0.00000000     0.00000000
 C      1   2   0     2.334709956523    72.03736279     0.00000000
 C      1   2   3     1.423416614373   108.30536822     0.99186863
 C      1   2   3     1.498974997246   125.71450130   186.10012122
 H      5   1   2     1.092821370674   111.48258670   332.58094546
 H      5   1   2     1.093443217314   111.65604889   211.34949665
 H      5   1   2     1.098397946104   110.31113232    91.63995104
 C      4   1   2     1.496441638235   126.90870027   180.30660317
 H      9   4   1     1.093193816550   111.20862433   345.26169298
 H      9   4   1     1.094150808349   110.50695045   225.46399737
 H      9   4   1     1.098314922996   110.56608239   105.29897135
 C      3   1   2     1.497408016373   160.22580427   185.92263169
 H     13   3   1     1.098803065402   111.31462369    67.98044898
 H     13   3   1     1.094560237197   110.40336559   307.70245955
 H     13   3   1     1.093828358632   111.05819004   188.13377531
 C      3   1   2     2.608982223499    99.58829371   354.42630464
 H     17   3   1     1.098217655772   104.50942137   261.72676816
 H     17   3   1     1.093644546339    90.12582841   153.55385774
 H     17   3   1     1.092876148857   135.56069201    36.60110030
 C      2   1   3     1.499205333864   125.99989216   170.90422616
 H     21   2   1     1.099655966956   111.26591449   275.00922079
 H     21   2   1     1.093928326755   111.18381507   154.89277572
 H     21   2   1     1.093428195557   111.23717134    34.89837035
 Ru     2   1   3     2.186135443358    72.57285429   298.65886170
 Cl    25   2   1     2.457709906063   155.20490977    43.61862651
 P     25   2   1     2.270915281108   108.28324077   276.47132528
 C     27  25   2     1.840367577949   117.34763191   118.47708974
 H     28  27  25     1.092723023873   108.03509549    51.72126822
 H     28  27  25     1.094418453469   108.75271875   294.57753028
 H     28  27  25     1.095812410416   111.78326537   173.73350828
 C     27  25   2     1.844200323169   120.89810995   354.95778148
 H     32  27  25     1.095903229344   110.75833146   186.42516683
 H     32  27  25     1.092960944754   110.02617034    66.32527867
 H     32  27  25     1.093404260633   109.47728610   307.00366933
 C     27  25   2     1.873507862281   111.90163552   237.27065555
 H     36  27  25     1.096770582124   106.77890217   100.25074135
 H     36  27  25     1.095534296413   110.46271035   216.73657598
 C      3   1   2     1.432956855665    72.03576268   358.16785475
 P     25   2   1     2.262507535216   116.72027651   185.25356619
 H     40  25   2     2.463156493774   142.33635759   244.51048388
 H     41  40  25     1.783652656805    67.60297736    46.74138329
 H     42  41  40     1.778629214085    60.55642386   284.94816856
 C     36  27  25     1.532174834003   109.79380307   340.73630087
 C     43  42  41     1.093033196556    35.61449590    35.11756263
 C     40  25   2     1.845314540335   120.30588536    16.80375395
 H     44  36  27     1.094611915848   110.43789331   285.44929129
 H     44  36  27     1.096362032920   112.10327020   163.63392148
 H     46  40  25     1.092844163184   109.73511792   294.95209917
 H     46  40  25     1.095876876829   111.25807992   174.45767310
 H     46  40  25     1.093619381033   109.42470283    53.46592860

---------------------------
INTERNAL COORDINATES (A.U.)
---------------------------
 C      0   0   0     0.000000000000     0.00000000     0.00000000
 C      1   0   0     2.743632924904     0.00000000     0.00000000
 C      1   2   0     4.411962419968    72.03736279     0.00000000
 C      1   2   3     2.689867575638   108.30536822     0.99186863
 C      1   2   3     2.832652226391   125.71450130   186.10012122
 H      5   1   2     2.065133103870   111.48258670   332.58094546
 H      5   1   2     2.066308223718   111.65604889   211.34949665
 H      5   1   2     2.075671304199   110.31113232    91.63995104
 C      4   1   2     2.827864871660   126.90870027   180.30660317
 H      9   4   1     2.065836924576   111.20862433   345.26169298
 H      9   4   1     2.067645376988   110.50695045   225.46399737
 H      9   4   1     2.075514413261   110.56608239   105.29897135
 C      3   1   2     2.829691061684   160.22580427   185.92263169
 H     13   3   1     2.076436868723   111.31462369    67.98044898
 H     13   3   1     2.068419085382   110.40336559   307.70245955
 H     13   3   1     2.067036035331   111.05819004   188.13377531
 C      3   1   2     4.930261890681    99.58829371   354.42630464
 H     17   3   1     2.075330604847   104.50942137   261.72676816
 H     17   3   1     2.066688680437    90.12582841   153.55385774
 H     17   3   1     2.065236619634   135.56069201    36.60110030
 C      2   1   3     2.833087499516   125.99989216   170.90422616
 H     21   2   1     2.078048619078   111.26591449   275.00922079
 H     21   2   1     2.067224947707   111.18381507   154.89277572
 H     21   2   1     2.066279836711   111.23717134    34.89837035
 Ru     2   1   3     4.131197279606    72.57285429   298.65886170
 Cl    25   2   1     4.644398639085   155.20490977    43.61862651
 P     25   2   1     4.291407954631   108.28324077   276.47132528
 C     27  25   2     3.477790708072   117.34763191   118.47708974
 H     28  27  25     2.064947255350   108.03509549    51.72126822
 H     28  27  25     2.068151152966   108.75271875   294.57753028
 H     28  27  25     2.070785349839   111.78326537   173.73350828
 C     27  25   2     3.485033546878   120.89810995   354.95778148
 H     32  27  25     2.070956972740   110.75833146   186.42516683
 H     32  27  25     2.065396860656   110.02617034    66.32527867
 H     32  27  25     2.066234606259   109.47728610   307.00366933
 C     27  25   2     3.540416769459   111.90163552   237.27065555
 H     36  27  25     2.072596031956   106.77890217   100.25074135
 H     36  27  25     2.070259790539   110.46271035   216.73657598
 C      3   1   2     2.707896018931    72.03576268   358.16785475
 P     25   2   1     4.275519617492   116.72027651   185.25356619
 H     40  25   2     4.654691198222   142.33635759   244.51048388
 H     41  40  25     3.370615039402    67.60297736    46.74138329
 H     42  41  40     3.361122108412    60.55642386   284.94816856
 C     36  27  25     2.895390825552   109.79380307   340.73630087
 C     43  42  41     2.065533396776    35.61449590    35.11756263
 C     40  25   2     3.487139112176   120.30588536    16.80375395
 H     44  36  27     2.068516743879   110.43789331   285.44929129
 H     44  36  27     2.071823985848   112.10327020   163.63392148
 H     46  40  25     2.065176175472   109.73511792   294.95209917
 H     46  40  25     2.070907173704   111.25807992   174.45767310
 H     46  40  25     2.066641124901   109.42470283    53.46592860

---------------------
BASIS SET INFORMATION
---------------------
There are 5 groups of distinct atoms

 Group   1 Type C   : 12s6p3d1f contracted to 6s3p3d1f pattern {621111/411/111/1}
 Group   2 Type H   : 5s3p1d contracted to 3s3p1d pattern {311/111/1}
 Group   3 Type Ru  : 7s7p5d2f1g contracted to 6s4p3d2f1g pattern {211111/4111/311/11/1}
 Group   4 Type Cl  : 15s10p4d1f contracted to 6s6p4d1f pattern {732111/511111/1111/1}
 Group   5 Type P   : 15s9p4d1f contracted to 6s5p4d1f pattern {732111/51111/1111/1}

Atom   0C    basis set group =>   1
Atom   1C    basis set group =>   1
Atom   2C    basis set group =>   1
Atom   3C    basis set group =>   1
Atom   4C    basis set group =>   1
Atom   5H    basis set group =>   2
Atom   6H    basis set group =>   2
Atom   7H    basis set group =>   2
Atom   8C    basis set group =>   1
Atom   9H    basis set group =>   2
Atom  10H    basis set group =>   2
Atom  11H    basis set group =>   2
Atom  12C    basis set group =>   1
Atom  13H    basis set group =>   2
Atom  14H    basis set group =>   2
Atom  15H    basis set group =>   2
Atom  16C    basis set group =>   1
Atom  17H    basis set group =>   2
Atom  18H    basis set group =>   2
Atom  19H    basis set group =>   2
Atom  20C    basis set group =>   1
Atom  21H    basis set group =>   2
Atom  22H    basis set group =>   2
Atom  23H    basis set group =>   2
Atom  24Ru   basis set group =>   3
Atom  25Cl   basis set group =>   4
Atom  26P    basis set group =>   5
Atom  27C    basis set group =>   1
Atom  28H    basis set group =>   2
Atom  29H    basis set group =>   2
Atom  30H    basis set group =>   2
Atom  31C    basis set group =>   1
Atom  32H    basis set group =>   2
Atom  33H    basis set group =>   2
Atom  34H    basis set group =>   2
Atom  35C    basis set group =>   1
Atom  36H    basis set group =>   2
Atom  37H    basis set group =>   2
Atom  38C    basis set group =>   1
Atom  39P    basis set group =>   5
Atom  40H    basis set group =>   2
Atom  41H    basis set group =>   2
Atom  42H    basis set group =>   2
Atom  43C    basis set group =>   1
Atom  44C    basis set group =>   1
Atom  45C    basis set group =>   1
Atom  46H    basis set group =>   2
Atom  47H    basis set group =>   2
Atom  48H    basis set group =>   2
Atom  49H    basis set group =>   2
Atom  50H    basis set group =>   2
---------------------------------
AUXILIARY/C BASIS SET INFORMATION
---------------------------------
There are 5 groups of distinct atoms

 Group   1 Type C   : 9s7p6d4f1g contracted to 9s7p5d4f1g pattern {111111111/1111111/21111/1111/1}
 Group   2 Type H   : 5s4p3d1f contracted to 5s4p3d1f pattern {11111/1111/111/1}
 Group   3 Type Ru  : 8s7p6d5f4g3h1i contracted to 8s7p6d5f4g3h1i pattern {11111111/1111111/111111/11111/1111/111/1}
 Group   4 Type Cl  : 12s9p8d6f2g contracted to 12s9p8d6f2g pattern {111111111111/111111111/11111111/111111/11}
 Group   5 Type P   : 12s9p8d6f2g contracted to 12s9p8d6f2g pattern {111111111111/111111111/11111111/111111/11}

Atom   0C    basis set group =>   1
Atom   1C    basis set group =>   1
Atom   2C    basis set group =>   1
Atom   3C    basis set group =>   1
Atom   4C    basis set group =>   1
Atom   5H    basis set group =>   2
Atom   6H    basis set group =>   2
Atom   7H    basis set group =>   2
Atom   8C    basis set group =>   1
Atom   9H    basis set group =>   2
Atom  10H    basis set group =>   2
Atom  11H    basis set group =>   2
Atom  12C    basis set group =>   1
Atom  13H    basis set group =>   2
Atom  14H    basis set group =>   2
Atom  15H    basis set group =>   2
Atom  16C    basis set group =>   1
Atom  17H    basis set group =>   2
Atom  18H    basis set group =>   2
Atom  19H    basis set group =>   2
Atom  20C    basis set group =>   1
Atom  21H    basis set group =>   2
Atom  22H    basis set group =>   2
Atom  23H    basis set group =>   2
Atom  24Ru   basis set group =>   3
Atom  25Cl   basis set group =>   4
Atom  26P    basis set group =>   5
Atom  27C    basis set group =>   1
Atom  28H    basis set group =>   2
Atom  29H    basis set group =>   2
Atom  30H    basis set group =>   2
Atom  31C    basis set group =>   1
Atom  32H    basis set group =>   2
Atom  33H    basis set group =>   2
Atom  34H    basis set group =>   2
Atom  35C    basis set group =>   1
Atom  36H    basis set group =>   2
Atom  37H    basis set group =>   2
Atom  38C    basis set group =>   1
Atom  39P    basis set group =>   5
Atom  40H    basis set group =>   2
Atom  41H    basis set group =>   2
Atom  42H    basis set group =>   2
Atom  43C    basis set group =>   1
Atom  44C    basis set group =>   1
Atom  45C    basis set group =>   1
Atom  46H    basis set group =>   2
Atom  47H    basis set group =>   2
Atom  48H    basis set group =>   2
Atom  49H    basis set group =>   2
Atom  50H    basis set group =>   2
----------------------------------
AUXILIARY/JK BASIS SET INFORMATION
----------------------------------
There are 5 groups of distinct atoms

 Group   1 Type C   : 14s10p6d2f1g contracted to 10s8p5d1f1g pattern {5111111111/31111111/21111/2/1}
 Group   2 Type H   : 4s2p2d contracted to 2s2p2d pattern {31/11/11}
 Group   3 Type Ru  : 13s12p10d9f6g3h2i contracted to 11s10p9d8f6g3h2i pattern {31111111111/3111111111/211111111/21111111/111111/111/11}
 Group   4 Type Cl  : 16s12p10d4f1g contracted to 13s11p9d4f1g pattern {4111111111111/21111111111/211111111/1111/1}
 Group   5 Type P   : 16s12p10d4f1g contracted to 13s11p9d4f1g pattern {4111111111111/21111111111/211111111/1111/1}

Atom   0C    basis set group =>   1
Atom   1C    basis set group =>   1
Atom   2C    basis set group =>   1
Atom   3C    basis set group =>   1
Atom   4C    basis set group =>   1
Atom   5H    basis set group =>   2
Atom   6H    basis set group =>   2
Atom   7H    basis set group =>   2
Atom   8C    basis set group =>   1
Atom   9H    basis set group =>   2
Atom  10H    basis set group =>   2
Atom  11H    basis set group =>   2
Atom  12C    basis set group =>   1
Atom  13H    basis set group =>   2
Atom  14H    basis set group =>   2
Atom  15H    basis set group =>   2
Atom  16C    basis set group =>   1
Atom  17H    basis set group =>   2
Atom  18H    basis set group =>   2
Atom  19H    basis set group =>   2
Atom  20C    basis set group =>   1
Atom  21H    basis set group =>   2
Atom  22H    basis set group =>   2
Atom  23H    basis set group =>   2
Atom  24Ru   basis set group =>   3
Atom  25Cl   basis set group =>   4
Atom  26P    basis set group =>   5
Atom  27C    basis set group =>   1
Atom  28H    basis set group =>   2
Atom  29H    basis set group =>   2
Atom  30H    basis set group =>   2
Atom  31C    basis set group =>   1
Atom  32H    basis set group =>   2
Atom  33H    basis set group =>   2
Atom  34H    basis set group =>   2
Atom  35C    basis set group =>   1
Atom  36H    basis set group =>   2
Atom  37H    basis set group =>   2
Atom  38C    basis set group =>   1
Atom  39P    basis set group =>   5
Atom  40H    basis set group =>   2
Atom  41H    basis set group =>   2
Atom  42H    basis set group =>   2
Atom  43C    basis set group =>   1
Atom  44C    basis set group =>   1
Atom  45C    basis set group =>   1
Atom  46H    basis set group =>   2
Atom  47H    basis set group =>   2
Atom  48H    basis set group =>   2
Atom  49H    basis set group =>   2
Atom  50H    basis set group =>   2
-------------------------
ECP PARAMETER INFORMATION
-------------------------

 Group 1, Type Ru ECP Def2-ECP (replacing 28 core electrons, lmax=3)

Atom  24Ru   ECP group =>   1



           ************************************************************
           *        Program running with 24 parallel MPI-processes    *
           *              working on a common directory               *
           ************************************************************
------------------------------------------------------------------------------
                           ORCA GTO INTEGRAL CALCULATION
                           -- RI-GTO INTEGRALS CHOSEN --
------------------------------------------------------------------------------

                         BASIS SET STATISTICS AND STARTUP INFO

Gaussian basis set:
 # of primitive gaussian shells          ...  741
 # of primitive gaussian functions       ... 1707
 # of contracted shells                  ...  490
 # of contracted basis functions         ... 1322
 Highest angular momentum                ...    4
 Maximum contraction depth               ...    7
Auxiliary gaussian basis set:
 # of primitive gaussian shells          ...  960
 # of primitive gaussian functions       ... 2864
 # of contracted shells                  ...  749
 # of contracted aux-basis functions     ... 2397
 Highest angular momentum                ...    6
 Maximum contraction depth               ...    5
Ratio of auxiliary to basis functions    ...  1.81
Integral package used                  ... LIBINT
 One Electron integrals                  
   ECP integrals                         ... done
 Ordering auxiliary basis shells         ... done
 Integral threshhold             Thresh  ...  1.000e-10
 Primitive cut-off               TCut    ...  1.000e-11
 Pre-screening matrix                    ... done
 Shell pair data                         ... 
 Ordering of the shell pairs             ... done (   0.020 sec) 96986 of 120295 pairs
 Determination of significant pairs      ... done (   0.001 sec)
 Creation of shell pair data             ... done (   0.010 sec)
 Storage of shell pair data              ... done (   0.037 sec)
 Shell pair data done in (   0.067 sec)
 Computing two index integrals           ... done
 Cholesky decomposition of the V-matrix  ... done


Timings:
 Total evaluation time                   ...   8.264 sec (  0.138 min)
 One electron matrix time                ...   6.991 sec (  0.117 min) = 84.6%
 Schwartz matrix evaluation time         ...   0.685 sec (  0.011 min) =  8.3%
 Two index repulsion integral time       ...   0.215 sec (  0.004 min) =  2.6%
 Cholesky decomposition of V             ...   0.275 sec (  0.005 min) =  3.3%
 Three index repulsion integral time     ...   0.000 sec (  0.000 min) =  0.0%



           ************************************************************
           *        Program running with 24 parallel MPI-processes    *
           *              working on a common directory               *
           ************************************************************
-------------------------------------------------------------------------------
                                 ORCA SCF
-------------------------------------------------------------------------------

------------
SCF SETTINGS
------------
Hamiltonian:
 Density Functional     Method          .... DFT(GTOs)
 Exchange Functional    Exchange        .... B88
   X-Alpha parameter    XAlpha          ....  0.666667
   Becke's b parameter  XBeta           ....  0.004200
 Correlation Functional Correlation     .... LYP
 LDA part of GGA corr.  LDAOpt          .... VWN-3
 Gradients option       PostSCFGGA      .... off
 Hybrid DFT is turned on
   Fraction HF Exchange ScalHFX         ....  0.530000
   Scaling of DF-GGA-X  ScalDFX         ....  0.470000
   Scaling of DF-GGA-C  ScalDFC         ....  0.730000
   Scaling of DF-LDA-C  ScalLDAC        ....  0.730000
   Perturbative correction              ....  0.270000
   Density functional embedding theory  .... OFF
 RI-approximation to the Coulomb term is turned on
   Number of auxiliary basis functions  .... 2397
   RI-JK (J+K treated both via RI)      .... on


General Settings:
 Integral files         IntName         .... MOR33_pr28
 Hartree-Fock type      HFTyp           .... RHF
 Total Charge           Charge          ....    0
 Multiplicity           Mult            ....    1
 Number of Electrons    NEL             ....  190
 Basis Dimension        Dim             .... 1322
 Nuclear Repulsion      ENuc            ....   2632.2381876203 Eh

Convergence Acceleration:
 DIIS                   CNVDIIS         .... on
   Start iteration      DIISMaxIt       ....    12
   Startup error        DIISStart       ....  0.200000
   # of expansion vecs  DIISMaxEq       ....     5
   Bias factor          DIISBfac        ....   1.050
   Max. coefficient     DIISMaxC        ....  10.000
 Newton-Raphson         CNVNR           .... off
 SOSCF                  CNVSOSCF        .... off
 Level Shifting         CNVShift        .... on
   Level shift para.    LevelShift      ....    0.2500
   Turn off err/grad.   ShiftErr        ....    0.0010
 Zerner damping         CNVZerner       .... off
 Static damping         CNVDamp         .... on
   Fraction old density DampFac         ....    0.7000
   Max. Damping (<1)    DampMax         ....    0.9800
   Min. Damping (>=0)   DampMin         ....    0.0000
   Turn off err/grad.   DampErr         ....    0.1000
 Fernandez-Rico         CNVRico         .... off

SCF Procedure:
 Maximum # iterations   MaxIter         ....   125
 SCF integral mode      SCFMode         .... Direct
   Integral package                     .... LIBINT
 Reset frequency        DirectResetFreq ....    20
 Integral Threshold     Thresh          ....  1.000e-10 Eh
 Primitive CutOff       TCut            ....  1.000e-11 Eh

Convergence Tolerance:
 Convergence Check Mode ConvCheckMode   .... Total+1el-Energy
 Convergence forced     ConvForced      .... 0
 Energy Change          TolE            ....  1.000e-06 Eh
 1-El. energy change                    ....  1.000e-03 Eh
 DIIS Error             TolErr          ....  1.000e-06


Diagonalization of the overlap matrix:
Smallest eigenvalue                        ... 1.665e-07
Time for diagonalization                   ...    0.247 sec
Threshold for overlap eigenvalues          ... 1.000e-08
Number of eigenvalues below threshold      ... 0
Time for construction of square roots      ...    0.233 sec
Total time needed                          ...    0.485 sec

-------------------
DFT GRID GENERATION
-------------------

General Integration Accuracy     IntAcc      ...  4.670
Radial Grid Type                 RadialGrid  ... Gauss-Chebyshev
Angular Grid (max. acc.)         AngularGrid ... Lebedev-302
Angular grid pruning method      GridPruning ... 3 (G Style)
Weight generation scheme         WeightScheme... Becke
Basis function cutoff            BFCut       ...    1.0000e-10
Integration weight cutoff        WCut        ...    1.0000e-14
Grids for H and He will be reduced by one unit

# of grid points (after initial pruning)     ... 235550 (   0.0 sec)
# of grid points (after weights+screening)   ... 198938 (   0.4 sec)
nearest neighbour list constructed           ...    0.0 sec
Grid point re-assignment to atoms done       ...    0.0 sec
Grid point division into batches done        ...    0.6 sec
Reduced shell lists constructed in    1.7 sec

Total number of grid points                  ...   198938
Total number of batches                      ...     3133
Average number of points per batch           ...       63
Average number of grid points per atom       ...     3901
Average number of shells per batch           ...   291.39 (59.47%)
Average number of basis functions per batch  ...   781.57 (59.12%)
Average number of large shells per batch     ...   217.43 (74.62%)
Average number of large basis fcns per batch ...   586.87 (75.09%)
Average number of aux-shells per batch       ...   291.39 (38.90%)
Average number of aux functions per batch    ...   781.57 (32.61%)
Maximum spatial batch extension              ...   5.52,  3.39,  3.31 au
Average spatial batch extension              ...   0.05,  0.05,  0.05 au

Time for grid setup =    2.177 sec

------------------------------
INITIAL GUESS: MODEL POTENTIAL
------------------------------
Loading Hartree-Fock densities                     ... done
  calling /sw/apps/orca/orca_4_2_0_linux_x86-64_openmpi314/orca MOR33_pr28_atom44.inp > MOR33_pr28_atom44.out in order to generate an atomic fitting density for atom 24 (Ru with ECP) on-the-fly... 
    atom 24 (Ru), assumed electronic state with S=5: 1s2 2s2 2p6 3s2 3p6 4s2 3d10 4p6 5s2 4d6           ... done
Calculating cut-offs                               ... done
Setting up the integral package                    ... done
Initializing the effective Hamiltonian             ... done
Starting the Coulomb interaction                   ... done (   0.3 sec)
Reading the grid                                   ... done
Mapping shells                                     ... done
Starting the XC term evaluation                    ... done (   1.2 sec)
  promolecular density results
     # of electrons  =    217.983829442
     EX              =   -293.792155315
     EC              =     -2.912231093
     EX+EC           =   -296.704386408
Transforming the Hamiltonian                       ... done (   0.1 sec)
Diagonalizing the Hamiltonian                      ... done (   0.2 sec)
Back transforming the eigenvectors                 ... done (   0.1 sec)
Now organizing SCF variables                       ... done
                      ------------------
                      INITIAL GUESS DONE (   5.4 sec)
                      ------------------
--------------
SCF ITERATIONS
--------------
ITER       Energy         Delta-E        Max-DP      RMS-DP      [F,P]     Damp
  0  -1863.4336471115   0.000000000000 1.21771401  0.00333983  0.3951521 0.7000
  1  -1863.3570251446   0.076621966970 0.83299644  0.00268971  0.3012189 0.7000
  2  -1863.5352697309  -0.178244586348 0.65527038  0.00188877  0.2185382 0.7000
                               ***Turning on DIIS***
  3  -1863.7812597702  -0.245990039270 0.44139638  0.00139870  0.1506274 0.7000
  4  -1863.9997610281  -0.218501257937 0.91395828  0.00333321  0.0993974 0.0000
  5  -1864.2566281611  -0.256867133008 0.32746562  0.00100187  0.0594622 0.0000
  6  -1864.2669189731  -0.010290811952 0.19230607  0.00057651  0.0214103 0.0000
  7  -1864.2699041872  -0.002985214081 0.53922184  0.00139593  0.0065959 0.0000
  8  -1864.2707470468  -0.000842859683 0.75702867  0.00221882  0.0040768 0.0000
  9  -1864.2710999000  -0.000352853127 0.48673261  0.00133876  0.0019510 0.0000
 10  -1864.2711396552  -0.000039755193 0.43260765  0.00088366  0.0011057 0.0000
 11  -1864.2711497615  -0.000010106367 0.22981367  0.00064104  0.0004914 0.0000
 12  -1864.2711547264  -0.000004964870 0.33222352  0.00102675  0.0005489 0.0000
 13  -1864.2711564652  -0.000001738816 0.39330976  0.00075458  0.0001601 0.0000
                 **** Energy Check signals convergence ****

               *****************************************************
               *                     SUCCESS                       *
               *           SCF CONVERGED AFTER  14 CYCLES          *
               *****************************************************


----------------
TOTAL SCF ENERGY
----------------

Total Energy       :        -1864.27115678 Eh          -50729.39721 eV

Components:
Nuclear Repulsion  :         2632.23818762 Eh           71626.84252 eV
Electronic Energy  :        -4496.50934440 Eh         -122356.23973 eV
One Electron Energy:        -7837.79802712 Eh         -213277.32713 eV
Two Electron Energy:         3341.28868272 Eh           90921.08740 eV

Virial components:
Potential Energy   :        -3664.11082156 Eh          -99705.52439 eV
Kinetic Energy     :         1799.83966478 Eh           48976.12718 eV
Virial Ratio       :            2.03579846


DFT components:
N(Alpha)           :       94.999716259446 electrons
N(Beta)            :       94.999716259446 electrons
N(Total)           :      189.999432518891 electrons
E(X)               :      -83.026638666877 Eh       
E(C)               :       -4.871834588030 Eh       
E(XC)              :      -87.898473254908 Eh       
DFET-embed. en.    :        0.000000000000 Eh       

---------------
SCF CONVERGENCE
---------------

  Last Energy change         ...   -3.1209e-07  Tolerance :   1.0000e-06
  Last MAX-Density change    ...    2.5312e-01  Tolerance :   1.0000e-05
  Last RMS-Density change    ...    7.3014e-04  Tolerance :   1.0000e-06
  Last DIIS Error            ...    7.3232e-05  Tolerance :   1.0000e-06

             **** THE GBW FILE WAS UPDATED (MOR33_pr28.gbw) ****
             **** DENSITY FILE WAS UPDATED (MOR33_pr28.scfp) ****
             **** ENERGY FILE WAS UPDATED (MOR33_pr28.en.tmp) ****
             **** THE GBW FILE WAS UPDATED (MOR33_pr28.gbw) ****
             **** DENSITY FILE WAS UPDATED (MOR33_pr28.scfp) ****
----------------
ORBITAL ENERGIES
----------------

  NO   OCC          E(Eh)            E(eV) 
   0   2.0000    -102.798713     -2797.2952 
   1   2.0000     -78.277170     -2130.0301 
   2   2.0000     -78.276144     -2130.0022 
   3   2.0000     -10.628756      -289.2232 
   4   2.0000     -10.624657      -289.1116 
   5   2.0000     -10.620879      -289.0088 
   6   2.0000     -10.618373      -288.9406 
   7   2.0000     -10.618097      -288.9331 
   8   2.0000     -10.614606      -288.8381 
   9   2.0000     -10.614503      -288.8353 
  10   2.0000     -10.613545      -288.8092 
  11   2.0000     -10.613336      -288.8036 
  12   2.0000     -10.612668      -288.7854 
  13   2.0000     -10.611375      -288.7502 
  14   2.0000     -10.610145      -288.7167 
  15   2.0000     -10.603709      -288.5416 
  16   2.0000     -10.600387      -288.4512 
  17   2.0000     -10.595773      -288.3256 
  18   2.0000     -10.593104      -288.2530 
  19   2.0000      -9.804477      -266.7934 
  20   2.0000      -7.442056      -202.5086 
  21   2.0000      -7.439759      -202.4461 
  22   2.0000      -7.439671      -202.4437 
  23   2.0000      -6.943457      -188.9411 
  24   2.0000      -6.942793      -188.9230 
  25   2.0000      -4.995076      -135.9229 
  26   2.0000      -4.994674      -135.9120 
  27   2.0000      -4.994324      -135.9025 
  28   2.0000      -4.994041      -135.8948 
  29   2.0000      -4.992329      -135.8482 
  30   2.0000      -4.991664      -135.8301 
  31   2.0000      -3.201459       -87.1161 
  32   2.0000      -1.997470       -54.3539 
  33   2.0000      -1.975691       -53.7613 
  34   2.0000      -1.973522       -53.7023 
  35   2.0000      -1.003421       -27.3045 
  36   2.0000      -0.910825       -24.7848 
  37   2.0000      -0.888667       -24.1819 
  38   2.0000      -0.881750       -23.9936 
  39   2.0000      -0.864383       -23.5211 
  40   2.0000      -0.834092       -22.6968 
  41   2.0000      -0.824597       -22.4384 
  42   2.0000      -0.817460       -22.2442 
  43   2.0000      -0.814247       -22.1568 
  44   2.0000      -0.807654       -21.9774 
  45   2.0000      -0.796992       -21.6873 
  46   2.0000      -0.793957       -21.6047 
  47   2.0000      -0.725972       -19.7547 
  48   2.0000      -0.715558       -19.4713 
  49   2.0000      -0.707476       -19.2514 
  50   2.0000      -0.642424       -17.4812 
  51   2.0000      -0.601591       -16.3701 
  52   2.0000      -0.588871       -16.0240 
  53   2.0000      -0.587589       -15.9891 
  54   2.0000      -0.535462       -14.5707 
  55   2.0000      -0.531298       -14.4574 
  56   2.0000      -0.522248       -14.2111 
  57   2.0000      -0.516441       -14.0531 
  58   2.0000      -0.503871       -13.7110 
  59   2.0000      -0.497324       -13.5329 
  60   2.0000      -0.496746       -13.5171 
  61   2.0000      -0.493491       -13.4286 
  62   2.0000      -0.491130       -13.3643 
  63   2.0000      -0.485763       -13.2183 
  64   2.0000      -0.480016       -13.0619 
  65   2.0000      -0.476899       -12.9771 
  66   2.0000      -0.475626       -12.9425 
  67   2.0000      -0.469803       -12.7840 
  68   2.0000      -0.468792       -12.7565 
  69   2.0000      -0.464360       -12.6359 
  70   2.0000      -0.461221       -12.5504 
  71   2.0000      -0.456510       -12.4223 
  72   2.0000      -0.452948       -12.3253 
  73   2.0000      -0.452080       -12.3017 
  74   2.0000      -0.438624       -11.9356 
  75   2.0000      -0.434130       -11.8133 
  76   2.0000      -0.431664       -11.7462 
  77   2.0000      -0.430792       -11.7224 
  78   2.0000      -0.401475       -10.9247 
  79   2.0000      -0.395066       -10.7503 
  80   2.0000      -0.393405       -10.7051 
  81   2.0000      -0.388836       -10.5808 
  82   2.0000      -0.386448       -10.5158 
  83   2.0000      -0.379860       -10.3365 
  84   2.0000      -0.366699        -9.9784 
  85   2.0000      -0.342206        -9.3119 
  86   2.0000      -0.340588        -9.2679 
  87   2.0000      -0.331805        -9.0289 
  88   2.0000      -0.312339        -8.4992 
  89   2.0000      -0.308782        -8.4024 
  90   2.0000      -0.280254        -7.6261 
  91   2.0000      -0.274509        -7.4698 
  92   2.0000      -0.252200        -6.8627 
  93   2.0000      -0.230431        -6.2703 
  94   2.0000      -0.216770        -5.8986 
  95   0.0000       0.019899         0.5415 
  96   0.0000       0.029451         0.8014 
  97   0.0000       0.035391         0.9630 
  98   0.0000       0.038485         1.0472 
  99   0.0000       0.050144         1.3645 
 100   0.0000       0.053816         1.4644 
 101   0.0000       0.055295         1.5046 
 102   0.0000       0.057042         1.5522 
 103   0.0000       0.058895         1.6026 
 104   0.0000       0.068680         1.8689 
 105   0.0000       0.074619         2.0305 
 106   0.0000       0.075273         2.0483 
 107   0.0000       0.078090         2.1249 
 108   0.0000       0.080025         2.1776 
 109   0.0000       0.083122         2.2619 
 110   0.0000       0.083731         2.2784 
 111   0.0000       0.090556         2.4642 
 112   0.0000       0.094218         2.5638 
 113   0.0000       0.099263         2.7011 
 114   0.0000       0.102585         2.7915 
 115   0.0000       0.105049         2.8585 
 116   0.0000       0.110153         2.9974 
 117   0.0000       0.111470         3.0333 
 118   0.0000       0.114861         3.1255 
 119   0.0000       0.118908         3.2356 
 120   0.0000       0.121422         3.3041 
 121   0.0000       0.123203         3.3525 
 122   0.0000       0.126762         3.4494 
 123   0.0000       0.127602         3.4722 
 124   0.0000       0.128974         3.5095 
 125   0.0000       0.130665         3.5556 
 126   0.0000       0.135382         3.6839 
 127   0.0000       0.138991         3.7821 
 128   0.0000       0.146391         3.9835 
 129   0.0000       0.148960         4.0534 
 130   0.0000       0.149743         4.0747 
 131   0.0000       0.152712         4.1555 
 132   0.0000       0.154469         4.2033 
 133   0.0000       0.157440         4.2841 
 134   0.0000       0.163122         4.4388 
 135   0.0000       0.165367         4.4999 
 136   0.0000       0.167607         4.5608 
 137   0.0000       0.172232         4.6867 
 138   0.0000       0.179268         4.8781 
 139   0.0000       0.181561         4.9405 
 140   0.0000       0.182508         4.9663 
 141   0.0000       0.183357         4.9894 
 142   0.0000       0.189217         5.1489 
 143   0.0000       0.189717         5.1625 
 144   0.0000       0.192343         5.2339 
 145   0.0000       0.197229         5.3669 
 146   0.0000       0.200872         5.4660 
 147   0.0000       0.203973         5.5504 
 148   0.0000       0.206782         5.6268 
 149   0.0000       0.208319         5.6687 
 150   0.0000       0.211333         5.7507 
 151   0.0000       0.217178         5.9097 
 152   0.0000       0.219916         5.9842 
 153   0.0000       0.223954         6.0941 
 154   0.0000       0.226399         6.1606 
 155   0.0000       0.227303         6.1852 
 156   0.0000       0.229095         6.2340 
 157   0.0000       0.234908         6.3922 
 158   0.0000       0.237432         6.4609 
 159   0.0000       0.242000         6.5852 
 160   0.0000       0.244577         6.6553 
 161   0.0000       0.245741         6.6870 
 162   0.0000       0.248407         6.7595 
 163   0.0000       0.251037         6.8311 
 164   0.0000       0.252696         6.8762 
 165   0.0000       0.253596         6.9007 
 166   0.0000       0.257961         7.0195 
 167   0.0000       0.259322         7.0565 
 168   0.0000       0.261767         7.1230 
 169   0.0000       0.263291         7.1645 
 170   0.0000       0.267399         7.2763 
 171   0.0000       0.270215         7.3529 
 172   0.0000       0.273641         7.4462 
 173   0.0000       0.276690         7.5291 
 174   0.0000       0.278177         7.5696 
 175   0.0000       0.280606         7.6357 
 176   0.0000       0.282224         7.6797 
 177   0.0000       0.283935         7.7263 
 178   0.0000       0.289120         7.8673 
 179   0.0000       0.289428         7.8757 
 180   0.0000       0.292053         7.9472 
 181   0.0000       0.292472         7.9586 
 182   0.0000       0.297436         8.0936 
 183   0.0000       0.297955         8.1078 
 184   0.0000       0.300158         8.1677 
 185   0.0000       0.301826         8.2131 
 186   0.0000       0.304169         8.2769 
 187   0.0000       0.307540         8.3686 
 188   0.0000       0.308135         8.3848 
 189   0.0000       0.309205         8.4139 
 190   0.0000       0.310201         8.4410 
 191   0.0000       0.311697         8.4817 
 192   0.0000       0.315472         8.5844 
 193   0.0000       0.317581         8.6418 
 194   0.0000       0.321492         8.7483 
 195   0.0000       0.323468         8.8020 
 196   0.0000       0.325749         8.8641 
 197   0.0000       0.327125         8.9015 
 198   0.0000       0.328820         8.9476 
 199   0.0000       0.331339         9.0162 
 200   0.0000       0.334395         9.0993 
 201   0.0000       0.337755         9.1908 
 202   0.0000       0.338802         9.2193 
 203   0.0000       0.341171         9.2837 
 204   0.0000       0.344028         9.3615 
 205   0.0000       0.345003         9.3880 
 206   0.0000       0.346524         9.4294 
 207   0.0000       0.347210         9.4481 
 208   0.0000       0.351913         9.5760 
 209   0.0000       0.356301         9.6954 
 210   0.0000       0.358186         9.7467 
 211   0.0000       0.359679         9.7874 
 212   0.0000       0.362326         9.8594 
 213   0.0000       0.365616         9.9489 
 214   0.0000       0.368087        10.0162 
 215   0.0000       0.370391        10.0789 
 216   0.0000       0.372484        10.1358 
 217   0.0000       0.375829        10.2268 
 218   0.0000       0.377182        10.2636 
 219   0.0000       0.378529        10.3003 
 220   0.0000       0.381270        10.3749 
 221   0.0000       0.383093        10.4245 
 222   0.0000       0.383570        10.4375 
 223   0.0000       0.387344        10.5402 
 224   0.0000       0.389493        10.5987 
 225   0.0000       0.393017        10.6945 
 226   0.0000       0.397464        10.8155 
 227   0.0000       0.397777        10.8241 
 228   0.0000       0.400093        10.8871 
 229   0.0000       0.401408        10.9229 
 230   0.0000       0.405393        11.0313 
 231   0.0000       0.407432        11.0868 
 232   0.0000       0.408962        11.1284 
 233   0.0000       0.409949        11.1553 
 234   0.0000       0.410930        11.1820 
 235   0.0000       0.417182        11.3521 
 236   0.0000       0.422325        11.4921 
 237   0.0000       0.424489        11.5509 
 238   0.0000       0.424862        11.5611 
 239   0.0000       0.427098        11.6219 
 240   0.0000       0.430960        11.7270 
 241   0.0000       0.431859        11.7515 
 242   0.0000       0.435588        11.8529 
 243   0.0000       0.436277        11.8717 
 244   0.0000       0.439641        11.9632 
 245   0.0000       0.442692        12.0463 
 246   0.0000       0.444887        12.1060 
 247   0.0000       0.447392        12.1742 
 248   0.0000       0.449402        12.2288 
 249   0.0000       0.452168        12.3041 
 250   0.0000       0.453291        12.3347 
 251   0.0000       0.455766        12.4020 
 252   0.0000       0.460201        12.5227 
 253   0.0000       0.463421        12.6103 
 254   0.0000       0.464530        12.6405 
 255   0.0000       0.467351        12.7173 
 256   0.0000       0.468998        12.7621 
 257   0.0000       0.472281        12.8514 
 258   0.0000       0.473087        12.8733 
 259   0.0000       0.474725        12.9179 
 260   0.0000       0.479807        13.0562 
 261   0.0000       0.480851        13.0846 
 262   0.0000       0.484534        13.1848 
 263   0.0000       0.486754        13.2452 
 264   0.0000       0.489519        13.3205 
 265   0.0000       0.489952        13.3323 
 266   0.0000       0.493054        13.4167 
 267   0.0000       0.495041        13.4708 
 268   0.0000       0.500262        13.6128 
 269   0.0000       0.501707        13.6521 
 270   0.0000       0.503894        13.7116 
 271   0.0000       0.506935        13.7944 
 272   0.0000       0.508363        13.8333 
 273   0.0000       0.509232        13.8569 
 274   0.0000       0.512838        13.9550 
 275   0.0000       0.516281        14.0487 
 276   0.0000       0.518520        14.1097 
 277   0.0000       0.519985        14.1495 
 278   0.0000       0.523335        14.2407 
 279   0.0000       0.525256        14.2929 
 280   0.0000       0.530334        14.4311 
 281   0.0000       0.532045        14.4777 
 282   0.0000       0.535170        14.5627 
 283   0.0000       0.536701        14.6044 
 284   0.0000       0.537692        14.6314 
 285   0.0000       0.541189        14.7265 
 286   0.0000       0.543839        14.7986 
 287   0.0000       0.549595        14.9552 
 288   0.0000       0.552718        15.0402 
 289   0.0000       0.554815        15.0973 
 290   0.0000       0.558063        15.1857 
 291   0.0000       0.559475        15.2241 
 292   0.0000       0.561914        15.2905 
 293   0.0000       0.567043        15.4300 
 294   0.0000       0.569682        15.5018 
 295   0.0000       0.571498        15.5512 
 296   0.0000       0.575566        15.6620 
 297   0.0000       0.576107        15.6767 
 298   0.0000       0.579485        15.7686 
 299   0.0000       0.583096        15.8668 
 300   0.0000       0.584403        15.9024 
 301   0.0000       0.587581        15.9889 
 302   0.0000       0.590877        16.0786 
 303   0.0000       0.592716        16.1286 
 304   0.0000       0.598732        16.2923 
 305   0.0000       0.600804        16.3487 
 306   0.0000       0.603513        16.4224 
 307   0.0000       0.605636        16.4802 
 308   0.0000       0.609542        16.5865 
 309   0.0000       0.610521        16.6131 
 310   0.0000       0.614269        16.7151 
 311   0.0000       0.616775        16.7833 
 312   0.0000       0.619934        16.8693 
 313   0.0000       0.623071        16.9546 
 314   0.0000       0.624832        17.0025 
 315   0.0000       0.626044        17.0355 
 316   0.0000       0.628269        17.0961 
 317   0.0000       0.633618        17.2416 
 318   0.0000       0.636189        17.3116 
 319   0.0000       0.640738        17.4354 
 320   0.0000       0.642769        17.4906 
 321   0.0000       0.646989        17.6055 
 322   0.0000       0.649826        17.6827 
 323   0.0000       0.650906        17.7121 
 324   0.0000       0.652698        17.7608 
 325   0.0000       0.655381        17.8338 
 326   0.0000       0.656868        17.8743 
 327   0.0000       0.660520        17.9737 
 328   0.0000       0.665035        18.0965 
 329   0.0000       0.666261        18.1299 
 330   0.0000       0.669322        18.2132 
 331   0.0000       0.672322        18.2948 
 332   0.0000       0.674194        18.3458 
 333   0.0000       0.678795        18.4710 
 334   0.0000       0.680190        18.5089 
 335   0.0000       0.680988        18.5306 
 336   0.0000       0.683846        18.6084 
 337   0.0000       0.685443        18.6518 
 338   0.0000       0.689343        18.7580 
 339   0.0000       0.690061        18.7775 
 340   0.0000       0.695975        18.9384 
 341   0.0000       0.699981        19.0474 
 342   0.0000       0.700958        19.0740 
 343   0.0000       0.702822        19.1248 
 344   0.0000       0.704173        19.1615 
 345   0.0000       0.707786        19.2598 
 346   0.0000       0.709225        19.2990 
 347   0.0000       0.710050        19.3214 
 348   0.0000       0.713618        19.4185 
 349   0.0000       0.715760        19.4768 
 350   0.0000       0.719778        19.5862 
 351   0.0000       0.721537        19.6340 
 352   0.0000       0.723751        19.6943 
 353   0.0000       0.725565        19.7436 
 354   0.0000       0.727723        19.8023 
 355   0.0000       0.728697        19.8288 
 356   0.0000       0.730276        19.8718 
 357   0.0000       0.732744        19.9390 
 358   0.0000       0.734934        19.9986 
 359   0.0000       0.735376        20.0106 
 360   0.0000       0.738089        20.0844 
 361   0.0000       0.740954        20.1624 
 362   0.0000       0.743260        20.2251 
 363   0.0000       0.747408        20.3380 
 364   0.0000       0.748527        20.3684 
 365   0.0000       0.752233        20.4693 
 366   0.0000       0.754451        20.5296 
 367   0.0000       0.756952        20.5977 
 368   0.0000       0.760054        20.6821 
 369   0.0000       0.762573        20.7507 
 370   0.0000       0.764466        20.8022 
 371   0.0000       0.764852        20.8127 
 372   0.0000       0.767324        20.8800 
 373   0.0000       0.772067        21.0090 
 374   0.0000       0.774329        21.0706 
 375   0.0000       0.775970        21.1152 
 376   0.0000       0.779998        21.2248 
 377   0.0000       0.780680        21.2434 
 378   0.0000       0.782665        21.2974 
 379   0.0000       0.784472        21.3466 
 380   0.0000       0.787185        21.4204 
 381   0.0000       0.790073        21.4990 
 382   0.0000       0.792555        21.5665 
 383   0.0000       0.797261        21.6946 
 384   0.0000       0.800916        21.7940 
 385   0.0000       0.801950        21.8222 
 386   0.0000       0.807022        21.9602 
 387   0.0000       0.807924        21.9847 
 388   0.0000       0.809113        22.0171 
 389   0.0000       0.811802        22.0902 
 390   0.0000       0.812446        22.1078 
 391   0.0000       0.815907        22.2020 
 392   0.0000       0.818492        22.2723 
 393   0.0000       0.818759        22.2796 
 394   0.0000       0.824742        22.4424 
 395   0.0000       0.825708        22.4686 
 396   0.0000       0.828697        22.5500 
 397   0.0000       0.829692        22.5771 
 398   0.0000       0.835852        22.7447 
 399   0.0000       0.837618        22.7927 
 400   0.0000       0.840007        22.8578 
 401   0.0000       0.841567        22.9002 
 402   0.0000       0.844651        22.9841 
 403   0.0000       0.846550        23.0358 
 404   0.0000       0.850878        23.1536 
 405   0.0000       0.853959        23.2374 
 406   0.0000       0.857235        23.3266 
 407   0.0000       0.859049        23.3759 
 408   0.0000       0.862376        23.4664 
 409   0.0000       0.866840        23.5879 
 410   0.0000       0.867971        23.6187 
 411   0.0000       0.871141        23.7049 
 412   0.0000       0.872515        23.7423 
 413   0.0000       0.877249        23.8711 
 414   0.0000       0.879226        23.9249 
 415   0.0000       0.883519        24.0418 
 416   0.0000       0.884846        24.0779 
 417   0.0000       0.887582        24.1523 
 418   0.0000       0.889831        24.2135 
 419   0.0000       0.893168        24.3043 
 420   0.0000       0.898226        24.4420 
 421   0.0000       0.901218        24.5234 
 422   0.0000       0.904150        24.6032 
 423   0.0000       0.907590        24.6968 
 424   0.0000       0.908631        24.7251 
 425   0.0000       0.912150        24.8209 
 426   0.0000       0.913751        24.8644 
 427   0.0000       0.917230        24.9591 
 428   0.0000       0.917799        24.9746 
 429   0.0000       0.920667        25.0526 
 430   0.0000       0.925746        25.1908 
 431   0.0000       0.927574        25.2406 
 432   0.0000       0.929716        25.2989 
 433   0.0000       0.937886        25.5212 
 434   0.0000       0.940141        25.5825 
 435   0.0000       0.941796        25.6276 
 436   0.0000       0.947081        25.7714 
 437   0.0000       0.949416        25.8349 
 438   0.0000       0.952658        25.9232 
 439   0.0000       0.955487        26.0001 
 440   0.0000       0.958667        26.0867 
 441   0.0000       0.960450        26.1352 
 442   0.0000       0.969143        26.3717 
 443   0.0000       0.970687        26.4137 
 444   0.0000       0.977222        26.5916 
 445   0.0000       0.980582        26.6830 
 446   0.0000       0.985881        26.8272 
 447   0.0000       0.991529        26.9809 
 448   0.0000       0.994174        27.0528 
 449   0.0000       0.996342        27.1118 
 450   0.0000       1.000714        27.2308 
 451   0.0000       1.002969        27.2922 
 452   0.0000       1.005120        27.3507 
 453   0.0000       1.010198        27.4889 
 454   0.0000       1.016362        27.6566 
 455   0.0000       1.018756        27.7218 
 456   0.0000       1.021046        27.7841 
 457   0.0000       1.026091        27.9213 
 458   0.0000       1.029801        28.0223 
 459   0.0000       1.040616        28.3166 
 460   0.0000       1.045447        28.4481 
 461   0.0000       1.048354        28.5272 
 462   0.0000       1.054372        28.6909 
 463   0.0000       1.058096        28.7923 
 464   0.0000       1.060336        28.8532 
 465   0.0000       1.063265        28.9329 
 466   0.0000       1.071263        29.1506 
 467   0.0000       1.074729        29.2449 
 468   0.0000       1.076767        29.3003 
 469   0.0000       1.079914        29.3860 
 470   0.0000       1.085804        29.5462 
 471   0.0000       1.089472        29.6460 
 472   0.0000       1.093278        29.7496 
 473   0.0000       1.098375        29.8883 
 474   0.0000       1.105762        30.0893 
 475   0.0000       1.108437        30.1621 
 476   0.0000       1.110219        30.2106 
 477   0.0000       1.113410        30.2974 
 478   0.0000       1.118239        30.4288 
 479   0.0000       1.123755        30.5789 
 480   0.0000       1.131171        30.7807 
 481   0.0000       1.138306        30.9749 
 482   0.0000       1.140856        31.0443 
 483   0.0000       1.147035        31.2124 
 484   0.0000       1.151279        31.3279 
 485   0.0000       1.152488        31.3608 
 486   0.0000       1.162446        31.6318 
 487   0.0000       1.163466        31.6595 
 488   0.0000       1.169116        31.8133 
 489   0.0000       1.172100        31.8945 
 490   0.0000       1.173970        31.9453 
 491   0.0000       1.186209        32.2784 
 492   0.0000       1.188557        32.3423 
 493   0.0000       1.195101        32.5203 
 494   0.0000       1.197905        32.5966 
 495   0.0000       1.204940        32.7881 
 496   0.0000       1.208067        32.8732 
 497   0.0000       1.209658        32.9165 
 498   0.0000       1.217107        33.1192 
 499   0.0000       1.218590        33.1595 
 500   0.0000       1.221403        33.2361 
 501   0.0000       1.228990        33.4425 
 502   0.0000       1.241170        33.7740 
 503   0.0000       1.243446        33.8359 
 504   0.0000       1.246961        33.9315 
 505   0.0000       1.253287        34.1037 
 506   0.0000       1.254450        34.1353 
 507   0.0000       1.256462        34.1901 
 508   0.0000       1.266306        34.4579 
 509   0.0000       1.267875        34.5006 
 510   0.0000       1.274102        34.6701 
 511   0.0000       1.275845        34.7175 
 512   0.0000       1.284049        34.9407 
 513   0.0000       1.290379        35.1130 
 514   0.0000       1.294208        35.2172 
 515   0.0000       1.304195        35.4890 
 516   0.0000       1.306469        35.5508 
 517   0.0000       1.309707        35.6389 
 518   0.0000       1.315625        35.8000 
 519   0.0000       1.317726        35.8571 
 520   0.0000       1.323969        36.0270 
 521   0.0000       1.335840        36.3501 
 522   0.0000       1.340972        36.4897 
 523   0.0000       1.341581        36.5063 
 524   0.0000       1.350807        36.7573 
 525   0.0000       1.352345        36.7992 
 526   0.0000       1.353900        36.8415 
 527   0.0000       1.356000        36.8986 
 528   0.0000       1.362204        37.0675 
 529   0.0000       1.365877        37.1674 
 530   0.0000       1.369944        37.2781 
 531   0.0000       1.374368        37.3985 
 532   0.0000       1.382136        37.6098 
 533   0.0000       1.385459        37.7003 
 534   0.0000       1.390903        37.8484 
 535   0.0000       1.393621        37.9223 
 536   0.0000       1.395535        37.9744 
 537   0.0000       1.400942        38.1216 
 538   0.0000       1.405629        38.2491 
 539   0.0000       1.407515        38.3004 
 540   0.0000       1.410566        38.3835 
 541   0.0000       1.417122        38.5618 
 542   0.0000       1.420874        38.6639 
 543   0.0000       1.428249        38.8646 
 544   0.0000       1.429600        38.9014 
 545   0.0000       1.434088        39.0235 
 546   0.0000       1.438722        39.1496 
 547   0.0000       1.447417        39.3862 
 548   0.0000       1.448974        39.4286 
 549   0.0000       1.452225        39.5171 
 550   0.0000       1.458876        39.6980 
 551   0.0000       1.462042        39.7842 
 552   0.0000       1.464172        39.8422 
 553   0.0000       1.467853        39.9423 
 554   0.0000       1.470919        40.0257 
 555   0.0000       1.472134        40.0588 
 556   0.0000       1.476154        40.1682 
 557   0.0000       1.479058        40.2472 
 558   0.0000       1.484589        40.3977 
 559   0.0000       1.487927        40.4886 
 560   0.0000       1.491349        40.5817 
 561   0.0000       1.494755        40.6744 
 562   0.0000       1.496265        40.7154 
 563   0.0000       1.503619        40.9155 
 564   0.0000       1.504999        40.9531 
 565   0.0000       1.508821        41.0571 
 566   0.0000       1.512153        41.1478 
 567   0.0000       1.519249        41.3409 
 568   0.0000       1.526820        41.5469 
 569   0.0000       1.531543        41.6754 
 570   0.0000       1.532332        41.6969 
 571   0.0000       1.534225        41.7484 
 572   0.0000       1.538834        41.8738 
 573   0.0000       1.543306        41.9955 
 574   0.0000       1.549183        42.1554 
 575   0.0000       1.552309        42.2405 
 576   0.0000       1.553621        42.2762 
 577   0.0000       1.561099        42.4797 
 578   0.0000       1.563662        42.5494 
 579   0.0000       1.565029        42.5866 
 580   0.0000       1.571038        42.7501 
 581   0.0000       1.572158        42.7806 
 582   0.0000       1.577087        42.9147 
 583   0.0000       1.586012        43.1576 
 584   0.0000       1.588964        43.2379 
 585   0.0000       1.591872        43.3170 
 586   0.0000       1.593819        43.3700 
 587   0.0000       1.601907        43.5901 
 588   0.0000       1.604150        43.6512 
 589   0.0000       1.605362        43.6841 
 590   0.0000       1.609798        43.8048 
 591   0.0000       1.613503        43.9056 
 592   0.0000       1.621509        44.1235 
 593   0.0000       1.626272        44.2531 
 594   0.0000       1.627225        44.2791 
 595   0.0000       1.633159        44.4405 
 596   0.0000       1.637218        44.5510 
 597   0.0000       1.640943        44.6523 
 598   0.0000       1.647087        44.8195 
 599   0.0000       1.652553        44.9683 
 600   0.0000       1.655881        45.0588 
 601   0.0000       1.660425        45.1825 
 602   0.0000       1.669950        45.4416 
 603   0.0000       1.674314        45.5604 
 604   0.0000       1.678982        45.6874 
 605   0.0000       1.683613        45.8134 
 606   0.0000       1.687014        45.9060 
 607   0.0000       1.693007        46.0691 
 608   0.0000       1.698098        46.2076 
 609   0.0000       1.699715        46.2516 
 610   0.0000       1.703696        46.3599 
 611   0.0000       1.711096        46.5613 
 612   0.0000       1.713987        46.6400 
 613   0.0000       1.716841        46.7176 
 614   0.0000       1.720006        46.8038 
 615   0.0000       1.732229        47.1363 
 616   0.0000       1.735606        47.2282 
 617   0.0000       1.741267        47.3823 
 618   0.0000       1.742260        47.4093 
 619   0.0000       1.751548        47.6620 
 620   0.0000       1.754116        47.7319 
 621   0.0000       1.761411        47.9304 
 622   0.0000       1.768408        48.1208 
 623   0.0000       1.772727        48.2384 
 624   0.0000       1.782971        48.5171 
 625   0.0000       1.784658        48.5630 
 626   0.0000       1.788051        48.6553 
 627   0.0000       1.791743        48.7558 
 628   0.0000       1.793904        48.8146 
 629   0.0000       1.795498        48.8580 
 630   0.0000       1.805459        49.1291 
 631   0.0000       1.807014        49.1713 
 632   0.0000       1.815132        49.3922 
 633   0.0000       1.818679        49.4888 
 634   0.0000       1.820879        49.5486 
 635   0.0000       1.823708        49.6256 
 636   0.0000       1.833140        49.8823 
 637   0.0000       1.840849        50.0920 
 638   0.0000       1.842524        50.1376 
 639   0.0000       1.847917        50.2844 
 640   0.0000       1.854182        50.4548 
 641   0.0000       1.860706        50.6324 
 642   0.0000       1.862092        50.6701 
 643   0.0000       1.872003        50.9398 
 644   0.0000       1.876775        51.0697 
 645   0.0000       1.879369        51.1402 
 646   0.0000       1.881838        51.2074 
 647   0.0000       1.887588        51.3639 
 648   0.0000       1.892794        51.5055 
 649   0.0000       1.894044        51.5396 
 650   0.0000       1.902411        51.7672 
 651   0.0000       1.905472        51.8505 
 652   0.0000       1.910111        51.9768 
 653   0.0000       1.913348        52.0649 
 654   0.0000       1.921900        52.2976 
 655   0.0000       1.927233        52.4427 
 656   0.0000       1.936998        52.7084 
 657   0.0000       1.938364        52.7456 
 658   0.0000       1.944642        52.9164 
 659   0.0000       1.948238        53.0143 
 660   0.0000       1.955220        53.2042 
 661   0.0000       1.958631        53.2970 
 662   0.0000       1.960272        53.3417 
 663   0.0000       1.965157        53.4746 
 664   0.0000       1.972047        53.6621 
 665   0.0000       1.979307        53.8597 
 666   0.0000       1.982909        53.9577 
 667   0.0000       1.990968        54.1770 
 668   0.0000       1.994239        54.2660 
 669   0.0000       1.999657        54.4134 
 670   0.0000       2.003950        54.5302 
 671   0.0000       2.014362        54.8136 
 672   0.0000       2.017419        54.8968 
 673   0.0000       2.024584        55.0917 
 674   0.0000       2.028969        55.2110 
 675   0.0000       2.033895        55.3451 
 676   0.0000       2.038426        55.4684 
 677   0.0000       2.048001        55.7289 
 678   0.0000       2.053597        55.8812 
 679   0.0000       2.056667        55.9648 
 680   0.0000       2.075687        56.4823 
 681   0.0000       2.079661        56.5904 
 682   0.0000       2.082315        56.6627 
 683   0.0000       2.084868        56.7321 
 684   0.0000       2.088510        56.8313 
 685   0.0000       2.090280        56.8794 
 686   0.0000       2.097353        57.0719 
 687   0.0000       2.110239        57.4225 
 688   0.0000       2.113144        57.5016 
 689   0.0000       2.119488        57.6742 
 690   0.0000       2.124626        57.8140 
 691   0.0000       2.135419        58.1077 
 692   0.0000       2.140103        58.2352 
 693   0.0000       2.155374        58.6507 
 694   0.0000       2.159251        58.7562 
 695   0.0000       2.162161        58.8354 
 696   0.0000       2.166552        58.9549 
 697   0.0000       2.177841        59.2621 
 698   0.0000       2.195954        59.7550 
 699   0.0000       2.198693        59.8295 
 700   0.0000       2.200711        59.8844 
 701   0.0000       2.211654        60.1822 
 702   0.0000       2.217906        60.3523 
 703   0.0000       2.223468        60.5036 
 704   0.0000       2.228317        60.6356 
 705   0.0000       2.239936        60.9517 
 706   0.0000       2.260262        61.5049 
 707   0.0000       2.269993        61.7696 
 708   0.0000       2.285289        62.1859 
 709   0.0000       2.302607        62.6571 
 710   0.0000       2.308837        62.8267 
 711   0.0000       2.323498        63.2256 
 712   0.0000       2.328127        63.3515 
 713   0.0000       2.335519        63.5527 
 714   0.0000       2.337367        63.6030 
 715   0.0000       2.351316        63.9826 
 716   0.0000       2.355824        64.1052 
 717   0.0000       2.362593        64.2894 
 718   0.0000       2.367368        64.4194 
 719   0.0000       2.373982        64.5993 
 720   0.0000       2.386036        64.9273 
 721   0.0000       2.389278        65.0156 
 722   0.0000       2.397264        65.2329 
 723   0.0000       2.403600        65.4053 
 724   0.0000       2.411835        65.6294 
 725   0.0000       2.418140        65.8009 
 726   0.0000       2.419517        65.8384 
 727   0.0000       2.427018        66.0425 
 728   0.0000       2.434205        66.2381 
 729   0.0000       2.446663        66.5771 
 730   0.0000       2.453323        66.7583 
 731   0.0000       2.463948        67.0474 
 732   0.0000       2.481275        67.5189 
 733   0.0000       2.483742        67.5860 
 734   0.0000       2.492400        67.8217 
 735   0.0000       2.502407        68.0940 
 736   0.0000       2.506201        68.1972 
 737   0.0000       2.512855        68.3783 
 738   0.0000       2.519372        68.5556 
 739   0.0000       2.528132        68.7940 
 740   0.0000       2.538553        69.0775 
 741   0.0000       2.550351        69.3986 
 742   0.0000       2.551981        69.4429 
 743   0.0000       2.567464        69.8642 
 744   0.0000       2.571075        69.9625 
 745   0.0000       2.575732        70.0892 
 746   0.0000       2.581473        70.2455 
 747   0.0000       2.589107        70.4532 
 748   0.0000       2.597717        70.6875 
 749   0.0000       2.602277        70.8115 
 750   0.0000       2.610286        71.0295 
 751   0.0000       2.618707        71.2586 
 752   0.0000       2.625030        71.4307 
 753   0.0000       2.646962        72.0275 
 754   0.0000       2.647897        72.0529 
 755   0.0000       2.654202        72.2245 
 756   0.0000       2.665711        72.5377 
 757   0.0000       2.673038        72.7371 
 758   0.0000       2.715413        73.8901 
 759   0.0000       2.730747        74.3074 
 760   0.0000       2.743425        74.6524 
 761   0.0000       2.745092        74.6978 
 762   0.0000       2.750864        74.8548 
 763   0.0000       2.756382        75.0050 
 764   0.0000       2.758877        75.0728 
 765   0.0000       2.762504        75.1716 
 766   0.0000       2.784447        75.7686 
 767   0.0000       2.789073        75.8945 
 768   0.0000       2.790060        75.9214 
 769   0.0000       2.800789        76.2133 
 770   0.0000       2.814313        76.5814 
 771   0.0000       2.821424        76.7748 
 772   0.0000       2.833550        77.1048 
 773   0.0000       2.845091        77.4189 
 774   0.0000       2.848742        77.5182 
 775   0.0000       2.857762        77.7637 
 776   0.0000       2.868427        78.0539 
 777   0.0000       2.877709        78.3064 
 778   0.0000       2.895152        78.7811 
 779   0.0000       2.901612        78.9569 
 780   0.0000       2.907574        79.1191 
 781   0.0000       2.917732        79.3955 
[...]
 43 C s       :     2.664951  s :     2.664951
      pz      :     0.935302  p :     2.749458
      px      :     0.927519
      py      :     0.886636
      dz2     :     0.174160  d :     0.778841
      dxz     :     0.093771
      dyz     :     0.122857
      dx2y2   :     0.169831
      dxy     :     0.218223
      f0      :     0.005405  f :     0.032131
      f+1     :     0.001961
      f-1     :     0.004438
      f+2     :     0.005018
      f-2     :     0.004095
      f+3     :     0.005546
      f-3     :     0.005668
 44 C s       :     2.686364  s :     2.686364
      pz      :     0.949604  p :     2.825207
      px      :     0.935360
      py      :     0.940243
      dz2     :     0.116938  d :     0.480712
      dxz     :     0.044644
      dyz     :     0.102861
      dx2y2   :     0.080682
      dxy     :     0.135587
      f0      :     0.004002  f :     0.020809
      f+1     :     0.002505
      f-1     :     0.001999
      f+2     :     0.003489
      f-2     :     0.002455
      f+3     :     0.001642
      f-3     :     0.004716
 45 C s       :     2.686324  s :     2.686324
      pz      :     0.943229  p :     2.816567
      px      :     0.936445
      py      :     0.936893
      dz2     :     0.111017  d :     0.473170
      dxz     :     0.093447
      dyz     :     0.124080
      dx2y2   :     0.044840
      dxy     :     0.099787
      f0      :     0.002938  f :     0.020879
      f+1     :     0.003147
      f-1     :     0.002858
      f+2     :     0.003232
      f-2     :     0.003149
      f+3     :     0.000815
      f-3     :     0.004739
 46 H s       :     0.684104  s :     0.684104
      pz      :     0.150699  p :     0.340785
      px      :     0.113929
      py      :     0.076157
      dz2     :     0.011276  d :     0.030892
      dxz     :     0.009900
      dyz     :     0.009440
      dx2y2   :     0.000145
      dxy     :     0.000132
 47 H s       :     0.700449  s :     0.700449
      pz      :     0.082183  p :     0.288950
      px      :     0.116256
      py      :     0.090511
      dz2     :     0.004157  d :     0.030222
      dxz     :     0.006063
      dyz     :     0.003195
      dx2y2   :     0.009183
      dxy     :     0.007625
 48 H s       :     0.703644  s :     0.703644
      pz      :     0.099620  p :     0.338769
      px      :     0.139352
      py      :     0.099798
      dz2     :     0.004809  d :     0.030204
      dxz     :     0.006442
      dyz     :     0.004230
      dx2y2   :     0.007698
      dxy     :     0.007024
 49 H s       :     0.711312  s :     0.711312
      pz      :     0.087864  p :     0.307577
      px      :     0.120390
      py      :     0.099323
      dz2     :     0.002615  d :     0.029872
      dxz     :     0.006567
      dyz     :     0.003443
      dx2y2   :     0.009152
      dxy     :     0.008096
 50 H s       :     0.711541  s :     0.711541
      pz      :     0.107282  p :     0.316875
      px      :     0.084676
      py      :     0.124917
      dz2     :     0.006949  d :     0.030167
      dxz     :     0.003075
      dyz     :     0.008053
      dx2y2   :     0.005292
      dxy     :     0.006798


                      *****************************
                      * MAYER POPULATION ANALYSIS *
                      *****************************

  NA   - Mulliken gross atomic population
  ZA   - Total nuclear charge
  QA   - Mulliken gross atomic charge
  VA   - Mayer's total valence
  BVA  - Mayer's bonded valence
  FA   - Mayer's free valence

  ATOM       NA         ZA         QA         VA         BVA        FA
  0 C      5.5132     6.0000     0.4868     1.0943     1.0943     0.0000
  1 C      5.1579     6.0000     0.8421    -0.0493    -0.0493    -0.0000
  2 C      5.3596     6.0000     0.6404     0.9559     0.9559    -0.0000
  3 C      5.1787     6.0000     0.8213     1.2312     1.2312     0.0000
  4 C      6.6492     6.0000    -0.6492     3.8433     3.8433    -0.0000
  5 H      0.9473     1.0000     0.0527     1.0727     1.0727    -0.0000
  6 H      0.9047     1.0000     0.0953     1.0344     1.0344     0.0000
  7 H      0.8426     1.0000     0.1574     0.9466     0.9466     0.0000
  8 C      6.9720     6.0000    -0.9720     4.2553     4.2553    -0.0000
  9 H      0.8907     1.0000     0.1093     0.9612     0.9612    -0.0000
 10 H      0.8891     1.0000     0.1109     1.0732     1.0732     0.0000
 11 H      0.8482     1.0000     0.1518     0.9759     0.9759     0.0000
 12 C      7.0349     6.0000    -1.0349     4.3149     4.3149    -0.0000
 13 H      0.8466     1.0000     0.1534     0.9637     0.9637    -0.0000
 14 H      0.8816     1.0000     0.1184     1.0465     1.0465    -0.0000
 15 H      0.8916     1.0000     0.1084     0.9789     0.9789    -0.0000
 16 C      6.6611     6.0000    -0.6611     3.9385     3.9385    -0.0000
 17 H      0.8425     1.0000     0.1575     0.9372     0.9372    -0.0000
 18 H      0.9116     1.0000     0.0884     1.0433     1.0433    -0.0000
 19 H      0.9429     1.0000     0.0571     1.0690     1.0690    -0.0000
 20 C      6.9777     6.0000    -0.9777     3.9803     3.9803    -0.0000
 21 H      0.8737     1.0000     0.1263     0.9736     0.9736    -0.0000
 22 H      0.8934     1.0000     0.1066     0.9767     0.9767    -0.0000
 23 H      0.8810     1.0000     0.1190     0.9746     0.9746    -0.0000
 24 Ru    17.7653    16.0000    -1.7653     6.7203     6.7203    -0.0000
 25 Cl    17.6854    17.0000    -0.6854     0.6628     0.6628    -0.0000
 26 P     13.3090    15.0000     1.6910     2.1314     2.1314     0.0000
 27 C      6.9051     6.0000    -0.9051     4.1974     4.1974    -0.0000
 28 H      0.8949     1.0000     0.1051     1.1123     1.1123    -0.0000
 29 H      0.8810     1.0000     0.1190     1.0472     1.0472     0.0000
 30 H      0.8230     1.0000     0.1770     0.9944     0.9944    -0.0000
 31 C      6.7569     6.0000    -0.7569     4.1943     4.1943    -0.0000
 32 H      0.8482     1.0000     0.1518     1.0352     1.0352    -0.0000
 33 H      0.9124     1.0000     0.0876     1.0636     1.0636     0.0000
 34 H      0.9241     1.0000     0.0759     1.0758     1.0758    -0.0000
 35 C      6.5295     6.0000    -0.5295     4.1118     4.1118     0.0000
 36 H      0.8321     1.0000     0.1679     1.0243     1.0243     0.0000
 37 H      0.7840     1.0000     0.2160     0.8988     0.8988     0.0000
 38 C      5.4095     6.0000     0.5905     1.4812     1.4812     0.0000
 39 P     13.4194    15.0000     1.5806     2.2209     2.2209     0.0000
 40 H      0.8255     1.0000     0.1745     1.0041     1.0041     0.0000
 41 H      0.8637     1.0000     0.1363     1.0191     1.0191    -0.0000
 42 H      0.9104     1.0000     0.0896     1.1664     1.1664    -0.0000
 43 C      6.0832     6.0000    -0.0832     3.3778     3.3778    -0.0000
 44 C      6.8451     6.0000    -0.8451     4.1083     4.1083    -0.0000
 45 C      6.7951     6.0000    -0.7951     4.1215     4.1215    -0.0000
 46 H      0.7567     1.0000     0.2433     0.8894     0.8894     0.0000
 47 H      0.8288     1.0000     0.1712     0.9734     0.9734     0.0000
 48 H      0.8779     1.0000     0.1221     1.0341     1.0341    -0.0000
 49 H      0.8396     1.0000     0.1604     1.0167     1.0167     0.0000
 50 H      0.9022     1.0000     0.0978     1.0528     1.0528    -0.0000

  Mayer bond orders larger than 0.100000
B(  0-C ,  1-C ) :  -0.3644 B(  0-C ,  2-C ) :  -0.3961 B(  0-C ,  3-C ) :   0.3360 
B(  0-C ,  4-C ) :   0.7375 B(  0-C ,  6-H ) :  -0.1258 B(  0-C ,  7-H ) :  -0.1215 
B(  0-C ,  8-C ) :  -0.1832 B(  0-C , 12-C ) :   0.1140 B(  0-C , 24-Ru) :   0.9430 
B(  0-C , 38-C ) :   0.1544 B(  1-C ,  2-C ) :  -0.2982 B(  1-C ,  3-C ) :  -0.2733 
B(  1-C ,  4-C ) :  -0.1682 B(  1-C , 20-C ) :   0.7697 B(  1-C , 22-H ) :  -0.1804 
B(  1-C , 23-H ) :  -0.1593 B(  1-C , 24-Ru) :   0.2108 B(  1-C , 26-P ) :   0.2892 
B(  1-C , 39-P ) :   0.1231 B(  2-C ,  3-C ) :   0.7014 B(  2-C ,  8-C ) :  -0.1227 
B(  2-C , 12-C ) :   0.9475 B(  2-C , 14-H ) :  -0.1346 B(  2-C , 15-H ) :  -0.1266 
B(  2-C , 24-Ru) :   0.1420 B(  2-C , 25-Cl) :  -0.1736 B(  2-C , 38-C ) :   0.2977 
B(  3-C ,  8-C ) :   0.9225 B(  3-C ,  9-H ) :  -0.1261 B(  3-C , 10-H ) :  -0.1148 
B(  3-C , 12-C ) :  -0.1857 B(  3-C , 14-H ) :   0.1003 B(  3-C , 38-C ) :  -0.2892 
B(  4-C ,  5-H ) :   1.0546 B(  4-C ,  6-H ) :   1.0372 B(  4-C ,  7-H ) :   0.9678 
B(  4-C , 24-Ru) :   0.1225 B(  8-C ,  9-H ) :   1.0097 B(  8-C , 10-H ) :   1.0139 
B(  8-C , 11-H ) :   0.9644 B(  8-C , 12-C ) :   0.1762 B(  8-C , 24-Ru) :   0.2150 
B(  8-C , 38-C ) :   0.1089 B( 12-C , 13-H ) :   0.9695 B( 12-C , 14-H ) :   1.0030 
B( 12-C , 15-H ) :   1.0196 B( 12-C , 24-Ru) :   0.3142 B( 12-C , 38-C ) :  -0.2411 
B( 16-C , 17-H ) :   0.9826 B( 16-C , 18-H ) :   1.0494 B( 16-C , 19-H ) :   1.0550 
B( 16-C , 38-C ) :   0.7019 B( 17-H , 38-C ) :  -0.1203 B( 18-H , 38-C ) :  -0.1074 
B( 20-C , 21-H ) :   0.9860 B( 20-C , 22-H ) :   1.0706 B( 20-C , 23-H ) :   1.0442 
B( 20-C , 38-C ) :  -0.2254 B( 24-Ru, 25-Cl) :   0.8072 B( 24-Ru, 26-P ) :   0.9186 
B( 24-Ru, 27-C ) :   0.1994 B( 24-Ru, 31-C ) :   0.1354 B( 24-Ru, 38-C ) :   1.1056 
B( 24-Ru, 39-P ) :   0.9460 B( 24-Ru, 44-C ) :   0.1418 B( 24-Ru, 45-C ) :   0.1712 
B( 25-Cl, 26-P ) :  -0.2342 B( 26-P , 27-C ) :   0.6464 B( 26-P , 31-C ) :   0.6485 
B( 26-P , 35-C ) :   0.5059 B( 26-P , 39-P ) :  -0.3442 B( 26-P , 43-C ) :   0.1068 
B( 27-C , 28-H ) :   1.0606 B( 27-C , 29-H ) :   1.0423 B( 27-C , 30-H ) :   1.0005 
B( 27-C , 31-C ) :   0.1523 B( 27-C , 35-C ) :   0.1297 B( 31-C , 32-H ) :   1.0381 
B( 31-C , 33-H ) :   1.0058 B( 31-C , 34-H ) :   1.0464 B( 31-C , 35-C ) :   0.1490 
B( 35-C , 36-H ) :   0.9280 B( 35-C , 37-H ) :   0.9374 B( 35-C , 39-P ) :   0.5310 
B( 35-C , 43-C ) :   0.9092 B( 39-P , 43-C ) :   0.1582 B( 39-P , 44-C ) :   0.6615 
B( 39-P , 45-C ) :   0.5350 B( 40-H , 44-C ) :   0.9995 B( 41-H , 44-C ) :   1.0238 
B( 42-H , 44-C ) :   1.0384 B( 43-C , 45-C ) :   0.1730 B( 43-C , 46-H ) :   0.9560 
B( 43-C , 47-H ) :   0.9876 B( 44-C , 45-C ) :   0.1316 B( 45-C , 48-H ) :   1.0266 
B( 45-C , 49-H ) :   1.0191 B( 45-C , 50-H ) :   1.0369 

-------
TIMINGS
-------

Total SCF time: 0 days 0 hours 4 min 23 sec 

Total time                  ....     263.367 sec
Sum of individual times     ....     261.011 sec  ( 99.1%)

Fock matrix formation       ....     245.371 sec  ( 93.2%)
  XC integration            ....      19.577 sec  (  8.0% of F)
    Basis function eval.    ....       2.997 sec  ( 15.3% of XC)
    Density eval.           ....       8.051 sec  ( 41.1% of XC)
    XC-Functional eval.     ....       0.101 sec  (  0.5% of XC)
    XC-Potential eval.      ....       6.975 sec  ( 35.6% of XC)
Diagonalization             ....       4.525 sec  (  1.7%)
Density matrix formation    ....       0.264 sec  (  0.1%)
Population analysis         ....       0.463 sec  (  0.2%)
Initial guess               ....       3.193 sec  (  1.2%)
Orbital Transformation      ....       0.000 sec  (  0.0%)
Orbital Orthonormalization  ....       0.000 sec  (  0.0%)
DIIS solution               ....       5.017 sec  (  1.9%)
Grid generation             ....       2.177 sec  (  0.8%)


           ************************************************************
           *        Program running with 24 parallel MPI-processes    *
           *              working on a common directory               *
           ************************************************************

------------------------------------------------------------------------------
                                ORCA  MP2 
------------------------------------------------------------------------------

Freezing NCore=62 chemical core electrons

-------------
RI-MP2 ENERGY
-------------
Dimension of the basis                    ... 1322
Memory devoted to MP2                     ... 5000 MB   
Data format for buffers                   ... DOUBLE
Compression type for matrix containers    ... UNCOMPRESSED
Overall scaling of the MP2 energy         ...   2.700e-01
Calculating two index integrals           ... done (    0.077 sec)
Cholesky decomposition of V**-1           ... done (    1.136 sec)

-----------------
RI-TRANSFORMATION (AUX index driven)
-----------------

Dimension of the orbital-basis         ... 1322
Dimension of the aux-basis             ... 3274
Transformation of internal/external MOs...   31-  94 to   95-1321
Number Format for Storage              ... Double (8 Byte)
Integral mode                          ... Direct

First Phase: integral generation and transformation of MO indices
  Aux angular momentum 0               ... done (    0.747 sec)
  Aux angular momentum 1               ... done (    1.476 sec)
  Aux angular momentum 2               ... done (    1.847 sec)
  Aux angular momentum 3               ... done (    1.340 sec)
  Aux angular momentum 4               ... done (    0.660 sec)
  Aux angular momentum 5               ... done (    0.418 sec)
  Aux angular momentum 6               ... done (    0.574 sec)
Closing buffer VIA ( 1.92 GB; CompressionRatio= 1.00)
  Phase 1 completed in     7.263 sec
Second Phase: sorting and transformation of aux index

IA-Transformation
Memory available                       ... 4778 MB 
Max. # MO pairs treated in a batch     ... 3    
# of internal orbitals                 ... 64
# batches for internal orbitals        ... 1
Closing buffer IAV ( 0.09 GB; CompressionRatio= 1.00)
(ia|v) transformation done in     1.946 sec

  Phase 2 completed in     6.479 sec
RI-Integral transformation completed in    13.800 sec
Opening buffers                              ... done

Starting loop over batches of integrals:

Operator 0  - window                       ... ( 31- 94)x( 95-1321)
Operator 0  - Memory available             ...  5000 MB
Operator 0  - Memory needed per MO         ...  30.6 MB
Operator 0  - Number of orbitals per batch ... 3
Operator 0  - Number of batches            ... 1

OPERATOR  0   PASS   0:  MOs    31 ...   33 +   34 ...   36 +   37 ...   39 +   40 ...   42
                            +   43 ...   45 +   46 ...   48 +   49 ...   51 +   52 ...   54
                            +   55 ...   57 +   58 ...   60 +   61 ...   63 +   64 ...   66
                            +   67 ...   69 +   70 ...   72 +   73 ...   75 +   76 ...   78
                            +   79 ...   81 +   82 ...   84 +   85 ...   87 +   88 ...   90
                            +   91 ...   93 +   94 ...   94
  Reading integrals       ... ok
  Internal MO  33
Time spent in pair loops =     1.281 sec
Deleting buffer (Ka|jb)[aa] ...done

-----------------------------------------------
 RI-MP2 CORRELATION ENERGY:     -1.342840568 Eh
-----------------------------------------------


-------
TIMINGS
-------

Total time                :   48.151 sec
Integral trafo            :   13.817 sec ( 28.7%)
I/O of integrals          :    0.085 sec (  0.2%)
K(i,j) Operators          :    0.997 sec (  2.1%)
T(i,j) pair energies      :    0.115 sec (  0.2%)
V-calculation             :    0.077 sec (  0.2%)
V**(-1/2)                 :    1.136 sec (  2.4%)
Gamma(ia|P)               :    0.000 sec (  0.0%)
Gamma-Trafo               :    0.000 sec (  0.0%)
D(virtual)                :    0.000 sec (  0.0%)
D(internal)               :    0.000 sec (  0.0%)
W(virtual)                :    0.000 sec (  0.0%)
W(internal)               :    0.000 sec (  0.0%)
L(virtual)                :    0.000 sec (  0.0%)
L(internal)               :    0.000 sec (  0.0%)
G(D)                      :    0.000 sec (  0.0%)
G(Z)                      :    0.000 sec (  0.0%)
Z-Vector Solution         :    0.000 sec (  0.0%)
Z-Vector Solution         :    0.000 sec (  0.0%)
3-Index Derivative 
+ Separable RIJ part      :    0.000 sec (  0.0%)
2-Index Derivative 
+ Separable RIJ part      :    0.000 sec (  0.0%)
Separable Gradient (X)    :    0.000 sec (  0.0%)


---------------------------------------
MP2 TOTAL ENERGY:    -1865.613997345 Eh
---------------------------------------


-------------------------------------------------------------------------------
                          DFT DISPERSION CORRECTION                            
                                                                               
                              DFTD3 V3.1  Rev 1                                
                          USING Becke-Johnson damping                          
-------------------------------------------------------------------------------
The B2PLYP functional is recognized
Active option DFTDOPT                   ...         4   

molecular C6(AA) [au] = 29519.965825 


            DFT-D V3
 parameters
 s6 scaling factor         :     0.6400 
 a1 scaling factor         :     0.3065 
 s8 scaling factor         :     0.9147 
 a2 scaling factor         :     5.0570 
 ad hoc parameters k1-k3   :    16.0000     1.3333    -4.0000 

 Edisp/kcal,au: -45.145093655594  -0.071943278478 
 E6   /kcal   : -23.552655636 
 E8   /kcal   : -21.592438020 
 % E8         :  47.828980453 

-------------------------   ----------------
Dispersion correction           -0.071943278
-------------------------   ----------------


-------------------------   --------------------
FINAL SINGLE POINT ENERGY     -1865.685940623385
-------------------------   --------------------


                            ***************************************
                            *     ORCA property calculations      *
                            ***************************************


  WARNING: The energy has been calculated at the MP2 level but the densities
           used in the property calculations are still SCF densities
           MP2 response densities have not been calculated 
           use %mp2 Density relaxed end
           or  %mp2 Density unrelaxed end

                                    ---------------------
                                    Active property flags
                                    ---------------------
   (+) Dipole Moment


------------------------------------------------------------------------------
                       ORCA ELECTRIC PROPERTIES CALCULATION
------------------------------------------------------------------------------

Dipole Moment Calculation                       ... on
Quadrupole Moment Calculation                   ... off
Polarizability Calculation                      ... off
GBWName                                         ... MOR33_pr28.gbw
Electron density file                           ... MOR33_pr28.scfp
The origin for moment calculation is the CENTER OF MASS  = ( 0.007976, -0.006902 -0.069662)

-------------
DIPOLE MOMENT
-------------
                                X             Y             Z
Electronic contribution:     11.96533      -1.42703     -17.60840
Nuclear contribution   :    -12.48154       1.60484      19.54441
                        -----------------------------------------
Total Dipole Moment    :     -0.51621       0.17781       1.93601
                        -----------------------------------------
Magnitude (a.u.)       :      2.01152
Magnitude (Debye)      :      5.11288



--------------------
Rotational spectrum 
--------------------
 
Rotational constants in cm-1:     0.010225     0.008868     0.007900 
Rotational constants in MHz :   306.523373   265.843264   236.824033 

 Dipole components along the rotational axes: 
x,y,z [a.u.] :    -0.463807    -0.204065     1.946651 
x,y,z [Debye]:    -1.178904    -0.518691     4.947994 

 

Timings for individual modules:

Sum of individual times         ...      321.747 sec (=   5.362 min)
GTO integral calculation        ...        8.664 sec (=   0.144 min)   2.7 %
SCF iterations                  ...      263.835 sec (=   4.397 min)  82.0 %
MP2 module                      ...       49.248 sec (=   0.821 min)  15.3 %
                             ****ORCA TERMINATED NORMALLY****
TOTAL RUN TIME: 0 days 0 hours 5 minutes 22 seconds 528 msec
