
                                 *****************
                                 * O   R   C   A *
                                 *****************

           --- An Ab Initio, DFT and Semiempirical electronic structure package ---

                  #######################################################
                  #                        -***-                        #
                  #          Department of theory and spectroscopy      #
                  #               Directorship: Frank Neese             #
                  #        Max Planck Institute fuer Kohlenforschung    #
                  #                Kaiser Wilhelm Platz 1               #
                  #                 D-45470 Muelheim/Ruhr               #
                  #                      Germany                        #
                  #                                                     #
                  #                  All rights reserved                #
                  #                        -***-                        #
                  #######################################################


                         Program Version 4.2.0 -  RELEASE  -


 With contributions from (in alphabetic order):
   Daniel Aravena         : Magnetic Suceptibility
   Michael Atanasov       : Ab Initio Ligand Field Theory (pilot matlab implementation)
   Alexander A. Auer      : GIAO ZORA, VPT2
   Ute Becker             : Parallelization
   Giovanni Bistoni       : ED, misc. LED, open-shell LED, HFLED
   Martin Brehm           : Molecular dynamics
   Dmytro Bykov           : SCF Hessian
   Vijay G. Chilkuri      : MRCI spin determinant printing, contributions to CSF-ICE
   Dipayan Datta          : RHF DLPNO-CCSD density
   Achintya Kumar Dutta   : EOM-CC, STEOM-CC
   Dmitry Ganyushin       : Spin-Orbit,Spin-Spin,Magnetic field MRCI
   Miquel Garcia          : C-PCM Hessian, Gaussian charge scheme
   Yang Guo               : DLPNO-NEVPT2, CIM, IAO-localization
   Andreas Hansen         : Spin unrestricted coupled pair/coupled cluster methods
   Benjamin Helmich-Paris : CASSCF linear response (MC-RPA)
   Lee Huntington         : MR-EOM, pCC
   Robert Izsak           : Overlap fitted RIJCOSX, COSX-SCS-MP3, EOM
   Christian Kollmar      : KDIIS, OOCD, Brueckner-CCSD(T), CCSD density
   Simone Kossmann        : Meta GGA functionals, TD-DFT gradient, OOMP2, MP2 Hessian
   Martin Krupicka        : AUTO-CI
   Lucas Lang             : DCDCAS
   Dagmar Lenk            : GEPOL surface, SMD
   Dimitrios Liakos       : Extrapolation schemes; Compound Job, initial MDCI parallelization
   Dimitrios Manganas     : Further ROCIS development; embedding schemes
   Dimitrios Pantazis     : SARC Basis sets
   Taras Petrenko         : DFT Hessian,TD-DFT gradient, ASA, ECA, R-Raman, ABS, FL, XAS/XES, NRVS
   Peter Pinski           : DLPNO-MP2, DLPNO-MP2 Gradient
   Christoph Reimann      : Effective Core Potentials
   Marius Retegan         : Local ZFS, SOC
   Christoph Riplinger    : Optimizer, TS searches, QM/MM, DLPNO-CCSD(T), (RO)-DLPNO pert. Triples
   Tobias Risthaus        : Range-separated hybrids, TD-DFT gradient, RPA, STAB
   Michael Roemelt        : Original ROCIS implementation
   Masaaki Saitow         : Open-shell DLPNO-CCSD energy and density
   Barbara Sandhoefer     : DKH picture change effects
   Avijit Sen             : IP-ROCIS
   Kantharuban Sivalingam : CASSCF convergence, NEVPT2, FIC-MRCI
   Bernardo de Souza      : ESD, SOC TD-DFT
   Georgi Stoychev        : AutoAux, RI-MP2 NMR
   Willem Van den Heuvel  : Paramagnetic NMR
   Boris Wezisla          : Elementary symmetry handling
   Frank Wennmohs         : Technical directorship


 We gratefully acknowledge several colleagues who have allowed us to
 interface, adapt or use parts of their codes:
   Stefan Grimme, W. Hujo, H. Kruse,             : VdW corrections, initial TS optimization,
                  C. Bannwarth                     DFT functionals, gCP, sTDA/sTD-DF
   Ed Valeev, F. Pavosevic, A. Kumar             : LibInt (2-el integral package), F12 methods
   Garnet Chan, S. Sharma, J. Yang, R. Olivares  : DMRG
   Ulf Ekstrom                                   : XCFun DFT Library
   Mihaly Kallay                                 : mrcc  (arbitrary order and MRCC methods)
   Andreas Klamt, Michael Diedenhofen            : otool_cosmo (COSMO solvation model)
   Jiri Pittner, Ondrej Demel                    : Mk-CCSD
   Frank Weinhold                                : gennbo (NPA and NBO analysis)
   Christopher J. Cramer and Donald G. Truhlar   : smd solvation model
   Lars Goerigk                                  : TD-DFT with DH, B97 family of functionals
   V. Asgeirsson, H. Jonsson                     : NEB implementation
   FAccTs GmbH                                   : IRC, NEB, NEB-TS, Multilevel, MM, QM/MM, CI optimization
   S Lehtola, MJT Oliveira, MAL Marques          : LibXC Library


 Your calculation uses the libint2 library for the computation of 2-el integrals
 For citations please refer to: http://libint.valeyev.net

 Your ORCA version has been built with support for libXC version: 4.2.3
 For citations please refer to: https://tddft.org/programs/libxc/

 This ORCA versions uses:
   CBLAS   interface :  Fast vector & matrix operations
   LAPACKE interface :  Fast linear algebra routines
   SCALAPACK package :  Parallel linear algebra routines


Your calculation utilizes the atom-pairwise dispersion correction
with the Becke-Johnson damping scheme (D3BJ)
Cite in your paper:
S.Grimme, S.Ehrlich, L.Goerigk, J Comput Chem, (2011), 32, 1456–1465 
S.Grimme, J.Antony, S.Ehrlich and H.Krieg, J.Chem.Phys., 132, (2010), 154104 
   

----- Orbital basis set information -----
Your calculation utilizes the basis: def2-TZVPPD
   F. Weigend and R. Ahlrichs, Phys. Chem. Chem. Phys. 7, 3297 (2005).
   D. Rappoport and F. Furche, J. Chem. Phys. 133 134105 (2010).

----- AuxC basis set information -----
Your calculation utilizes the auxiliary basis: def2-TZVPPD/C
   A. Hellweg, C. Hattig, S. Hofener and W. Klopper, Theor. Chem. Acc. 117, 587 (2007).

----- AuxJK basis set information -----
Your calculation utilizes the auxiliary basis: def2/JK
   H-Ba, Hf-Rn: F. Weigend, J. Comput. Chem. 29, 167 (2008).

cite the ECPs for Ir [Def2-ECP] as follows:
Ce-Yb(ecp-28): M. Dolg, H. Stoll, H.Preuss, J. Chem. Phys., 1989, 90, 1730-1734.
Y-Cd(ecp-28), Hf-Hg(ecp-46): D. Andrae,U. Haeussermann, M. Dolg, H. Stoll, H. Preuss, Theor. Chim. Acta, 1990, 77, 123-141.
In-Sb(ecp-28), Tl-Bi(ecp-46): B. Metz, H. Stoll, M. Dolg, J. Chem. Phys., 2000, 113, 2563-2569.
Te-Xe(ecp-28), Po-Rn(ecp-46): K. A. Peterson, D. Figgen, E. Goll, H. Stoll, M. Dolg, J. Chem. Phys., 2003, 119, 11113-11123.
Rb(ecp-28), Cs(ecp-46): T. Leininger, A. Nicklass, W. Kuechle, H. Stoll, M. Dolg, A. Bergner, Chem. Phys. Lett., 1996, 255, 274-280.
Sr(ecp-28), Ba(ecp-46): M. Kaupp, P. V. Schleyer, H. Stoll and H. Preuss, J. Chem. Phys., 1991, 94, 1360-1366.
La(ecp-46): M. Dolg, H. Stoll, A. Savin, H. Preuss, Theor. Chim. Acta, 1989, 75, 173-194.
Lu(ecp-28): X. Cao, M. Dolg, J. Chem. Phys., 2001, 115, 7348-7355.

ECP parameters for Ir [Def2-ECP] have been obtained from:
TURBOMOLE (7.0.2)

================================================================================
                                        WARNINGS
                       Please study these warnings very carefully!
================================================================================


WARNING: No MP2 level density has been requested!
         To caclulate MP2 level properties use
         %mp2 Density relaxed end
         or
         %mp2 Density unrelaxed end
         Otherwise for double-hybrid DFT only the energy is correct!

WARNING: The frozen-core approximation is turned on by default for 
         the MP2 part of double-hybrid DFT.

INFO   : the flag for use of LIBINT has been found!

================================================================================
                                       INPUT FILE
================================================================================
NAME = MOR31_pr20.in
|  1> #
|  2> # MOR31_pr20 ri-B2PLYP-D3BJ/Def2-TZVPPD
|  3> #
|  4> ! rijk ri-b2plyp d3bj def2-tzvppd def2/jk def2-tzvppd/c grid4 nofinalgrid
|  5> 
|  6> *xyz 0 1
|  7> Ir       0.002477   -0.015286    0.083430 
|  8> P       -2.348177   -0.226580   -0.058132 
|  9> C       -2.872702   -1.550327   -1.188803 
| 10> C       -3.160695   -0.601199    1.533451 
| 11> H       -2.768983   -1.545856    1.920385 
| 12> H       -3.035053    2.092169    0.038161 
| 13> H       -4.244853   -0.682241    1.406776 
| 14> H       -2.786362    1.529395   -1.637172 
| 15> H       -3.965660   -1.602102   -1.229325 
| 16> H       -2.934726    0.195116    2.248250 
| 17> C       -3.202684    1.268779   -0.660861 
| 18> H       -2.461852   -1.335119   -2.177902 
| 19> H       -4.277134    1.082313   -0.755690 
| 20> H       -2.448990   -2.494963   -0.841403 
| 21> P        2.371733   -0.033051   -0.048079 
| 22> C        3.118147   -1.146577    1.190097 
| 23> C        2.988864   -0.646513   -1.645491 
| 24> H        2.993037    2.252530   -0.586719 
| 25> H        4.326367    1.397945    0.228668 
| 26> H        2.927925    1.991387    1.168046 
| 27> C        3.242996    1.555288    0.216058 
| 28> H        4.081131   -0.719105   -1.623165 
| 29> H        2.539412   -1.627874   -1.816909 
| 30> H        4.198017   -1.226939    1.030710 
| 31> H        2.645385   -2.126625    1.084325 
| 32> H        2.665924    0.027013   -2.441495 
| 33> H        2.928294   -0.762471    2.196181 
| 34> C        0.041875   -0.376924    1.901008 
| 35> O        0.060916   -0.624538    3.028225 
| 36> Cl       0.274891   -2.517433   -0.343637 
| 37> C       -0.190594    2.003978    0.494123 
| 38> O       -0.529496    2.399253    1.599170 
| 39> Cl      -0.136178    0.364638   -2.291447 
| 40> C        0.062980    3.028488   -0.607541 
| 41> H        0.210382    4.010245   -0.149220 
| 42> H       -0.815546    3.056386   -1.260585 
| 43> H        0.900599    2.750150   -1.247819 
| 44> *
| 45> 
| 46> %maxcore 5000
| 47> 
| 48> %pal
| 49> nprocs = 24
| 50> end
| 51> 
| 52> 
| 53>                          ****END OF INPUT****
================================================================================

                       ****************************
                       * Single Point Calculation *
                       ****************************

---------------------------------
CARTESIAN COORDINATES (ANGSTROEM)
---------------------------------
  Ir     0.002477   -0.015286    0.083430
  P     -2.348177   -0.226580   -0.058132
  C     -2.872702   -1.550327   -1.188803
  C     -3.160695   -0.601199    1.533451
  H     -2.768983   -1.545856    1.920385
  H     -3.035053    2.092169    0.038161
  H     -4.244853   -0.682241    1.406776
  H     -2.786362    1.529395   -1.637172
  H     -3.965660   -1.602102   -1.229325
  H     -2.934726    0.195116    2.248250
  C     -3.202684    1.268779   -0.660861
  H     -2.461852   -1.335119   -2.177902
  H     -4.277134    1.082313   -0.755690
  H     -2.448990   -2.494963   -0.841403
  P      2.371733   -0.033051   -0.048079
  C      3.118147   -1.146577    1.190097
  C      2.988864   -0.646513   -1.645491
  H      2.993037    2.252530   -0.586719
  H      4.326367    1.397945    0.228668
  H      2.927925    1.991387    1.168046
  C      3.242996    1.555288    0.216058
  H      4.081131   -0.719105   -1.623165
  H      2.539412   -1.627874   -1.816909
  H      4.198017   -1.226939    1.030710
  H      2.645385   -2.126625    1.084325
  H      2.665924    0.027013   -2.441495
  H      2.928294   -0.762471    2.196181
  C      0.041875   -0.376924    1.901008
  O      0.060916   -0.624538    3.028225
  Cl     0.274891   -2.517433   -0.343637
  C     -0.190594    2.003978    0.494123
  O     -0.529496    2.399253    1.599170
  Cl    -0.136178    0.364638   -2.291447
  C      0.062980    3.028488   -0.607541
  H      0.210382    4.010245   -0.149220
  H     -0.815546    3.056386   -1.260585
  H      0.900599    2.750150   -1.247819

----------------------------
CARTESIAN COORDINATES (A.U.)
----------------------------
  NO LB      ZA    FRAG     MASS         X           Y           Z
   0 Ir   17.0000*   0   192.220    0.004681   -0.028886    0.157660
   1 P    15.0000    0    30.974   -4.437411   -0.428174   -0.109854
   2 C     6.0000    0    12.011   -5.428620   -2.929693   -2.246512
   3 C     6.0000    0    12.011   -5.972848   -1.136101    2.897802
   4 H     1.0000    0     1.008   -5.232620   -2.921244    3.629002
   5 H     1.0000    0     1.008   -5.735419    3.953626    0.072114
   6 H     1.0000    0     1.008   -8.021610   -1.289249    2.658421
   7 H     1.0000    0     1.008   -5.265461    2.890138   -3.093807
   8 H     1.0000    0     1.008   -7.494011   -3.027534   -2.323088
   9 H     1.0000    0     1.008   -5.545828    0.368716    4.248577
  10 C     6.0000    0    12.011   -6.052196    2.397645   -1.248846
  11 H     1.0000    0     1.008   -4.652226   -2.523009   -4.115638
  12 H     1.0000    0     1.008   -8.082612    2.045275   -1.428047
  13 H     1.0000    0     1.008   -4.627920   -4.714797   -1.590021
  14 P    15.0000    0    30.974    4.481926   -0.062457   -0.090856
  15 C     6.0000    0    12.011    5.892444   -2.166717    2.248957
  16 C     6.0000    0    12.011    5.648134   -1.221733   -3.109527
  17 H     1.0000    0     1.008    5.656020    4.256665   -1.108738
  18 H     1.0000    0     1.008    8.175649    2.641733    0.432120
  19 H     1.0000    0     1.008    5.532976    3.763176    2.207287
  20 C     6.0000    0    12.011    6.128374    2.939068    0.408290
  21 H     1.0000    0     1.008    7.712220   -1.358912   -3.067337
  22 H     1.0000    0     1.008    4.798793   -3.076236   -3.433460
  23 H     1.0000    0     1.008    7.933102   -2.318579    1.947760
  24 H     1.0000    0     1.008    4.999053   -4.018739    2.049077
  25 H     1.0000    0     1.008    5.037866    0.051047   -4.613757
  26 H     1.0000    0     1.008    5.533674   -1.440861    4.150181
  27 C     6.0000    0    12.011    0.079132   -0.712283    3.592384
  28 O     8.0000    0    15.999    0.115115   -1.180206    5.722516
  29 Cl   17.0000    0    35.453    0.519469   -4.757259   -0.649380
  30 C     6.0000    0    12.011   -0.360170    3.786970    0.933757
  31 O     8.0000    0    15.999   -1.000602    4.533931    3.021993
  32 Cl   17.0000    0    35.453   -0.257339    0.689066   -4.330207
  33 C     6.0000    0    12.011    0.119015    5.723013   -1.148086
  34 H     1.0000    0     1.008    0.397564    7.578265   -0.281985
  35 H     1.0000    0     1.008   -1.541159    5.775732   -2.382160
  36 H     1.0000    0     1.008    1.701885    5.197030   -2.358036
* core charge reduced due to ECP

--------------------------------
INTERNAL COORDINATES (ANGSTROEM)
--------------------------------
 Ir     0   0   0     0.000000000000     0.00000000     0.00000000
 P      1   0   0     2.364372894024     0.00000000     0.00000000
 C      2   1   0     1.818199523120   112.89900223     0.00000000
 C      2   1   3     1.825831684842   114.11533775   120.22862626
 H      4   2   1     1.093404343758   109.04540746   300.16074091
 H      2   1   3     2.420261949919   101.19542370   217.60303487
 H      4   2   1     1.094537770181   110.79949120   179.71910316
 H      6   2   1     1.784741563769    67.72870579    91.22650876
 H      3   2   1     1.094933729900   110.20660672   180.62146784
 H      4   2   1     1.093671421674   109.17091689    59.01795514
 C      8   6   2     1.092898840635    35.26933471    42.45613674
 H      3   2   1     1.092441777655   108.12652670   301.57072454
 H     11   8   6     1.094625466037   109.70297694   120.20880048
 H      3   2   1     1.092042028239   108.66415339    58.80706591
 P      1   2   3     2.372969491132   171.36111377     9.24195166
 C     15   1   2     1.824870904762   112.04586960   261.05280406
 C     15   1   2     1.819041339373   112.94969910    18.82016911
 H     15   1   2     2.428998192172   105.10750477   117.71386421
 H     18  15   1     1.781274928498    68.80888987   155.60514391
 H     18  15   1     1.775284609356    68.47013061    90.34136478
 C     18  15   1     1.092280559185    45.16310623   123.34346216
 H     17  15   1     1.094904218655   110.05349506   185.02616987
 H     17  15   1     1.092913831621   107.52001457   305.71125652
 H     16  15   1     1.094523404827   110.45941233   173.30120396
 H     16  15   1     1.093245492528   107.72751814    52.78400007
 H     17  15   1     1.091581368608   109.38524909    63.39491688
 H     16  15   1     1.093520276859   109.80992706   293.96268213
 C      1   2   3     1.853624565960    93.57785782   240.72564542
 O     28   1   2     1.154250153895   178.83165238    70.80309522
 Cl     1   2   3     2.552907209339    90.48606828   329.06490533
 C      1   2   3     2.069630946083    90.36243508   150.83193825
 O     31   1   2     1.221566929578   121.40581580    76.72091926
 Cl     1   2   3     2.409067915176    84.13694011    58.77303726
 C     31   1   2     1.525642186908   119.76130766   258.10819006
 H     34  31   1     1.093449722527   108.82444089   196.83980871
 H     34  31   1     1.095012646966   108.32494452    77.76004486
 H     34  31   1     1.090428149256   112.35007945   321.22965901

---------------------------
INTERNAL COORDINATES (A.U.)
---------------------------
 Ir     0   0   0     0.000000000000     0.00000000     0.00000000
 P      1   0   0     4.468017248172     0.00000000     0.00000000
 C      2   1   0     3.435899155524   112.89900223     0.00000000
 C      2   1   3     3.450321850988   114.11533775   120.22862626
 H      4   2   1     2.066234763343   109.04540746   300.16074091
 H      2   1   3     4.573632257697   101.19542370   217.60303487
 H      4   2   1     2.068376628875   110.79949120   179.71910316
 H      6   2   1     3.372672775350    67.72870579    91.22650876
 H      3   2   1     2.069124884304   110.20660672   180.62146784
 H      4   2   1     2.066739467461   109.17091689    59.01795514
 C      8   6   2     2.065279500880    35.26933471    42.45613674
 H      3   2   1     2.064415777021   108.12652670   301.57072454
 H     11   8   6     2.068542350026   109.70297694   120.20880048
 H      3   2   1     2.063660360103   108.66415339    58.80706591
 P      1   2   3     4.484262462389   171.36111377     9.24195166
 C     15   1   2     3.448506239762   112.04586960   261.05280406
 C     15   1   2     3.437489957697   112.94969910    18.82016911
 H     15   1   2     4.590141362996   105.10750477   117.71386421
 H     18  15   1     3.366121784081    68.80888987   155.60514391
 H     18  15   1     3.354801721449    68.47013061    90.34136478
 C     18  15   1     2.064111118266    45.16310623   123.34346216
 H     17  15   1     2.069069116133   110.05349506   185.02616987
 H     17  15   1     2.065307829739   107.52001457   305.71125652
 H     16  15   1     2.068349482289   110.45941233   173.30120396
 H     16  15   1     2.065934578021   107.72751814    52.78400007
 H     17  15   1     2.062789839560   109.38524909    63.39491688
 H     16  15   1     2.066453845153   109.80992706   293.96268213
 C      1   2   3     3.502842784774    93.57785782   240.72564542
 O     28   1   2     2.181216680897   178.83165238    70.80309522
 Cl     1   2   3     4.824295470963    90.48606828   329.06490533
 C      1   2   3     3.911035686386    90.36243508   150.83193825
 O     31   1   2     2.308426951157   121.40581580    76.72091926
 Cl     1   2   3     4.552478597699    84.13694011    58.77303726
 C     31   1   2     2.883045911612   119.76130766   258.10819006
 H     34  31   1     2.066320516788   108.82444089   196.83980871
 H     34  31   1     2.069274015946   108.32494452    77.76004486
 H     34  31   1     2.060610570812   112.35007945   321.22965901

---------------------
BASIS SET INFORMATION
---------------------
There are 6 groups of distinct atoms

 Group   1 Type Ir  : 8s8p6d2f1g contracted to 6s5p3d2f1g pattern {311111/41111/411/11/1}
 Group   2 Type P   : 15s9p4d1f contracted to 6s5p4d1f pattern {732111/51111/1111/1}
 Group   3 Type C   : 12s6p3d1f contracted to 6s3p3d1f pattern {621111/411/111/1}
 Group   4 Type H   : 5s3p1d contracted to 3s3p1d pattern {311/111/1}
 Group   5 Type O   : 12s7p3d1f contracted to 6s4p3d1f pattern {621111/4111/111/1}
 Group   6 Type Cl  : 15s10p4d1f contracted to 6s6p4d1f pattern {732111/511111/1111/1}

Atom   0Ir   basis set group =>   1
Atom   1P    basis set group =>   2
Atom   2C    basis set group =>   3
Atom   3C    basis set group =>   3
Atom   4H    basis set group =>   4
Atom   5H    basis set group =>   4
Atom   6H    basis set group =>   4
Atom   7H    basis set group =>   4
Atom   8H    basis set group =>   4
Atom   9H    basis set group =>   4
Atom  10C    basis set group =>   3
Atom  11H    basis set group =>   4
Atom  12H    basis set group =>   4
Atom  13H    basis set group =>   4
Atom  14P    basis set group =>   2
Atom  15C    basis set group =>   3
Atom  16C    basis set group =>   3
Atom  17H    basis set group =>   4
Atom  18H    basis set group =>   4
Atom  19H    basis set group =>   4
Atom  20C    basis set group =>   3
Atom  21H    basis set group =>   4
Atom  22H    basis set group =>   4
Atom  23H    basis set group =>   4
Atom  24H    basis set group =>   4
Atom  25H    basis set group =>   4
Atom  26H    basis set group =>   4
Atom  27C    basis set group =>   3
Atom  28O    basis set group =>   5
Atom  29Cl   basis set group =>   6
Atom  30C    basis set group =>   3
Atom  31O    basis set group =>   5
Atom  32Cl   basis set group =>   6
Atom  33C    basis set group =>   3
Atom  34H    basis set group =>   4
Atom  35H    basis set group =>   4
Atom  36H    basis set group =>   4
---------------------------------
AUXILIARY/C BASIS SET INFORMATION
---------------------------------
There are 6 groups of distinct atoms

 Group   1 Type Ir  : 9s9p8d5f4g3h1i contracted to 9s9p8d5f4g3h1i pattern {111111111/111111111/11111111/11111/1111/111/1}
 Group   2 Type P   : 12s9p8d6f2g contracted to 12s9p8d6f2g pattern {111111111111/111111111/11111111/111111/11}
 Group   3 Type C   : 9s7p6d4f1g contracted to 9s7p5d4f1g pattern {111111111/1111111/21111/1111/1}
 Group   4 Type H   : 5s4p3d1f contracted to 5s4p3d1f pattern {11111/1111/111/1}
 Group   5 Type O   : 9s7p6d4f1g contracted to 9s7p5d4f1g pattern {111111111/1111111/21111/1111/1}
 Group   6 Type Cl  : 12s9p8d6f2g contracted to 12s9p8d6f2g pattern {111111111111/111111111/11111111/111111/11}

Atom   0Ir   basis set group =>   1
Atom   1P    basis set group =>   2
Atom   2C    basis set group =>   3
Atom   3C    basis set group =>   3
Atom   4H    basis set group =>   4
Atom   5H    basis set group =>   4
Atom   6H    basis set group =>   4
Atom   7H    basis set group =>   4
Atom   8H    basis set group =>   4
Atom   9H    basis set group =>   4
Atom  10C    basis set group =>   3
Atom  11H    basis set group =>   4
Atom  12H    basis set group =>   4
Atom  13H    basis set group =>   4
Atom  14P    basis set group =>   2
Atom  15C    basis set group =>   3
Atom  16C    basis set group =>   3
Atom  17H    basis set group =>   4
Atom  18H    basis set group =>   4
Atom  19H    basis set group =>   4
Atom  20C    basis set group =>   3
Atom  21H    basis set group =>   4
Atom  22H    basis set group =>   4
Atom  23H    basis set group =>   4
Atom  24H    basis set group =>   4
Atom  25H    basis set group =>   4
Atom  26H    basis set group =>   4
Atom  27C    basis set group =>   3
Atom  28O    basis set group =>   5
Atom  29Cl   basis set group =>   6
Atom  30C    basis set group =>   3
Atom  31O    basis set group =>   5
Atom  32Cl   basis set group =>   6
Atom  33C    basis set group =>   3
Atom  34H    basis set group =>   4
Atom  35H    basis set group =>   4
Atom  36H    basis set group =>   4
----------------------------------
AUXILIARY/JK BASIS SET INFORMATION
----------------------------------
There are 6 groups of distinct atoms

 Group   1 Type Ir  : 13s12p11d9f5g3h2i contracted to 11s9p9d7f4g3h2i pattern {31111111111/411111111/311111111/3111111/2111/111/11}
 Group   2 Type P   : 16s12p10d4f1g contracted to 13s11p9d4f1g pattern {4111111111111/21111111111/211111111/1111/1}
 Group   3 Type C   : 14s10p6d2f1g contracted to 10s8p5d1f1g pattern {5111111111/31111111/21111/2/1}
 Group   4 Type H   : 4s2p2d contracted to 2s2p2d pattern {31/11/11}
 Group   5 Type O   : 14s10p6d2f1g contracted to 10s8p4d2f1g pattern {5111111111/31111111/3111/11/1}
 Group   6 Type Cl  : 16s12p10d4f1g contracted to 13s11p9d4f1g pattern {4111111111111/21111111111/211111111/1111/1}

Atom   0Ir   basis set group =>   1
Atom   1P    basis set group =>   2
Atom   2C    basis set group =>   3
Atom   3C    basis set group =>   3
Atom   4H    basis set group =>   4
Atom   5H    basis set group =>   4
Atom   6H    basis set group =>   4
Atom   7H    basis set group =>   4
Atom   8H    basis set group =>   4
Atom   9H    basis set group =>   4
Atom  10C    basis set group =>   3
Atom  11H    basis set group =>   4
Atom  12H    basis set group =>   4
Atom  13H    basis set group =>   4
Atom  14P    basis set group =>   2
Atom  15C    basis set group =>   3
Atom  16C    basis set group =>   3
Atom  17H    basis set group =>   4
Atom  18H    basis set group =>   4
Atom  19H    basis set group =>   4
Atom  20C    basis set group =>   3
Atom  21H    basis set group =>   4
Atom  22H    basis set group =>   4
Atom  23H    basis set group =>   4
Atom  24H    basis set group =>   4
Atom  25H    basis set group =>   4
Atom  26H    basis set group =>   4
Atom  27C    basis set group =>   3
Atom  28O    basis set group =>   5
Atom  29Cl   basis set group =>   6
Atom  30C    basis set group =>   3
Atom  31O    basis set group =>   5
Atom  32Cl   basis set group =>   6
Atom  33C    basis set group =>   3
Atom  34H    basis set group =>   4
Atom  35H    basis set group =>   4
Atom  36H    basis set group =>   4
-------------------------
ECP PARAMETER INFORMATION
-------------------------

 Group 1, Type Ir ECP Def2-ECP (replacing 60 core electrons, lmax=3)

Atom   0Ir   ECP group =>   1



           ************************************************************
           *        Program running with 24 parallel MPI-processes    *
           *              working on a common directory               *
           ************************************************************
------------------------------------------------------------------------------
                           ORCA GTO INTEGRAL CALCULATION
                           -- RI-GTO INTEGRALS CHOSEN --
------------------------------------------------------------------------------

                         BASIS SET STATISTICS AND STARTUP INFO

Gaussian basis set:
 # of primitive gaussian shells          ...  576
 # of primitive gaussian functions       ... 1344
 # of contracted shells                  ...  375
 # of contracted basis functions         ... 1027
 Highest angular momentum                ...    4
 Maximum contraction depth               ...    7
Auxiliary gaussian basis set:
 # of primitive gaussian shells          ...  758
 # of primitive gaussian functions       ... 2314
 # of contracted shells                  ...  598
 # of contracted aux-basis functions     ... 1946
 Highest angular momentum                ...    6
 Maximum contraction depth               ...    5
Ratio of auxiliary to basis functions    ...  1.89
Integral package used                  ... LIBINT
 One Electron integrals                  
   ECP integrals                         ... done
 Ordering auxiliary basis shells         ... done
 Integral threshhold             Thresh  ...  1.000e-10
 Primitive cut-off               TCut    ...  1.000e-11
 Pre-screening matrix                    ... done
 Shell pair data                         ... 
 Ordering of the shell pairs             ... done (   0.011 sec) 56784 of 70500 pairs
 Determination of significant pairs      ... done (   0.000 sec)
 Creation of shell pair data             ... done (   0.005 sec)
 Storage of shell pair data              ... done (   0.026 sec)
 Shell pair data done in (   0.043 sec)
 Computing two index integrals           ... done
 Cholesky decomposition of the V-matrix  ... done


Timings:
 Total evaluation time                   ...   5.701 sec (  0.095 min)
 One electron matrix time                ...   4.825 sec (  0.080 min) = 84.6%
 Schwartz matrix evaluation time         ...   0.482 sec (  0.008 min) =  8.4%
 Two index repulsion integral time       ...   0.161 sec (  0.003 min) =  2.8%
 Cholesky decomposition of V             ...   0.161 sec (  0.003 min) =  2.8%
 Three index repulsion integral time     ...   0.000 sec (  0.000 min) =  0.0%



           ************************************************************
           *        Program running with 24 parallel MPI-processes    *
           *              working on a common directory               *
           ************************************************************
-------------------------------------------------------------------------------
                                 ORCA SCF
-------------------------------------------------------------------------------

------------
SCF SETTINGS
------------
Hamiltonian:
 Density Functional     Method          .... DFT(GTOs)
 Exchange Functional    Exchange        .... B88
   X-Alpha parameter    XAlpha          ....  0.666667
   Becke's b parameter  XBeta           ....  0.004200
 Correlation Functional Correlation     .... LYP
 LDA part of GGA corr.  LDAOpt          .... VWN-3
 Gradients option       PostSCFGGA      .... off
 Hybrid DFT is turned on
   Fraction HF Exchange ScalHFX         ....  0.530000
   Scaling of DF-GGA-X  ScalDFX         ....  0.470000
   Scaling of DF-GGA-C  ScalDFC         ....  0.730000
   Scaling of DF-LDA-C  ScalLDAC        ....  0.730000
   Perturbative correction              ....  0.270000
   Density functional embedding theory  .... OFF
 RI-approximation to the Coulomb term is turned on
   Number of auxiliary basis functions  .... 1946
   RI-JK (J+K treated both via RI)      .... on


General Settings:
 Integral files         IntName         .... MOR31_pr20
 Hartree-Fock type      HFTyp           .... RHF
 Total Charge           Charge          ....    0
 Multiplicity           Mult            ....    1
 Number of Electrons    NEL             ....  172
 Basis Dimension        Dim             .... 1027
 Nuclear Repulsion      ENuc            ....   2145.1218115526 Eh

Convergence Acceleration:
 DIIS                   CNVDIIS         .... on
   Start iteration      DIISMaxIt       ....    12
   Startup error        DIISStart       ....  0.200000
   # of expansion vecs  DIISMaxEq       ....     5
   Bias factor          DIISBfac        ....   1.050
   Max. coefficient     DIISMaxC        ....  10.000
 Newton-Raphson         CNVNR           .... off
 SOSCF                  CNVSOSCF        .... off
 Level Shifting         CNVShift        .... on
   Level shift para.    LevelShift      ....    0.2500
   Turn off err/grad.   ShiftErr        ....    0.0010
 Zerner damping         CNVZerner       .... off
 Static damping         CNVDamp         .... on
   Fraction old density DampFac         ....    0.7000
   Max. Damping (<1)    DampMax         ....    0.9800
   Min. Damping (>=0)   DampMin         ....    0.0000
   Turn off err/grad.   DampErr         ....    0.1000
 Fernandez-Rico         CNVRico         .... off

SCF Procedure:
 Maximum # iterations   MaxIter         ....   125
 SCF integral mode      SCFMode         .... Direct
   Integral package                     .... LIBINT
 Reset frequency        DirectResetFreq ....    20
 Integral Threshold     Thresh          ....  1.000e-10 Eh
 Primitive CutOff       TCut            ....  1.000e-11 Eh

Convergence Tolerance:
 Convergence Check Mode ConvCheckMode   .... Total+1el-Energy
 Convergence forced     ConvForced      .... 0
 Energy Change          TolE            ....  1.000e-06 Eh
 1-El. energy change                    ....  1.000e-03 Eh
 DIIS Error             TolErr          ....  1.000e-06


Diagonalization of the overlap matrix:
Smallest eigenvalue                        ... 2.474e-06
Time for diagonalization                   ...    0.168 sec
Threshold for overlap eigenvalues          ... 1.000e-08
Number of eigenvalues below threshold      ... 0
Time for construction of square roots      ...    0.140 sec
Total time needed                          ...    0.311 sec

-------------------
DFT GRID GENERATION
-------------------

General Integration Accuracy     IntAcc      ...  4.670
Radial Grid Type                 RadialGrid  ... Gauss-Chebyshev
Angular Grid (max. acc.)         AngularGrid ... Lebedev-302
Angular grid pruning method      GridPruning ... 3 (G Style)
Weight generation scheme         WeightScheme... Becke
Basis function cutoff            BFCut       ...    1.0000e-10
Integration weight cutoff        WCut        ...    1.0000e-14
Grids for H and He will be reduced by one unit

# of grid points (after initial pruning)     ... 178426 (   0.0 sec)
# of grid points (after weights+screening)   ... 155391 (   0.1 sec)
nearest neighbour list constructed           ...    0.0 sec
Grid point re-assignment to atoms done       ...    0.0 sec
Grid point division into batches done        ...    0.5 sec
Reduced shell lists constructed in    1.2 sec

Total number of grid points                  ...   155391
Total number of batches                      ...     2449
Average number of points per batch           ...       63
Average number of grid points per atom       ...     4200
Average number of shells per batch           ...   239.88 (63.97%)
Average number of basis functions per batch  ...   655.08 (63.79%)
Average number of large shells per batch     ...   182.06 (75.89%)
Average number of large basis fcns per batch ...   503.37 (76.84%)
Average number of aux-shells per batch       ...   239.88 (40.11%)
Average number of aux functions per batch    ...   655.08 (33.66%)
Maximum spatial batch extension              ...   1.70,  1.68,  1.83 au
Average spatial batch extension              ...   0.04,  0.04,  0.04 au

Time for grid setup =    1.385 sec

------------------------------
INITIAL GUESS: MODEL POTENTIAL
------------------------------
Loading Hartree-Fock densities                     ... done
  calling /sw/apps/orca/orca_4_2_0_linux_x86-64_openmpi314/orca MOR31_pr20_atom77.inp > MOR31_pr20_atom77.out in order to generate an atomic fitting density for atom 0 (Ir with ECP) on-the-fly... 
    atom 0 (Ir), assumed electronic state with S=4: 1s2 2s2 2p6 3s2 3p6 4s2 3d10 4p6 5s2 4d10 5p6 6s2 4f14 5d7           ... done
Calculating cut-offs                               ... done
Setting up the integral package                    ... done
Initializing the effective Hamiltonian             ... done
Starting the Coulomb interaction                   ... done (   0.2 sec)
Reading the grid                                   ... done
Mapping shells                                     ... done
Starting the XC term evaluation                    ... done (   0.6 sec)
  promolecular density results
     # of electrons  =    231.990510695
     EX              =   -519.807086678
     EC              =     -3.509242735
     EX+EC           =   -523.316329412
Transforming the Hamiltonian                       ... done (   0.1 sec)
Diagonalizing the Hamiltonian                      ... done (   0.1 sec)
Back transforming the eigenvectors                 ... done (   0.0 sec)
Now organizing SCF variables                       ... done
                      ------------------
                      INITIAL GUESS DONE (   3.9 sec)
                      ------------------
--------------
SCF ITERATIONS
--------------
ITER       Energy         Delta-E        Max-DP      RMS-DP      [F,P]     Damp
  0  -2206.1021017880   0.000000000000281.23425822  0.55038163  1.0540970 0.7000
  1  -2207.0011201361  -0.899018348037114.31220171  0.22035802  0.4247526 0.7000
  2  -2207.4376984904  -0.436578354333121.09765024  0.22981914  0.2058631 0.7000
                               ***Turning on DIIS***
  3  -2209.8405024585  -2.40280396811885.32551314  0.16167731  0.1152003 0.7000
  4  -2210.4317151192  -0.59121266072560.31538611  0.11371383  0.1605357 0.7000
  5  -2210.7617884304  -0.33007331118142.36085694  0.07973245  0.1748090 0.7000
  6  -2210.9976005133  -0.23581208287129.71501557  0.05587091  0.1673721 0.7000
  7  -2211.1771528324  -0.17955231913320.83230574  0.03913920  0.1516171 0.7000
  8  -2211.3180287478  -0.14087591538214.61232551  0.02742399  0.1336008 0.7000
  9  -2211.4475944063  -0.12956565844610.39065554  0.01934943  0.1145615 0.7000
 10  -2211.5271382289  -0.07954382259024.05305424  0.04496265  0.0720068 0.0000
 11  -2211.7965487105  -0.269410481670 0.13282390  0.00064544  0.0638668 0.0000
 12  -2211.8348896858  -0.038340975251 0.02831463  0.00016170  0.0215846 0.0000
 13  -2211.8392380183  -0.004348332495 0.03770515  0.00007842  0.0042341 0.0000
 14  -2211.8394281259  -0.000190107653 0.01144194  0.00002794  0.0024711 0.0000
 15  -2211.8394781151  -0.000049989147 0.02361939  0.00004286  0.0007392 0.0000
 16  -2211.8394841462  -0.000006031147 0.00918013  0.00001604  0.0006368 0.0000
 17  -2211.8394858103  -0.000001664067 0.00375940  0.00001196  0.0001759 0.0000
 18  -2211.8394859685  -0.000000158181 0.01101952  0.00001913  0.0001316 0.0000
                 **** Energy Check signals convergence ****

               *****************************************************
               *                     SUCCESS                       *
               *           SCF CONVERGED AFTER  19 CYCLES          *
               *****************************************************


----------------
TOTAL SCF ENERGY
----------------

Total Energy       :        -2211.83948604 Eh          -60187.21227 eV

Components:
Nuclear Repulsion  :         2145.12181155 Eh           58371.73205 eV
Electronic Energy  :        -4356.96129759 Eh         -118558.94433 eV
One Electron Energy:        -7358.34332990 Eh         -200230.70154 eV
Two Electron Energy:         3001.38203231 Eh           81671.75721 eV

Virial components:
Potential Energy   :        -4351.16083917 Eh         -118401.10583 eV
Kinetic Energy     :         2139.32135313 Eh           58213.89356 eV
Virial Ratio       :            2.03389773


DFT components:
N(Alpha)           :       85.999830705116 electrons
N(Beta)            :       85.999830705116 electrons
N(Total)           :      171.999661410232 electrons
E(X)               :      -85.113390355272 Eh       
E(C)               :       -4.572992653479 Eh       
E(XC)              :      -89.686383008751 Eh       
DFET-embed. en.    :        0.000000000000 Eh       

---------------
SCF CONVERGENCE
---------------

  Last Energy change         ...   -7.1702e-08  Tolerance :   1.0000e-06
  Last MAX-Density change    ...    2.6408e-03  Tolerance :   1.0000e-05
  Last RMS-Density change    ...    9.2242e-06  Tolerance :   1.0000e-06
  Last DIIS Error            ...    1.9076e-05  Tolerance :   1.0000e-06

             **** THE GBW FILE WAS UPDATED (MOR31_pr20.gbw) ****
             **** DENSITY FILE WAS UPDATED (MOR31_pr20.scfp) ****
             **** ENERGY FILE WAS UPDATED (MOR31_pr20.en.tmp) ****
             **** THE GBW FILE WAS UPDATED (MOR31_pr20.gbw) ****
             **** DENSITY FILE WAS UPDATED (MOR31_pr20.scfp) ****
----------------
ORBITAL ENERGIES
----------------

  NO   OCC          E(Eh)            E(eV) 
   0   2.0000    -102.839033     -2798.3923 
   1   2.0000    -102.820510     -2797.8883 
   2   2.0000     -78.315855     -2131.0828 
   3   2.0000     -78.315369     -2131.0695 
   4   2.0000     -19.822397      -539.3949 
   5   2.0000     -19.708724      -536.3016 
   6   2.0000     -10.774318      -293.1841 
   7   2.0000     -10.706544      -291.3399 
   8   2.0000     -10.637099      -289.4502 
   9   2.0000     -10.633950      -289.3645 
  10   2.0000     -10.630508      -289.2708 
  11   2.0000     -10.629136      -289.2335 
  12   2.0000     -10.621331      -289.0211 
  13   2.0000     -10.619774      -288.9787 
  14   2.0000     -10.608645      -288.6759 
  15   2.0000      -9.845363      -267.9060 
  16   2.0000      -9.826075      -267.3811 
  17   2.0000      -7.483256      -203.6297 
  18   2.0000      -7.480388      -203.5517 
  19   2.0000      -7.480227      -203.5473 
  20   2.0000      -7.463738      -203.0986 
  21   2.0000      -7.461229      -203.0304 
  22   2.0000      -7.461115      -203.0273 
  23   2.0000      -6.982749      -190.0103 
  24   2.0000      -6.982283      -189.9976 
  25   2.0000      -5.034165      -136.9866 
  26   2.0000      -5.033843      -136.9778 
  27   2.0000      -5.033678      -136.9733 
  28   2.0000      -5.033364      -136.9648 
  29   2.0000      -5.032403      -136.9386 
  30   2.0000      -5.031988      -136.9273 
  31   2.0000      -3.967112      -107.9506 
  32   2.0000      -2.246805       -61.1387 
  33   2.0000      -2.236353       -60.8543 
  34   2.0000      -2.230664       -60.6994 
  35   2.0000      -1.296100       -35.2687 
  36   2.0000      -1.175552       -31.9884 
  37   2.0000      -0.909140       -24.7390 
  38   2.0000      -0.905291       -24.6342 
  39   2.0000      -0.865495       -23.5513 
  40   2.0000      -0.840252       -22.8644 
  41   2.0000      -0.837777       -22.7971 
  42   2.0000      -0.823190       -22.4001 
  43   2.0000      -0.822335       -22.3769 
  44   2.0000      -0.815831       -22.1999 
  45   2.0000      -0.814216       -22.1559 
  46   2.0000      -0.697042       -18.9675 
  47   2.0000      -0.656280       -17.8583 
  48   2.0000      -0.640919       -17.4403 
  49   2.0000      -0.623111       -16.9557 
  50   2.0000      -0.590656       -16.0726 
  51   2.0000      -0.559695       -15.2301 
  52   2.0000      -0.553164       -15.0523 
  53   2.0000      -0.540331       -14.7031 
  54   2.0000      -0.536126       -14.5887 
  55   2.0000      -0.526620       -14.3301 
  56   2.0000      -0.522550       -14.2193 
  57   2.0000      -0.519567       -14.1381 
  58   2.0000      -0.518194       -14.1008 
  59   2.0000      -0.513949       -13.9853 
  60   2.0000      -0.505105       -13.7446 
  61   2.0000      -0.502377       -13.6704 
  62   2.0000      -0.493938       -13.4407 
  63   2.0000      -0.489445       -13.3185 
  64   2.0000      -0.488790       -13.3007 
  65   2.0000      -0.480704       -13.0806 
  66   2.0000      -0.472607       -12.8603 
  67   2.0000      -0.471507       -12.8304 
  68   2.0000      -0.447090       -12.1659 
  69   2.0000      -0.436877       -11.8880 
  70   2.0000      -0.429461       -11.6862 
  71   2.0000      -0.428016       -11.6469 
  72   2.0000      -0.419827       -11.4241 
  73   2.0000      -0.417740       -11.3673 
  74   2.0000      -0.412990       -11.2380 
  75   2.0000      -0.389981       -10.6119 
  76   2.0000      -0.383906       -10.4466 
  77   2.0000      -0.372080       -10.1248 
  78   2.0000      -0.366283        -9.9671 
  79   2.0000      -0.363959        -9.9038 
  80   2.0000      -0.332925        -9.0593 
  81   2.0000      -0.312167        -8.4945 
  82   2.0000      -0.304419        -8.2837 
  83   2.0000      -0.299188        -8.1413 
  84   2.0000      -0.296619        -8.0714 
  85   2.0000      -0.272751        -7.4219 
  86   0.0000       0.015515         0.4222 
  87   0.0000       0.016187         0.4405 
  88   0.0000       0.017473         0.4755 
  89   0.0000       0.022317         0.6073 
  90   0.0000       0.037293         1.0148 
  91   0.0000       0.037501         1.0205 
  92   0.0000       0.044784         1.2186 
  93   0.0000       0.049378         1.3436 
  94   0.0000       0.052331         1.4240 
  95   0.0000       0.056017         1.5243 
  96   0.0000       0.060346         1.6421 
  97   0.0000       0.064059         1.7431 
  98   0.0000       0.064330         1.7505 
  99   0.0000       0.067611         1.8398 
 100   0.0000       0.070785         1.9262 
 101   0.0000       0.074289         2.0215 
 102   0.0000       0.078093         2.1250 
 103   0.0000       0.086313         2.3487 
 104   0.0000       0.090408         2.4601 
 105   0.0000       0.093370         2.5407 
 106   0.0000       0.096693         2.6312 
 107   0.0000       0.101387         2.7589 
 108   0.0000       0.104520         2.8441 
 109   0.0000       0.107474         2.9245 
 110   0.0000       0.112213         3.0535 
 111   0.0000       0.116812         3.1786 
 112   0.0000       0.119275         3.2456 
 113   0.0000       0.122971         3.3462 
 114   0.0000       0.125416         3.4127 
 115   0.0000       0.131155         3.5689 
 116   0.0000       0.134133         3.6500 
 117   0.0000       0.135446         3.6857 
 118   0.0000       0.139339         3.7916 
 119   0.0000       0.142235         3.8704 
 120   0.0000       0.143712         3.9106 
 121   0.0000       0.146893         3.9972 
 122   0.0000       0.148160         4.0316 
 123   0.0000       0.150081         4.0839 
 124   0.0000       0.151642         4.1264 
 125   0.0000       0.154180         4.1955 
 126   0.0000       0.155961         4.2439 
 127   0.0000       0.160390         4.3644 
 128   0.0000       0.161418         4.3924 
 129   0.0000       0.164301         4.4709 
 130   0.0000       0.169282         4.6064 
 131   0.0000       0.173552         4.7226 
 132   0.0000       0.178093         4.8461 
 133   0.0000       0.182804         4.9744 
 134   0.0000       0.186517         5.0754 
 135   0.0000       0.192755         5.2451 
 136   0.0000       0.193665         5.2699 
 137   0.0000       0.199349         5.4246 
 138   0.0000       0.202591         5.5128 
 139   0.0000       0.204384         5.5616 
 140   0.0000       0.210403         5.7254 
 141   0.0000       0.216034         5.8786 
 142   0.0000       0.218591         5.9482 
 143   0.0000       0.222926         6.0661 
 144   0.0000       0.224342         6.1047 
 145   0.0000       0.230057         6.2602 
 146   0.0000       0.230631         6.2758 
 147   0.0000       0.233496         6.3537 
 148   0.0000       0.237402         6.4600 
 149   0.0000       0.244457         6.6520 
 150   0.0000       0.245268         6.6741 
 151   0.0000       0.248246         6.7551 
 152   0.0000       0.254015         6.9121 
 153   0.0000       0.255963         6.9651 
 154   0.0000       0.259732         7.0677 
 155   0.0000       0.265334         7.2201 
 156   0.0000       0.267831         7.2880 
 157   0.0000       0.270871         7.3708 
 158   0.0000       0.274071         7.4579 
 159   0.0000       0.276762         7.5311 
 160   0.0000       0.278371         7.5749 
 161   0.0000       0.285310         7.7637 
 162   0.0000       0.286739         7.8026 
 163   0.0000       0.289953         7.8900 
 164   0.0000       0.292431         7.9575 
 165   0.0000       0.294624         8.0171 
 166   0.0000       0.296185         8.0596 
 167   0.0000       0.301269         8.1979 
 168   0.0000       0.301718         8.2102 
 169   0.0000       0.303793         8.2666 
 170   0.0000       0.306963         8.3529 
 171   0.0000       0.308254         8.3880 
 172   0.0000       0.311899         8.4872 
 173   0.0000       0.314849         8.5675 
 174   0.0000       0.317872         8.6497 
 175   0.0000       0.320951         8.7335 
 176   0.0000       0.322461         8.7746 
 177   0.0000       0.325146         8.8477 
 178   0.0000       0.327763         8.9189 
 179   0.0000       0.330642         8.9972 
 180   0.0000       0.333763         9.0822 
 181   0.0000       0.334491         9.1020 
 182   0.0000       0.335736         9.1358 
 183   0.0000       0.341680         9.2976 
 184   0.0000       0.342811         9.3283 
 185   0.0000       0.345384         9.3984 
 186   0.0000       0.346761         9.4359 
 187   0.0000       0.351200         9.5566 
 188   0.0000       0.351820         9.5735 
 189   0.0000       0.355875         9.6839 
 190   0.0000       0.357692         9.7333 
 191   0.0000       0.358556         9.7568 
 192   0.0000       0.360320         9.8048 
 193   0.0000       0.365985         9.9590 
 194   0.0000       0.368365        10.0237 
 195   0.0000       0.369292        10.0490 
 196   0.0000       0.370930        10.0935 
 197   0.0000       0.376322        10.2403 
 198   0.0000       0.378627        10.3030 
 199   0.0000       0.381455        10.3799 
 200   0.0000       0.385805        10.4983 
 201   0.0000       0.388445        10.5701 
 202   0.0000       0.391783        10.6610 
 203   0.0000       0.397620        10.8198 
 204   0.0000       0.400188        10.8897 
 205   0.0000       0.403748        10.9865 
 206   0.0000       0.407623        11.0920 
 207   0.0000       0.410655        11.1745 
 208   0.0000       0.411881        11.2078 
 209   0.0000       0.413928        11.2636 
 210   0.0000       0.414853        11.2887 
 211   0.0000       0.421801        11.4778 
 212   0.0000       0.423782        11.5317 
 213   0.0000       0.434100        11.8125 
 214   0.0000       0.436715        11.8836 
 215   0.0000       0.437489        11.9047 
 216   0.0000       0.438727        11.9384 
 217   0.0000       0.440467        11.9857 
 218   0.0000       0.446323        12.1451 
 219   0.0000       0.448922        12.2158 
 220   0.0000       0.450698        12.2641 
 221   0.0000       0.452432        12.3113 
 222   0.0000       0.457758        12.4562 
 223   0.0000       0.462558        12.5869 
 224   0.0000       0.465316        12.6619 
 225   0.0000       0.466434        12.6923 
 226   0.0000       0.467260        12.7148 
 227   0.0000       0.470666        12.8075 
 228   0.0000       0.475252        12.9323 
 229   0.0000       0.479396        13.0450 
 230   0.0000       0.481180        13.0936 
 231   0.0000       0.486291        13.2326 
 232   0.0000       0.487259        13.2590 
 233   0.0000       0.489530        13.3208 
 234   0.0000       0.492712        13.4074 
 235   0.0000       0.497069        13.5259 
 236   0.0000       0.500855        13.6290 
 237   0.0000       0.502975        13.6867 
 238   0.0000       0.507432        13.8079 
 239   0.0000       0.509169        13.8552 
 240   0.0000       0.514869        14.0103 
 241   0.0000       0.517181        14.0732 
 242   0.0000       0.518654        14.1133 
 243   0.0000       0.522177        14.2092 
 244   0.0000       0.527056        14.3419 
 245   0.0000       0.530795        14.4437 
 246   0.0000       0.532093        14.4790 
 247   0.0000       0.534534        14.5454 
 248   0.0000       0.537050        14.6139 
 249   0.0000       0.541336        14.7305 
 250   0.0000       0.543397        14.7866 
 251   0.0000       0.546304        14.8657 
 252   0.0000       0.548052        14.9133 
 253   0.0000       0.551901        15.0180 
 254   0.0000       0.554672        15.0934 
 255   0.0000       0.557832        15.1794 
 256   0.0000       0.560462        15.2510 
 257   0.0000       0.566985        15.4284 
 258   0.0000       0.568148        15.4601 
 259   0.0000       0.574117        15.6225 
 260   0.0000       0.576706        15.6930 
 261   0.0000       0.585964        15.9449 
 262   0.0000       0.587468        15.9858 
 263   0.0000       0.593294        16.1444 
 264   0.0000       0.599156        16.3039 
 265   0.0000       0.601412        16.3653 
 266   0.0000       0.605192        16.4681 
 267   0.0000       0.609294        16.5797 
 268   0.0000       0.610212        16.6047 
 269   0.0000       0.615508        16.7488 
 270   0.0000       0.616230        16.7685 
 271   0.0000       0.618519        16.8308 
 272   0.0000       0.622522        16.9397 
 273   0.0000       0.624279        16.9875 
 274   0.0000       0.627748        17.0819 
 275   0.0000       0.633159        17.2291 
 276   0.0000       0.636711        17.3258 
 277   0.0000       0.640482        17.4284 
 278   0.0000       0.644784        17.5455 
 279   0.0000       0.647366        17.6157 
 280   0.0000       0.650552        17.7024 
 281   0.0000       0.651732        17.7345 
 282   0.0000       0.654663        17.8143 
 283   0.0000       0.657841        17.9008 
 284   0.0000       0.663785        18.0625 
 285   0.0000       0.668312        18.1857 
 286   0.0000       0.669044        18.2056 
 287   0.0000       0.673872        18.3370 
 288   0.0000       0.675707        18.3869 
 289   0.0000       0.681453        18.5433 
 290   0.0000       0.682103        18.5610 
 291   0.0000       0.687049        18.6955 
 292   0.0000       0.689353        18.7582 
 293   0.0000       0.693091        18.8600 
 294   0.0000       0.696164        18.9436 
 295   0.0000       0.700037        19.0490 
 296   0.0000       0.707450        19.2507 
 297   0.0000       0.709984        19.3196 
 298   0.0000       0.711071        19.3492 
 299   0.0000       0.715280        19.4638 
 300   0.0000       0.720511        19.6061 
 301   0.0000       0.721070        19.6213 
 302   0.0000       0.722183        19.6516 
 303   0.0000       0.728669        19.8281 
 304   0.0000       0.731535        19.9061 
 305   0.0000       0.733767        19.9668 
 306   0.0000       0.735909        20.0251 
 307   0.0000       0.741559        20.1789 
 308   0.0000       0.747157        20.3312 
 309   0.0000       0.747718        20.3464 
 310   0.0000       0.752052        20.4644 
 311   0.0000       0.754782        20.5386 
 312   0.0000       0.759625        20.6704 
 313   0.0000       0.760874        20.7044 
 314   0.0000       0.764401        20.8004 
 315   0.0000       0.767307        20.8795 
 316   0.0000       0.773271        21.0418 
 317   0.0000       0.774499        21.0752 
 318   0.0000       0.775937        21.1143 
 319   0.0000       0.778811        21.1925 
 320   0.0000       0.781245        21.2587 
 321   0.0000       0.784393        21.3444 
 322   0.0000       0.785998        21.3881 
 323   0.0000       0.788487        21.4558 
 324   0.0000       0.793061        21.5803 
 325   0.0000       0.796984        21.6870 
 326   0.0000       0.797893        21.7118 
 327   0.0000       0.801444        21.8084 
 328   0.0000       0.805752        21.9256 
 329   0.0000       0.809614        22.0307 
 330   0.0000       0.810668        22.0594 
 331   0.0000       0.811689        22.0872 
 332   0.0000       0.816853        22.2277 
 333   0.0000       0.817878        22.2556 
 334   0.0000       0.822531        22.3822 
 335   0.0000       0.825065        22.4512 
 336   0.0000       0.831945        22.6384 
 337   0.0000       0.834625        22.7113 
 338   0.0000       0.839088        22.8327 
 339   0.0000       0.843730        22.9590 
 340   0.0000       0.850048        23.1310 
 341   0.0000       0.852309        23.1925 
 342   0.0000       0.857420        23.3316 
 343   0.0000       0.858743        23.3676 
 344   0.0000       0.861256        23.4360 
 345   0.0000       0.862962        23.4824 
 346   0.0000       0.870686        23.6926 
 347   0.0000       0.873340        23.7648 
 348   0.0000       0.875220        23.8160 
 349   0.0000       0.879212        23.9246 
 350   0.0000       0.882771        24.0214 
 351   0.0000       0.893039        24.3008 
 352   0.0000       0.894360        24.3368 
 353   0.0000       0.899883        24.4871 
 354   0.0000       0.900236        24.4967 
 355   0.0000       0.905153        24.6305 
 356   0.0000       0.908487        24.7212 
 357   0.0000       0.910901        24.7869 
 358   0.0000       0.920172        25.0391 
 359   0.0000       0.929333        25.2884 
 360   0.0000       0.935845        25.4656 
 361   0.0000       0.937262        25.5042 
 362   0.0000       0.941379        25.6162 
 363   0.0000       0.945662        25.7328 
 364   0.0000       0.953433        25.9442 
 365   0.0000       0.956083        26.0164 
 366   0.0000       0.965135        26.2627 
 367   0.0000       0.968103        26.3434 
 368   0.0000       0.971605        26.4387 
 369   0.0000       0.977413        26.5967 
 370   0.0000       0.984317        26.7846 
 371   0.0000       0.990394        26.9500 
 372   0.0000       0.994308        27.0565 
 373   0.0000       0.996735        27.1225 
 374   0.0000       1.003862        27.3165 
 375   0.0000       1.009090        27.4587 
 376   0.0000       1.012417        27.5493 
 377   0.0000       1.014918        27.6173 
 378   0.0000       1.025683        27.9102 
 379   0.0000       1.029194        28.0058 
 380   0.0000       1.035874        28.1876 
 381   0.0000       1.037780        28.2394 
 382   0.0000       1.042310        28.3627 
 383   0.0000       1.049221        28.5508 
 384   0.0000       1.058109        28.7926 
 385   0.0000       1.060336        28.8532 
 386   0.0000       1.068365        29.0717 
 387   0.0000       1.070001        29.1162 
 388   0.0000       1.080921        29.4134 
 389   0.0000       1.086275        29.5590 
 390   0.0000       1.090353        29.6700 
 391   0.0000       1.097087        29.8532 
 392   0.0000       1.099866        29.9289 
 393   0.0000       1.103338        30.0234 
 394   0.0000       1.105870        30.0923 
 395   0.0000       1.112669        30.2773 
 396   0.0000       1.114093        30.3160 
 397   0.0000       1.128671        30.7127 
 398   0.0000       1.132079        30.8054 
 399   0.0000       1.141151        31.0523 
 400   0.0000       1.144077        31.1319 
 401   0.0000       1.153270        31.3821 
 402   0.0000       1.154221        31.4079 
 403   0.0000       1.159600        31.5543 
 404   0.0000       1.165660        31.7192 
 405   0.0000       1.172227        31.8979 
 406   0.0000       1.174873        31.9699 
 407   0.0000       1.179027        32.0830 
 408   0.0000       1.187007        32.3001 
 409   0.0000       1.195346        32.5270 
 410   0.0000       1.200605        32.6701 
 411   0.0000       1.203867        32.7589 
 412   0.0000       1.211960        32.9791 
 413   0.0000       1.219364        33.1806 
 414   0.0000       1.225014        33.3343 
 415   0.0000       1.229193        33.4480 
 416   0.0000       1.233363        33.5615 
 417   0.0000       1.234890        33.6031 
 418   0.0000       1.243934        33.8492 
 419   0.0000       1.249954        34.0130 
 420   0.0000       1.254945        34.1488 
 421   0.0000       1.265133        34.4260 
 422   0.0000       1.270704        34.5776 
 423   0.0000       1.277466        34.7616 
 424   0.0000       1.285559        34.9818 
 425   0.0000       1.287967        35.0474 
 426   0.0000       1.293472        35.1972 
 427   0.0000       1.299322        35.3563 
 428   0.0000       1.303850        35.4795 
 429   0.0000       1.311622        35.6911 
 430   0.0000       1.314719        35.7753 
 431   0.0000       1.316171        35.8148 
 432   0.0000       1.323628        36.0177 
 433   0.0000       1.333477        36.2858 
 434   0.0000       1.348407        36.6920 
 435   0.0000       1.352872        36.8135 
 436   0.0000       1.356026        36.8993 
 437   0.0000       1.363779        37.1103 
 438   0.0000       1.366697        37.1897 
 439   0.0000       1.369663        37.2704 
 440   0.0000       1.377236        37.4765 
 441   0.0000       1.382861        37.6296 
 442   0.0000       1.389300        37.8048 
 443   0.0000       1.391890        37.8753 
 444   0.0000       1.402256        38.1573 
 445   0.0000       1.406735        38.2792 
 446   0.0000       1.414814        38.4990 
 447   0.0000       1.419683        38.6315 
 448   0.0000       1.420711        38.6595 
 449   0.0000       1.430316        38.9209 
 450   0.0000       1.433980        39.0206 
 451   0.0000       1.437071        39.1047 
 452   0.0000       1.442779        39.2600 
 453   0.0000       1.445321        39.3292 
 454   0.0000       1.451480        39.4968 
 455   0.0000       1.455005        39.5927 
 456   0.0000       1.460057        39.7302 
 457   0.0000       1.463456        39.8227 
 458   0.0000       1.472644        40.0727 
 459   0.0000       1.476171        40.1687 
 460   0.0000       1.484140        40.3855 
 461   0.0000       1.490419        40.5564 
 462   0.0000       1.495901        40.7055 
 463   0.0000       1.501099        40.8470 
 464   0.0000       1.503589        40.9147 
 465   0.0000       1.509329        41.0709 
 466   0.0000       1.518176        41.3117 
 467   0.0000       1.525461        41.5099 
 468   0.0000       1.532430        41.6995 
 469   0.0000       1.535694        41.7884 
 470   0.0000       1.538558        41.8663 
 471   0.0000       1.546862        42.0922 
 472   0.0000       1.550161        42.1820 
 473   0.0000       1.555585        42.3296 
 474   0.0000       1.566670        42.6313 
 475   0.0000       1.569814        42.7168 
 476   0.0000       1.576016        42.8856 
 477   0.0000       1.581332        43.0302 
 478   0.0000       1.587883        43.2085 
 479   0.0000       1.596029        43.4302 
 480   0.0000       1.605144        43.6782 
 481   0.0000       1.609614        43.7998 
 482   0.0000       1.618562        44.0433 
 483   0.0000       1.627009        44.2732 
 484   0.0000       1.633483        44.4493 
 485   0.0000       1.641203        44.6594 
 486   0.0000       1.651230        44.9323 
 487   0.0000       1.657988        45.1161 
 488   0.0000       1.669507        45.4296 
 489   0.0000       1.680435        45.7270 
 490   0.0000       1.689361        45.9698 
 491   0.0000       1.697661        46.1957 
 492   0.0000       1.698041        46.2060 
 493   0.0000       1.704643        46.3857 
 494   0.0000       1.707702        46.4689 
 495   0.0000       1.716920        46.7198 
 496   0.0000       1.720338        46.8128 
 497   0.0000       1.728911        47.0461 
 498   0.0000       1.733120        47.1606 
 499   0.0000       1.740392        47.3585 
 500   0.0000       1.747850        47.5614 
 501   0.0000       1.749897        47.6171 
 502   0.0000       1.758529        47.8520 
 503   0.0000       1.759603        47.8812 
 504   0.0000       1.765210        48.0338 
 505   0.0000       1.769578        48.1527 
 506   0.0000       1.772824        48.2410 
 507   0.0000       1.776607        48.3439 
 508   0.0000       1.780025        48.4370 
 509   0.0000       1.785498        48.5859 
 510   0.0000       1.798184        48.9311 
 511   0.0000       1.801853        49.0309 
 512   0.0000       1.812057        49.3086 
 513   0.0000       1.817313        49.4516 
 514   0.0000       1.821799        49.5737 
 515   0.0000       1.833672        49.8967 
 516   0.0000       1.840356        50.0786 
 517   0.0000       1.849233        50.3202 
 518   0.0000       1.851953        50.3942 
 519   0.0000       1.861985        50.6672 
 520   0.0000       1.867966        50.8299 
 521   0.0000       1.881929        51.2099 
 522   0.0000       1.887857        51.3712 
 523   0.0000       1.893052        51.5126 
 524   0.0000       1.910754        51.9943 
 525   0.0000       1.925462        52.3945 
 526   0.0000       1.948381        53.0181 
 527   0.0000       1.949768        53.0559 
 528   0.0000       1.955364        53.2082 
 529   0.0000       1.961727        53.3813 
 530   0.0000       1.972612        53.6775 
 531   0.0000       1.981814        53.9279 
 532   0.0000       1.982486        53.9462 
 533   0.0000       1.987330        54.0780 
 534   0.0000       1.994902        54.2840 
 535   0.0000       1.999574        54.4112 
 536   0.0000       2.004921        54.5567 
 537   0.0000       2.013078        54.7786 
 538   0.0000       2.018352        54.9221 
 539   0.0000       2.023294        55.0566 
 540   0.0000       2.029104        55.2147 
 541   0.0000       2.033557        55.3359 
 542   0.0000       2.038625        55.4738 
 543   0.0000       2.052705        55.8569 
 544   0.0000       2.057768        55.9947 
 545   0.0000       2.060321        56.0642 
 546   0.0000       2.073723        56.4289 
 547   0.0000       2.081796        56.6485 
 548   0.0000       2.088374        56.8275 
 549   0.0000       2.096119        57.0383 
 550   0.0000       2.101547        57.1860 
 551   0.0000       2.107410        57.3456 
 552   0.0000       2.126442        57.8634 
 553   0.0000       2.132899        58.0391 
 554   0.0000       2.151805        58.5536 
 555   0.0000       2.160113        58.7797 
 556   0.0000       2.170207        59.0543 
 557   0.0000       2.183668        59.4206 
 558   0.0000       2.199350        59.8473 
 559   0.0000       2.210369        60.1472 
 560   0.0000       2.220850        60.4324 
 561   0.0000       2.224849        60.5412 
 562   0.0000       2.239053        60.9277 
 563   0.0000       2.251351        61.2624 
 564   0.0000       2.258029        61.4441 
 565   0.0000       2.259663        61.4886 
 566   0.0000       2.273152        61.8556 
 567   0.0000       2.286577        62.2209 
 568   0.0000       2.290776        62.3352 
 569   0.0000       2.294865        62.4464 
 570   0.0000       2.302396        62.6514 
 571   0.0000       2.306779        62.7707 
 572   0.0000       2.313202        62.9454 
 573   0.0000       2.314917        62.9921 
 574   0.0000       2.330950        63.4284 
 575   0.0000       2.339883        63.6715 
 576   0.0000       2.344694        63.8024 
 577   0.0000       2.347145        63.8691 
 578   0.0000       2.357629        64.1543 
 579   0.0000       2.373425        64.5842 
 580   0.0000       2.383475        64.8577 
 581   0.0000       2.390399        65.0461 
 582   0.0000       2.397859        65.2491 
 583   0.0000       2.406757        65.4912 
 584   0.0000       2.411367        65.6166 
 585   0.0000       2.422027        65.9067 
 586   0.0000       2.428987        66.0961 
 587   0.0000       2.434582        66.2484 
 588   0.0000       2.439494        66.3820 
 589   0.0000       2.452642        66.7398 
 590   0.0000       2.461769        66.9882 
 591   0.0000       2.470263        67.2193 
 592   0.0000       2.483145        67.5698 
 593   0.0000       2.498523        67.9883 
 594   0.0000       2.502519        68.0970 
 595   0.0000       2.507958        68.2450 
 596   0.0000       2.513907        68.4069 
 597   0.0000       2.519104        68.5483 
 598   0.0000       2.524756        68.7021 
 599   0.0000       2.527371        68.7733 
 600   0.0000       2.532781        68.9205 
 601   0.0000       2.536163        69.0125 
 602   0.0000       2.539571        69.1052 
 603   0.0000       2.560478        69.6741 
 604   0.0000       2.570850        69.9564 
 605   0.0000       2.581532        70.2471 
 606   0.0000       2.596931        70.6661 
 607   0.0000       2.616426        71.1966 
 608   0.0000       2.640041        71.8392 
 609   0.0000       2.650118        72.1134 
 610   0.0000       2.663458        72.4764 
 611   0.0000       2.690328        73.2075 
 612   0.0000       2.713452        73.8368 
 613   0.0000       2.714485        73.8649 
 614   0.0000       2.732015        74.3419 
 615   0.0000       2.751544        74.8733 
 616   0.0000       2.753836        74.9357 
 617   0.0000       2.772060        75.4316 
 618   0.0000       2.786563        75.8262 
 619   0.0000       2.797452        76.1225 
 620   0.0000       2.807191        76.3876 
 621   0.0000       2.829048        76.9823 
 622   0.0000       2.836393        77.1822 
 623   0.0000       2.862288        77.8868 
 624   0.0000       2.876750        78.2804 
 625   0.0000       2.893510        78.7364 
 626   0.0000       2.898667        78.8767 
 627   0.0000       2.903178        78.9995 
 628   0.0000       2.913022        79.2674 
 629   0.0000       2.920785        79.4786 
 630   0.0000       2.924550        79.5811 
 631   0.0000       2.928086        79.6773 
 632   0.0000       2.945353        80.1471 
 633   0.0000       2.946768        80.1856 
 634   0.0000       2.960314        80.5542 
 635   0.0000       2.976574        80.9967 
 636   0.0000       2.978760        81.0562 
 637   0.0000       2.981090        81.1196 
 638   0.0000       2.987610        81.2970 
 639   0.0000       2.996563        81.5406 
 640   0.0000       2.998680        81.5982 
 641   0.0000       3.005313        81.7787 
 642   0.0000       3.014215        82.0210 
 643   0.0000       3.014345        82.0245 
 644   0.0000       3.025063        82.3161 
 645   0.0000       3.031881        82.5017 
 646   0.0000       3.037892        82.6652 
 647   0.0000       3.045918        82.8837 
 648   0.0000       3.048744        82.9605 
 649   0.0000       3.050204        83.0003 
 650   0.0000       3.054673        83.1219 
 651   0.0000       3.061787        83.3155 
 652   0.0000       3.066703        83.4492 
 653   0.0000       3.074410        83.6590 
 654   0.0000       3.081942        83.8639 
 655   0.0000       3.092977        84.1642 
 656   0.0000       3.095649        84.2369 
 657   0.0000       3.103832        84.4596 
 658   0.0000       3.112167        84.6864 
 659   0.0000       3.120992        84.9265 
 660   0.0000       3.128454        85.1296 
 661   0.0000       3.140308        85.4521 
 662   0.0000       3.142720        85.5178 
 663   0.0000       3.147487        85.6475 
 664   0.0000       3.161413        86.0264 
 665   0.0000       3.166423        86.1628 
 666   0.0000       3.170215        86.2659 
 667   0.0000       3.174745        86.3892 
 668   0.0000       3.177054        86.4520 
 669   0.0000       3.180008        86.5324 
 670   0.0000       3.189547        86.7920 
 671   0.0000       3.198335        87.0311 
 672   0.0000       3.203526        87.1724 
 673   0.0000       3.207072        87.2689 
 674   0.0000       3.210426        87.3601 
 675   0.0000       3.217866        87.5626 
 676   0.0000       3.225993        87.7837 
 677   0.0000       3.230254        87.8997 
 678   0.0000       3.232082        87.9494 
 679   0.0000       3.242550        88.2343 
 680   0.0000       3.252451        88.5037 
 681   0.0000       3.255956        88.5991 
 682   0.0000       3.261084        88.7386 
 683   0.0000       3.262371        88.7736 
 684   0.0000       3.272465        89.0483 
 685   0.0000       3.275003        89.1174 
 686   0.0000       3.285247        89.3961 
 687   0.0000       3.287697        89.4628 
 688   0.0000       3.297955        89.7419 
 689   0.0000       3.307575        90.0037 
 690   0.0000       3.319827        90.3371 
 691   0.0000       3.329898        90.6111 
 692   0.0000       3.335388        90.7605 
 693   0.0000       3.341082        90.9155 
 694   0.0000       3.346302        91.0575 
 695   0.0000       3.349028        91.1317 
 696   0.0000       3.359242        91.4096 
 697   0.0000       3.366150        91.5976 
 698   0.0000       3.369484        91.6883 
 699   0.0000       3.371249        91.7363 
 700   0.0000       3.375633        91.8556 
 701   0.0000       3.385116        92.1137 
 702   0.0000       3.389695        92.2383 
 703   0.0000       3.392802        92.3228 
 704   0.0000       3.406445        92.6941 
 705   0.0000       3.420525        93.0772 
 706   0.0000       3.421427        93.1018 
 707   0.0000       3.425572        93.2145 
 708   0.0000       3.433289        93.4245 
 709   0.0000       3.439362        93.5898 
 710   0.0000       3.447325        93.8065 
 711   0.0000       3.464344        94.2696 
 712   0.0000       3.466913        94.3395 
 713   0.0000       3.470547        94.4384 
 714   0.0000       3.478002        94.6412 
 715   0.0000       3.483154        94.7814 
 716   0.0000       3.485787        94.8531 
 717   0.0000       3.493168        95.0539 
 718   0.0000       3.501399        95.2779 
 719   0.0000       3.520317        95.7927 
 720   0.0000       3.521332        95.8203 
 721   0.0000       3.530188        96.0613 
 722   0.0000       3.539583        96.3170 
 723   0.0000       3.541022        96.3561 
 724   0.0000       3.549703        96.5923 
 725   0.0000       3.566965        97.0620 
 726   0.0000       3.570588        97.1606 
 727   0.0000       3.576993        97.3349 
 728   0.0000       3.588194        97.6397 
 729   0.0000       3.596944        97.8778 
 730   0.0000       3.604059        98.0714 
 731   0.0000       3.621116        98.5356 
 732   0.0000       3.624131        98.6176 
 733   0.0000       3.627283        98.7034 
 734   0.0000       3.636041        98.9417 
 735   0.0000       3.642608        99.1204 
 736   0.0000       3.645075        99.1875 
 737   0.0000       3.656556        99.4999 
 738   0.0000       3.661911        99.6457 
 739   0.0000       3.664511        99.7164 
 740   0.0000       3.671344        99.9024 
 741   0.0000       3.677506       100.0700 
 742   0.0000       3.680496       100.1514 
 743   0.0000       3.687450       100.3406 
 744   0.0000       3.691349       100.4467 
 745   0.0000       3.693071       100.4936 
 746   0.0000       3.697844       100.6235 
 747   0.0000       3.701733       100.7293 
 748   0.0000       3.707097       100.8752 
 749   0.0000       3.714569       101.0786 
 750   0.0000       3.718019       101.1724 
 751   0.0000       3.719329       101.2081 
 752   0.0000       3.723641       101.3254 
 753   0.0000       3.733911       101.6049 
 754   0.0000       3.744800       101.9012 
 755   0.0000       3.749975       102.0420 
 756   0.0000       3.753482       102.1375 
 757   0.0000       3.765774       102.4719 
 758   0.0000       3.776228       102.7564 
 759   0.0000       3.784288       102.9757 
 760   0.0000       3.797939       103.3472 
 761   0.0000       3.801843       103.4534 
 762   0.0000       3.814726       103.8040 
 763   0.0000       3.816869       103.8623 
 764   0.0000       3.819429       103.9319 
 765   0.0000       3.823418       104.0405 
 766   0.0000       3.833256       104.3082 
 767   0.0000       3.836342       104.3922 
 768   0.0000       3.850724       104.7835 
 769   0.0000       3.860493       105.0493 
 770   0.0000       3.863089       105.1200 
 771   0.0000       3.874274       105.4243 
 772   0.0000       3.881936       105.6328 
 773   0.0000       3.885755       105.7368 
 774   0.0000       3.888187       105.8029 
 775   0.0000       3.902262       106.1860 
 776   0.0000       3.917865       106.6105 
 777   0.0000       3.925215       106.8105 
 778   0.0000       3.934009       107.0498 
 779   0.0000       3.940855       107.2361 
 780   0.0000       3.950098       107.4876 
 781   0.0000       3.952847       107.5624 
 782   0.0000       3.960940       107.7827 
 783   0.0000       3.968610       107.9914 
 784   0.0000       3.978493       108.2603 
 785   0.0000       3.982617       108.3725 
 786   0.0000       4.003138       108.9309 
 787   0.0000       4.017747       109.3285 
 788   0.0000       4.029186       109.6397 
 789   0.0000       4.040164       109.9384 
 790   0.0000       4.055228       110.3484 
 791   0.0000       4.065595       110.6305 
 792   0.0000       4.074260       110.8663 
 793   0.0000       4.077036       110.9418 
 794   0.0000       4.087603       111.2293 
 795   0.0000       4.094223       111.4095 
 796   0.0000       4.103762       111.6691 
 797   0.0000       4.111871       111.8897 
 798   0.0000       4.120968       112.1372 
 799   0.0000       4.122737       112.1854 
 800   0.0000       4.127125       112.3048 
 801   0.0000       4.139524       112.6422 
 802   0.0000       4.148880       112.8968 
 803   0.0000       4.152150       112.9858 
 804   0.0000       4.163885       113.3051 
 805   0.0000       4.166894       113.3869 
 806   0.0000       4.173595       113.5693 
 807   0.0000       4.181498       113.7843 
 808   0.0000       4.189400       113.9994 
 809   0.0000       4.193849       114.1204 
 810   0.0000       4.201652       114.3328 
 811   0.0000       4.209559       114.5479 
 812   0.0000       4.215777       114.7171 
 813   0.0000       4.220648       114.8497 
 814   0.0000       4.259192       115.8985 
 815   0.0000       4.277000       116.3831 
 816   0.0000       4.285206       116.6064 
 817   0.0000       4.285738       116.6209 
 818   0.0000       4.286696       116.6469 
 819   0.0000       4.303326       117.0994 
 820   0.0000       4.311950       117.3341 
 821   0.0000       4.313345       117.3721 
 822   0.0000       4.318822       117.5211 
 823   0.0000       4.340609       118.1140 
 824   0.0000       4.351576       118.4124 
 825   0.0000       4.360877       118.6655 
 826   0.0000       4.364252       118.7573 
 827   0.0000       4.373059       118.9970 
 828   0.0000       4.383461       119.2800 
 829   0.0000       4.385369       119.3319 
 830   0.0000       4.393523       119.5538 
 831   0.0000       4.396321       119.6300 
 832   0.0000       4.403954       119.8377 
 833   0.0000       4.416769       120.1864 
 834   0.0000       4.427809       120.4868 
 835   0.0000       4.440180       120.8234 
 836   0.0000       4.452584       121.1610 
 837   0.0000       4.459506       121.3493 
 838   0.0000       4.467144       121.5572 
 839   0.0000       4.477070       121.8273 
 840   0.0000       4.479395       121.8905 
 841   0.0000       4.483037       121.9897 
 842   0.0000       4.489045       122.1531 
 843   0.0000       4.494365       122.2979 
 844   0.0000       4.507290       122.6496 
 845   0.0000       4.512023       122.7784 
 846   0.0000       4.521741       123.0428 
 847   0.0000       4.532512       123.3359 
 848   0.0000       4.538722       123.5049 
 849   0.0000       4.547649       123.7478 
 850   0.0000       4.558512       124.0434 
 851   0.0000       4.564723       124.2124 
 852   0.0000       4.571325       124.3921 
 853   0.0000       4.580875       124.6519 
 854   0.0000       4.587021       124.8192 
 855   0.0000       4.592209       124.9604 
 856   0.0000       4.594079       125.0112 
 857   0.0000       4.607316       125.3715 
 858   0.0000       4.609512       125.4312 
 859   0.0000       4.625286       125.8604 
 860   0.0000       4.650853       126.5561 
 861   0.0000       4.698530       127.8535 
 862   0.0000       4.716768       128.3498 
 863   0.0000       4.736218       128.8790 
 864   0.0000       4.762410       129.5918 
 865   0.0000       4.765586       129.6782 
 866   0.0000       4.773188       129.8851 
 867   0.0000       4.776683       129.9802 
 868   0.0000       4.782498       130.1384 
 869   0.0000       4.784017       130.1797 
 870   0.0000       4.792408       130.4081 
 871   0.0000       4.795072       130.4805 
 872   0.0000       4.805384       130.7612 
 873   0.0000       4.812283       130.9489 
 874   0.0000       4.817457       131.0897 
 875   0.0000       4.817910       131.1020 
 876   0.0000       4.837996       131.6486 
 877   0.0000       4.844809       131.8340 
 878   0.0000       4.892397       133.1289 
 879   0.0000       4.908976       133.5800 
 880   0.0000       4.912907       133.6870 
 881   0.0000       4.916319       133.7798 
 882   0.0000       4.938642       134.3873 
 883   0.0000       4.958817       134.9363 
 884   0.0000       4.964219       135.0833 
 885   0.0000       5.024163       136.7144 
 886   0.0000       5.073363       138.0532 
 887   0.0000       5.233023       142.3978 
 888   0.0000       5.244514       142.7105 
 889   0.0000       5.251786       142.9084 
 890   0.0000       5.252676       142.9326 
[...]
      py      :     0.082430
      dz2     :     0.003090  d :     0.030050
      dxz     :     0.009184
      dyz     :     0.000291
      dx2y2   :     0.007688
      dxy     :     0.009796
 24 H s       :     0.694347  s :     0.694347
      pz      :     0.092154  p :     0.356962
      px      :     0.125828
      py      :     0.138980
      dz2     :     0.002934  d :     0.030373
      dxz     :     0.001630
      dyz     :     0.008115
      dx2y2   :     0.009644
      dxy     :     0.008050
 25 H s       :     0.701777  s :     0.701777
      pz      :     0.117628  p :     0.347582
      px      :     0.123542
      py      :     0.106412
      dz2     :     0.009009  d :     0.030475
      dxz     :     0.005351
      dyz     :     0.007383
      dx2y2   :     0.004845
      dxy     :     0.003886
 26 H s       :     0.704284  s :     0.704284
      pz      :     0.133457  p :     0.314800
      px      :     0.092224
      py      :     0.089119
      dz2     :     0.010580  d :     0.030168
      dxz     :     0.008026
      dyz     :     0.008635
      dx2y2   :     0.001647
      dxy     :     0.001281
 27 C s       :     2.898309  s :     2.898309
      pz      :     1.079091  p :     2.304076
      px      :     0.602262
      py      :     0.622723
      dz2     :     0.312425  d :     1.070985
      dxz     :     0.317249
      dyz     :     0.308261
      dx2y2   :     0.089083
      dxy     :     0.043967
      f0      :     0.034187  f :     0.099991
      f+1     :     0.027971
      f-1     :     0.029285
      f+2     :     0.003989
      f-2     :     0.004288
      f+3     :     0.000153
      f-3     :     0.000118
 28 O s       :     3.378712  s :     3.378712
      pz      :     1.572699  p :     4.307724
      px      :     1.362351
      py      :     1.372674
      dz2     :     0.104209  d :     0.193220
      dxz     :     0.037230
      dyz     :     0.044831
      dx2y2   :     0.004623
      dxy     :     0.002328
      f0      :     0.002835  f :     0.005991
      f+1     :     0.001171
      f-1     :     0.001680
      f+2     :     0.000155
      f-2     :     0.000146
      f+3     :     0.000002
      f-3     :     0.000002
 29 Cls       :     5.685583  s :     5.685583
      pz      :     3.833541  p :    11.244948
      px      :     3.780981
      py      :     3.630426
      dz2     :     0.020094  d :     0.186034
      dxz     :     0.017877
      dyz     :     0.048120
      dx2y2   :     0.051630
      dxy     :     0.048314
      f0      :     0.000204  f :     0.002057
      f+1     :     0.000048
      f-1     :     0.000342
      f+2     :     0.000370
      f-2     :     0.000094
      f+3     :     0.000561
      f-3     :     0.000439
 30 C s       :     2.749314  s :     2.749314
      pz      :     0.911233  p :     2.428699
      px      :     0.589381
      py      :     0.928085
      dz2     :     0.321909  d :     1.251724
      dxz     :     0.209204
      dyz     :     0.382347
      dx2y2   :     0.161576
      dxy     :     0.176689
      f0      :     0.028067  f :     0.105980
      f+1     :     0.015822
      f-1     :     0.023744
      f+2     :     0.017097
      f-2     :     0.012792
      f+3     :     0.004825
      f-3     :     0.003633
 31 O s       :     3.361303  s :     3.361303
      pz      :     1.507354  p :     4.423297
      px      :     1.299151
      py      :     1.616792
      dz2     :     0.088671  d :     0.272574
      dxz     :     0.044298
      dyz     :     0.094975
      dx2y2   :     0.026778
      dxy     :     0.017853
      f0      :     0.001716  f :     0.005913
      f+1     :     0.001083
      f-1     :     0.001752
      f+2     :     0.000607
      f-2     :     0.000646
      f+3     :     0.000069
      f-3     :     0.000041
 32 Cls       :     5.629384  s :     5.629384
      pz      :     3.576525  p :    11.146597
      px      :     3.774180
      py      :     3.795892
      dz2     :     0.056242  d :     0.232632
      dxz     :     0.061856
      dyz     :     0.056936
      dx2y2   :     0.034586
      dxy     :     0.023013
      f0      :     0.000967  f :     0.003481
      f+1     :     0.001108
      f-1     :     0.001060
      f+2     :     0.000143
      f-2     :     0.000145
      f+3     :     0.000022
      f-3     :     0.000037
 33 C s       :     2.646563  s :     2.646563
      pz      :     0.903437  p :     2.703140
      px      :     0.905579
      py      :     0.894124
      dz2     :     0.079563  d :     0.530332
      dxz     :     0.120442
      dyz     :     0.150126
      dx2y2   :     0.136900
      dxy     :     0.043301
      f0      :     0.006363  f :     0.029970
      f+1     :     0.002818
      f-1     :     0.005210
      f+2     :     0.006899
      f-2     :     0.002615
      f+3     :     0.002553
      f-3     :     0.003513
 34 H s       :     0.697632  s :     0.697632
      pz      :     0.084778  p :     0.279043
      px      :     0.074643
      py      :     0.119622
      dz2     :     0.004644  d :     0.029330
      dxz     :     0.002186
      dyz     :     0.008071
      dx2y2   :     0.007231
      dxy     :     0.007199
 35 H s       :     0.684572  s :     0.684572
      pz      :     0.101068  p :     0.320001
      px      :     0.125470
      py      :     0.093463
      dz2     :     0.006387  d :     0.029487
      dxz     :     0.008092
      dyz     :     0.003754
      dx2y2   :     0.005636
      dxy     :     0.005618
 36 H s       :     0.692734  s :     0.692734
      pz      :     0.107737  p :     0.343514
      px      :     0.131686
      py      :     0.104091
      dz2     :     0.006415  d :     0.029760
      dxz     :     0.007902
      dyz     :     0.003889
      dx2y2   :     0.006342
      dxy     :     0.005212


                      *****************************
                      * MAYER POPULATION ANALYSIS *
                      *****************************

  NA   - Mulliken gross atomic population
  ZA   - Total nuclear charge
  QA   - Mulliken gross atomic charge
  VA   - Mayer's total valence
  BVA  - Mayer's bonded valence
  FA   - Mayer's free valence

  ATOM       NA         ZA         QA         VA         BVA        FA
  0 Ir    15.6671    17.0000     1.3329     3.4090     3.4090    -0.0000
  1 P     14.0505    15.0000     0.9495     2.9926     2.9926    -0.0000
  2 C      6.6154     6.0000    -0.6154     4.0106     4.0106     0.0000
  3 C      6.5736     6.0000    -0.5736     3.8937     3.8937    -0.0000
  4 H      0.8934     1.0000     0.1066     1.0647     1.0647    -0.0000
  5 H      0.9193     1.0000     0.0807     1.1153     1.1153    -0.0000
  6 H      0.8295     1.0000     0.1705     1.0123     1.0123    -0.0000
  7 H      0.8958     1.0000     0.1042     1.0877     1.0877    -0.0000
  8 H      0.8182     1.0000     0.1818     0.9935     0.9935     0.0000
  9 H      0.9058     1.0000     0.0942     1.1080     1.1080    -0.0000
 10 C      6.5473     6.0000    -0.5473     4.0166     4.0166    -0.0000
 11 H      0.8997     1.0000     0.1003     1.1367     1.1367     0.0000
 12 H      0.8335     1.0000     0.1665     1.0315     1.0315    -0.0000
 13 H      0.8677     1.0000     0.1323     1.0841     1.0841     0.0000
 14 P     14.1807    15.0000     0.8193     3.1947     3.1947    -0.0000
 15 C      6.5959     6.0000    -0.5959     3.9359     3.9359     0.0000
 16 C      6.5651     6.0000    -0.5651     4.0041     4.0041    -0.0000
 17 H      0.8923     1.0000     0.1077     1.0455     1.0455     0.0000
 18 H      0.8317     1.0000     0.1683     1.0168     1.0168    -0.0000
 19 H      0.9270     1.0000     0.0730     1.1201     1.1201    -0.0000
 20 C      6.4982     6.0000    -0.4982     3.8717     3.8717     0.0000
 21 H      0.8121     1.0000     0.1879     0.9919     0.9919    -0.0000
 22 H      0.9080     1.0000     0.0920     1.1678     1.1678    -0.0000
 23 H      0.8290     1.0000     0.1710     1.0226     1.0226     0.0000
 24 H      0.8569     1.0000     0.1431     1.0994     1.0994    -0.0000
 25 H      0.8813     1.0000     0.1187     1.0764     1.0764    -0.0000
 26 H      0.9190     1.0000     0.0810     1.1048     1.1048     0.0000
 27 C      5.6551     6.0000     0.3449     3.3205     3.3205    -0.0000
 28 O      8.4439     8.0000    -0.4439     2.1659     2.1659    -0.0000
 29 Cl    17.7073    17.0000    -0.7073     0.6290     0.6290    -0.0000
 30 C      5.4860     6.0000     0.5140     3.4547     3.4547    -0.0000
 31 O      8.6710     8.0000    -0.6710     1.7113     1.7113     0.0000
 32 Cl    17.6975    17.0000    -0.6975     0.6415     0.6415    -0.0000
 33 C      6.6288     6.0000    -0.6288     4.2491     4.2491    -0.0000
 34 H      0.9329     1.0000     0.0671     1.0928     1.0928     0.0000
 35 H      0.8726     1.0000     0.1274     0.9847     0.9847    -0.0000
 36 H      0.8909     1.0000     0.1091     0.9737     0.9737    -0.0000

  Mayer bond orders larger than 0.100000
B(  0-Ir,  1-P ) :   0.4655 B(  0-Ir, 14-P ) :   0.5690 B(  0-Ir, 27-C ) :   0.9234 
B(  0-Ir, 29-Cl) :   0.2360 B(  0-Ir, 30-C ) :   0.6253 B(  0-Ir, 32-Cl) :   0.1876 
B(  0-Ir, 33-C ) :   0.1060 B(  1-P ,  2-C ) :   0.8658 B(  1-P ,  3-C ) :   0.6731 
B(  1-P , 10-C ) :   0.7611 B(  1-P , 30-C ) :   0.1284 B(  1-P , 32-Cl) :   0.1596 
B(  2-C ,  8-H ) :   0.9743 B(  2-C , 11-H ) :   1.0032 B(  2-C , 13-H ) :   0.9943 
B(  3-C ,  4-H ) :   1.0191 B(  3-C ,  6-H ) :   0.9826 B(  3-C ,  9-H ) :   1.0313 
B(  5-H , 10-C ) :   1.0317 B(  7-H , 10-C ) :   1.0248 B( 10-C , 12-H ) :   0.9804 
B( 14-P , 15-C ) :   0.7190 B( 14-P , 16-C ) :   0.9029 B( 14-P , 20-C ) :   0.6613 
B( 14-P , 29-Cl) :   0.1972 B( 14-P , 32-Cl) :   0.1575 B( 15-C , 16-C ) :   0.1003 
B( 15-C , 23-H ) :   0.9771 B( 15-C , 24-H ) :   1.0318 B( 15-C , 26-H ) :   1.0237 
B( 16-C , 21-H ) :   0.9731 B( 16-C , 22-H ) :   1.0005 B( 16-C , 25-H ) :   0.9952 
B( 17-H , 20-C ) :   1.0064 B( 18-H , 20-C ) :   0.9879 B( 19-H , 20-C ) :   1.0299 
B( 27-C , 28-O ) :   2.0716 B( 27-C , 30-C ) :   0.1532 B( 30-C , 31-O ) :   1.5053 
B( 30-C , 33-C ) :   0.9640 B( 33-C , 34-H ) :   1.1066 B( 33-C , 35-H ) :   0.9646 
B( 33-C , 36-H ) :   1.0152 

-------
TIMINGS
-------

Total SCF time: 0 days 0 hours 3 min 0 sec 

Total time                  ....     180.123 sec
Sum of individual times     ....     178.491 sec  ( 99.1%)

Fock matrix formation       ....     166.332 sec  ( 92.3%)
  XC integration            ....      14.271 sec  (  8.6% of F)
    Basis function eval.    ....       2.260 sec  ( 15.8% of XC)
    Density eval.           ....       5.149 sec  ( 36.1% of XC)
    XC-Functional eval.     ....       0.104 sec  (  0.7% of XC)
    XC-Potential eval.      ....       4.820 sec  ( 33.8% of XC)
Diagonalization             ....       3.852 sec  (  2.1%)
Density matrix formation    ....       0.212 sec  (  0.1%)
Population analysis         ....       0.252 sec  (  0.1%)
Initial guess               ....       2.564 sec  (  1.4%)
Orbital Transformation      ....       0.000 sec  (  0.0%)
Orbital Orthonormalization  ....       0.000 sec  (  0.0%)
DIIS solution               ....       3.894 sec  (  2.2%)
Grid generation             ....       1.385 sec  (  0.8%)


           ************************************************************
           *        Program running with 24 parallel MPI-processes    *
           *              working on a common directory               *
           ************************************************************

------------------------------------------------------------------------------
                                ORCA  MP2 
------------------------------------------------------------------------------

Freezing NCore=62 chemical core electrons

-------------
RI-MP2 ENERGY
-------------
Dimension of the basis                    ... 1027
Memory devoted to MP2                     ... 5000 MB   
Data format for buffers                   ... DOUBLE
Compression type for matrix containers    ... UNCOMPRESSED
Overall scaling of the MP2 energy         ...   2.700e-01
Calculating two index integrals           ... done (    0.049 sec)
Cholesky decomposition of V**-1           ... done (    0.629 sec)

-----------------
RI-TRANSFORMATION (AUX index driven)
-----------------

Dimension of the orbital-basis         ... 1027
Dimension of the aux-basis             ... 2580
Transformation of internal/external MOs...   31-  85 to   86-1026
Number Format for Storage              ... Double (8 Byte)
Integral mode                          ... Direct

First Phase: integral generation and transformation of MO indices
  Aux angular momentum 0               ... done (    0.324 sec)
  Aux angular momentum 1               ... done (    0.650 sec)
  Aux angular momentum 2               ... done (    0.860 sec)
  Aux angular momentum 3               ... done (    0.658 sec)
  Aux angular momentum 4               ... done (    0.213 sec)
  Aux angular momentum 5               ... done (    0.270 sec)
  Aux angular momentum 6               ... done (    0.326 sec)
Closing buffer VIA ( 0.99 GB; CompressionRatio= 1.00)
  Phase 1 completed in     3.450 sec
Second Phase: sorting and transformation of aux index

IA-Transformation
Memory available                       ... 4866 MB 
Max. # MO pairs treated in a batch     ... 3    
# of internal orbitals                 ... 55
# batches for internal orbitals        ... 1
Closing buffer IAV ( 0.05 GB; CompressionRatio= 1.00)
(ia|v) transformation done in     0.893 sec

  Phase 2 completed in     1.941 sec
RI-Integral transformation completed in     5.422 sec
Opening buffers                              ... done

Starting loop over batches of integrals:

Operator 0  - window                       ... ( 31- 85)x( 86-1026)
Operator 0  - Memory available             ...  5000 MB
Operator 0  - Memory needed per MO         ...  18.5 MB
Operator 0  - Number of orbitals per batch ... 3
Operator 0  - Number of batches            ... 1

OPERATOR  0   PASS   0:  MOs    31 ...   33 +   34 ...   36 +   37 ...   39 +   40 ...   42
                            +   43 ...   45 +   46 ...   48 +   49 ...   51 +   52 ...   54
                            +   55 ...   57 +   58 ...   60 +   61 ...   63 +   64 ...   66
                            +   67 ...   69 +   70 ...   72 +   73 ...   75 +   76 ...   78
                            +   79 ...   81 +   82 ...   84 +   85 ...   85
  Reading integrals       ... ok
  Internal MO  33
Time spent in pair loops =     0.610 sec
Deleting buffer (Ka|jb)[aa] ...done

-----------------------------------------------
 RI-MP2 CORRELATION ENERGY:     -1.145701078 Eh
-----------------------------------------------


-------
TIMINGS
-------

Total time                :   19.873 sec
Integral trafo            :    5.436 sec ( 27.4%)
I/O of integrals          :    0.047 sec (  0.2%)
K(i,j) Operators          :    0.438 sec (  2.2%)
T(i,j) pair energies      :    0.068 sec (  0.3%)
V-calculation             :    0.049 sec (  0.2%)
V**(-1/2)                 :    0.629 sec (  3.2%)
Gamma(ia|P)               :    0.000 sec (  0.0%)
Gamma-Trafo               :    0.000 sec (  0.0%)
D(virtual)                :    0.000 sec (  0.0%)
D(internal)               :    0.000 sec (  0.0%)
W(virtual)                :    0.000 sec (  0.0%)
W(internal)               :    0.000 sec (  0.0%)
L(virtual)                :    0.000 sec (  0.0%)
L(internal)               :    0.000 sec (  0.0%)
G(D)                      :    0.000 sec (  0.0%)
G(Z)                      :    0.000 sec (  0.0%)
Z-Vector Solution         :    0.000 sec (  0.0%)
Z-Vector Solution         :    0.000 sec (  0.0%)
3-Index Derivative 
+ Separable RIJ part      :    0.000 sec (  0.0%)
2-Index Derivative 
+ Separable RIJ part      :    0.000 sec (  0.0%)
Separable Gradient (X)    :    0.000 sec (  0.0%)


---------------------------------------
MP2 TOTAL ENERGY:    -2212.985187119 Eh
---------------------------------------


-------------------------------------------------------------------------------
                          DFT DISPERSION CORRECTION                            
                                                                               
                              DFTD3 V3.1  Rev 1                                
                          USING Becke-Johnson damping                          
-------------------------------------------------------------------------------
The B2PLYP functional is recognized
Active option DFTDOPT                   ...         4   

molecular C6(AA) [au] = 20999.580047 


            DFT-D V3
 parameters
 s6 scaling factor         :     0.6400 
 a1 scaling factor         :     0.3065 
 s8 scaling factor         :     0.9147 
 a2 scaling factor         :     5.0570 
 ad hoc parameters k1-k3   :    16.0000     1.3333    -4.0000 

 Edisp/kcal,au: -34.994733829413  -0.055767652192 
 E6   /kcal   : -17.402038587 
 E8   /kcal   : -17.592695242 
 % E8         :  50.272407638 

-------------------------   ----------------
Dispersion correction           -0.055767652
-------------------------   ----------------


-------------------------   --------------------
FINAL SINGLE POINT ENERGY     -2213.040954770805
-------------------------   --------------------


                            ***************************************
                            *     ORCA property calculations      *
                            ***************************************


  WARNING: The energy has been calculated at the MP2 level but the densities
           used in the property calculations are still SCF densities
           MP2 response densities have not been calculated 
           use %mp2 Density relaxed end
           or  %mp2 Density unrelaxed end

                                    ---------------------
                                    Active property flags
                                    ---------------------
   (+) Dipole Moment


------------------------------------------------------------------------------
                       ORCA ELECTRIC PROPERTIES CALCULATION
------------------------------------------------------------------------------

Dipole Moment Calculation                       ... on
Quadrupole Moment Calculation                   ... off
Polarizability Calculation                      ... off
GBWName                                         ... MOR31_pr20.gbw
Electron density file                           ... MOR31_pr20.scfp
The origin for moment calculation is the CENTER OF MASS  = (-0.001368, -0.039397  0.014283)

-------------
DIPOLE MOMENT
-------------
                                X             Y             Z
Electronic contribution:      0.18855      -7.77743      12.17427
Nuclear contribution   :     -0.04564       8.50954     -11.91616
                        -----------------------------------------
Total Dipole Moment    :      0.14291       0.73211       0.25811
                        -----------------------------------------
Magnitude (a.u.)       :      0.78932
Magnitude (Debye)      :      2.00629



--------------------
Rotational spectrum 
--------------------
 
Rotational constants in cm-1:     0.013559     0.009254     0.008806 
Rotational constants in MHz :   406.483484   277.425577   264.007304 

 Dipole components along the rotational axes: 
x,y,z [a.u.] :     0.133789     0.752376     0.197621 
x,y,z [Debye]:     0.340063     1.912387     0.502312 

 

Timings for individual modules:

Sum of individual times         ...      207.273 sec (=   3.455 min)
GTO integral calculation        ...        6.094 sec (=   0.102 min)   2.9 %
SCF iterations                  ...      180.544 sec (=   3.009 min)  87.1 %
MP2 module                      ...       20.634 sec (=   0.344 min)  10.0 %
                             ****ORCA TERMINATED NORMALLY****
TOTAL RUN TIME: 0 days 0 hours 3 minutes 27 seconds 952 msec
