
                                 *****************
                                 * O   R   C   A *
                                 *****************

           --- An Ab Initio, DFT and Semiempirical electronic structure package ---

                  #######################################################
                  #                        -***-                        #
                  #          Department of theory and spectroscopy      #
                  #               Directorship: Frank Neese             #
                  #        Max Planck Institute fuer Kohlenforschung    #
                  #                Kaiser Wilhelm Platz 1               #
                  #                 D-45470 Muelheim/Ruhr               #
                  #                      Germany                        #
                  #                                                     #
                  #                  All rights reserved                #
                  #                        -***-                        #
                  #######################################################


                         Program Version 4.2.0 -  RELEASE  -


 With contributions from (in alphabetic order):
   Daniel Aravena         : Magnetic Suceptibility
   Michael Atanasov       : Ab Initio Ligand Field Theory (pilot matlab implementation)
   Alexander A. Auer      : GIAO ZORA, VPT2
   Ute Becker             : Parallelization
   Giovanni Bistoni       : ED, misc. LED, open-shell LED, HFLED
   Martin Brehm           : Molecular dynamics
   Dmytro Bykov           : SCF Hessian
   Vijay G. Chilkuri      : MRCI spin determinant printing, contributions to CSF-ICE
   Dipayan Datta          : RHF DLPNO-CCSD density
   Achintya Kumar Dutta   : EOM-CC, STEOM-CC
   Dmitry Ganyushin       : Spin-Orbit,Spin-Spin,Magnetic field MRCI
   Miquel Garcia          : C-PCM Hessian, Gaussian charge scheme
   Yang Guo               : DLPNO-NEVPT2, CIM, IAO-localization
   Andreas Hansen         : Spin unrestricted coupled pair/coupled cluster methods
   Benjamin Helmich-Paris : CASSCF linear response (MC-RPA)
   Lee Huntington         : MR-EOM, pCC
   Robert Izsak           : Overlap fitted RIJCOSX, COSX-SCS-MP3, EOM
   Christian Kollmar      : KDIIS, OOCD, Brueckner-CCSD(T), CCSD density
   Simone Kossmann        : Meta GGA functionals, TD-DFT gradient, OOMP2, MP2 Hessian
   Martin Krupicka        : AUTO-CI
   Lucas Lang             : DCDCAS
   Dagmar Lenk            : GEPOL surface, SMD
   Dimitrios Liakos       : Extrapolation schemes; Compound Job, initial MDCI parallelization
   Dimitrios Manganas     : Further ROCIS development; embedding schemes
   Dimitrios Pantazis     : SARC Basis sets
   Taras Petrenko         : DFT Hessian,TD-DFT gradient, ASA, ECA, R-Raman, ABS, FL, XAS/XES, NRVS
   Peter Pinski           : DLPNO-MP2, DLPNO-MP2 Gradient
   Christoph Reimann      : Effective Core Potentials
   Marius Retegan         : Local ZFS, SOC
   Christoph Riplinger    : Optimizer, TS searches, QM/MM, DLPNO-CCSD(T), (RO)-DLPNO pert. Triples
   Tobias Risthaus        : Range-separated hybrids, TD-DFT gradient, RPA, STAB
   Michael Roemelt        : Original ROCIS implementation
   Masaaki Saitow         : Open-shell DLPNO-CCSD energy and density
   Barbara Sandhoefer     : DKH picture change effects
   Avijit Sen             : IP-ROCIS
   Kantharuban Sivalingam : CASSCF convergence, NEVPT2, FIC-MRCI
   Bernardo de Souza      : ESD, SOC TD-DFT
   Georgi Stoychev        : AutoAux, RI-MP2 NMR
   Willem Van den Heuvel  : Paramagnetic NMR
   Boris Wezisla          : Elementary symmetry handling
   Frank Wennmohs         : Technical directorship


 We gratefully acknowledge several colleagues who have allowed us to
 interface, adapt or use parts of their codes:
   Stefan Grimme, W. Hujo, H. Kruse,             : VdW corrections, initial TS optimization,
                  C. Bannwarth                     DFT functionals, gCP, sTDA/sTD-DF
   Ed Valeev, F. Pavosevic, A. Kumar             : LibInt (2-el integral package), F12 methods
   Garnet Chan, S. Sharma, J. Yang, R. Olivares  : DMRG
   Ulf Ekstrom                                   : XCFun DFT Library
   Mihaly Kallay                                 : mrcc  (arbitrary order and MRCC methods)
   Andreas Klamt, Michael Diedenhofen            : otool_cosmo (COSMO solvation model)
   Jiri Pittner, Ondrej Demel                    : Mk-CCSD
   Frank Weinhold                                : gennbo (NPA and NBO analysis)
   Christopher J. Cramer and Donald G. Truhlar   : smd solvation model
   Lars Goerigk                                  : TD-DFT with DH, B97 family of functionals
   V. Asgeirsson, H. Jonsson                     : NEB implementation
   FAccTs GmbH                                   : IRC, NEB, NEB-TS, Multilevel, MM, QM/MM, CI optimization
   S Lehtola, MJT Oliveira, MAL Marques          : LibXC Library


 Your calculation uses the libint2 library for the computation of 2-el integrals
 For citations please refer to: http://libint.valeyev.net

 Your ORCA version has been built with support for libXC version: 4.2.3
 For citations please refer to: https://tddft.org/programs/libxc/

 This ORCA versions uses:
   CBLAS   interface :  Fast vector & matrix operations
   LAPACKE interface :  Fast linear algebra routines
   SCALAPACK package :  Parallel linear algebra routines


Your calculation utilizes the atom-pairwise dispersion correction
with the Becke-Johnson damping scheme (D3BJ)
Cite in your paper:
S.Grimme, S.Ehrlich, L.Goerigk, J Comput Chem, (2011), 32, 1456–1465 
S.Grimme, J.Antony, S.Ehrlich and H.Krieg, J.Chem.Phys., 132, (2010), 154104 
   

----- Orbital basis set information -----
Your calculation utilizes the basis: def2-TZVPPD
   F. Weigend and R. Ahlrichs, Phys. Chem. Chem. Phys. 7, 3297 (2005).
   D. Rappoport and F. Furche, J. Chem. Phys. 133 134105 (2010).

----- AuxC basis set information -----
Your calculation utilizes the auxiliary basis: def2-TZVPPD/C
   A. Hellweg, C. Hattig, S. Hofener and W. Klopper, Theor. Chem. Acc. 117, 587 (2007).

----- AuxJK basis set information -----
Your calculation utilizes the auxiliary basis: def2/JK
   H-Ba, Hf-Rn: F. Weigend, J. Comput. Chem. 29, 167 (2008).

cite the ECPs for Mo [Def2-ECP] as follows:
Ce-Yb(ecp-28): M. Dolg, H. Stoll, H.Preuss, J. Chem. Phys., 1989, 90, 1730-1734.
Y-Cd(ecp-28), Hf-Hg(ecp-46): D. Andrae,U. Haeussermann, M. Dolg, H. Stoll, H. Preuss, Theor. Chim. Acta, 1990, 77, 123-141.
In-Sb(ecp-28), Tl-Bi(ecp-46): B. Metz, H. Stoll, M. Dolg, J. Chem. Phys., 2000, 113, 2563-2569.
Te-Xe(ecp-28), Po-Rn(ecp-46): K. A. Peterson, D. Figgen, E. Goll, H. Stoll, M. Dolg, J. Chem. Phys., 2003, 119, 11113-11123.
Rb(ecp-28), Cs(ecp-46): T. Leininger, A. Nicklass, W. Kuechle, H. Stoll, M. Dolg, A. Bergner, Chem. Phys. Lett., 1996, 255, 274-280.
Sr(ecp-28), Ba(ecp-46): M. Kaupp, P. V. Schleyer, H. Stoll and H. Preuss, J. Chem. Phys., 1991, 94, 1360-1366.
La(ecp-46): M. Dolg, H. Stoll, A. Savin, H. Preuss, Theor. Chim. Acta, 1989, 75, 173-194.
Lu(ecp-28): X. Cao, M. Dolg, J. Chem. Phys., 2001, 115, 7348-7355.

ECP parameters for Mo [Def2-ECP] have been obtained from:
TURBOMOLE (7.0.2)

================================================================================
                                        WARNINGS
                       Please study these warnings very carefully!
================================================================================


WARNING: No MP2 level density has been requested!
         To caclulate MP2 level properties use
         %mp2 Density relaxed end
         or
         %mp2 Density unrelaxed end
         Otherwise for double-hybrid DFT only the energy is correct!

WARNING: The frozen-core approximation is turned on by default for 
         the MP2 part of double-hybrid DFT.

INFO   : the flag for use of LIBINT has been found!

================================================================================
                                       INPUT FILE
================================================================================
NAME = TMB08_T1.in
|  1> #
|  2> # TMB08_T1 ri-B2PLYP-D3BJ/Def2-TZVPPD
|  3> #
|  4> ! rijk ri-b2plyp d3bj def2-tzvppd def2/jk def2-tzvppd/c grid4 nofinalgrid
|  5> 
|  6> *xyz -1 1
|  7> O       -0.864683   -0.641223    1.501083 
|  8> Mo       0.288309   -0.030923   -0.005993 
|  9> O       -1.184159   -0.828813   -0.891579 
| 10> S        2.210721   -0.462566    1.360243 
| 11> C        3.288131   -1.501862    0.490518 
| 12> C        2.967024   -1.951648   -0.740634 
| 13> S        1.453819   -1.539049   -1.466752 
| 14> S        0.162904    2.082815    1.150192 
| 15> C        0.198674    3.373932   -0.002877 
| 16> C        0.341525    3.101047   -1.316307 
| 17> S        0.442237    1.474962   -1.896418 
| 18> S       -2.702756   -1.277235    0.090908 
| 19> C       -3.341924    0.299743    0.636465 
| 20> H       -3.337931    0.314090    1.732942 
| 21> H       -2.648387    1.079744    0.273451 
| 22> H       -4.358042    0.459892    0.247281 
| 23> C       -3.587204   -1.408361   -1.466934 
| 24> H       -3.173718   -2.281309   -1.989593 
| 25> H       -4.662596   -1.555426   -1.282985 
| 26> H       -3.398030   -0.511824   -2.074907 
| 27> C       -0.765264   -0.491871    2.877457 
| 28> H       -0.827293    0.572940    3.181404 
| 29> H       -1.595209   -1.039646    3.369476 
| 30> H        0.192972   -0.897436    3.256104 
| 31> H        3.640777   -2.597035   -1.314559 
| 32> H        4.229728   -1.767232    0.982509 
| 33> H        0.401774    3.897233   -2.066529 
| 34> H        0.141166    4.396366    0.384198 
| 35> *
| 36> 
| 37> %maxcore 5000
| 38> 
| 39> %pal
| 40> nprocs = 24
| 41> end
| 42> 
| 43> 
| 44>                          ****END OF INPUT****
================================================================================

                       ****************************
                       * Single Point Calculation *
                       ****************************

---------------------------------
CARTESIAN COORDINATES (ANGSTROEM)
---------------------------------
  O     -0.864683   -0.641223    1.501083
  Mo     0.288309   -0.030923   -0.005993
  O     -1.184159   -0.828813   -0.891579
  S      2.210721   -0.462566    1.360243
  C      3.288131   -1.501862    0.490518
  C      2.967024   -1.951648   -0.740634
  S      1.453819   -1.539049   -1.466752
  S      0.162904    2.082815    1.150192
  C      0.198674    3.373932   -0.002877
  C      0.341525    3.101047   -1.316307
  S      0.442237    1.474962   -1.896418
  S     -2.702756   -1.277235    0.090908
  C     -3.341924    0.299743    0.636465
  H     -3.337931    0.314090    1.732942
  H     -2.648387    1.079744    0.273451
  H     -4.358042    0.459892    0.247281
  C     -3.587204   -1.408361   -1.466934
  H     -3.173718   -2.281309   -1.989593
  H     -4.662596   -1.555426   -1.282985
  H     -3.398030   -0.511824   -2.074907
  C     -0.765264   -0.491871    2.877457
  H     -0.827293    0.572940    3.181404
  H     -1.595209   -1.039646    3.369476
  H      0.192972   -0.897436    3.256104
  H      3.640777   -2.597035   -1.314559
  H      4.229728   -1.767232    0.982509
  H      0.401774    3.897233   -2.066529
  H      0.141166    4.396366    0.384198

----------------------------
CARTESIAN COORDINATES (A.U.)
----------------------------
  NO LB      ZA    FRAG     MASS         X           Y           Z
   0 O     8.0000    0    15.999   -1.634014   -1.211736    2.836636
   1 Mo   14.0000*   0    95.940    0.544825   -0.058436   -0.011325
   2 O     8.0000    0    15.999   -2.237736   -1.566230   -1.684840
   3 S    16.0000    0    32.060    4.177657   -0.874123    2.570487
   4 C     6.0000    0    12.011    6.213667   -2.838108    0.926945
   5 C     6.0000    0    12.011    5.606863   -3.688080   -1.399595
   6 S    16.0000    0    32.060    2.747320   -2.908381   -2.771760
   7 S    16.0000    0    32.060    0.307844    3.935950    2.173548
   8 C     6.0000    0    12.011    0.375439    6.375807   -0.005437
   9 C     6.0000    0    12.011    0.645389    5.860130   -2.487460
  10 S    16.0000    0    32.060    0.835707    2.787274   -3.583711
  11 S    16.0000    0    32.060   -5.107469   -2.413624    0.171791
  12 C     6.0000    0    12.011   -6.315321    0.566432    1.202745
  13 H     1.0000    0     1.008   -6.307775    0.593544    3.274786
  14 H     1.0000    0     1.008   -5.004726    2.040420    0.516748
  15 H     1.0000    0     1.008   -8.235506    0.869070    0.467293
  16 C     6.0000    0    12.011   -6.778833   -2.661417   -2.772104
  17 H     1.0000    0     1.008   -5.997458   -4.311049   -3.759786
  18 H     1.0000    0     1.008   -8.811030   -2.939329   -2.424490
  19 H     1.0000    0     1.008   -6.421346   -0.967207   -3.921006
  20 C     6.0000    0    12.011   -1.446139   -0.929501    5.437606
  21 H     1.0000    0     1.008   -1.563357    1.082700    6.011982
  22 H     1.0000    0     1.008   -3.014508   -1.964646    6.367387
  23 H     1.0000    0     1.008    0.364664   -1.695908    6.153145
  24 H     1.0000    0     1.008    6.880071   -4.907685   -2.484156
  25 H     1.0000    0     1.008    7.993028   -3.339584    1.856673
  26 H     1.0000    0     1.008    0.759243    7.364703   -3.905174
  27 H     1.0000    0     1.008    0.266765    8.307928    0.726029
* core charge reduced due to ECP

--------------------------------
INTERNAL COORDINATES (ANGSTROEM)
--------------------------------
 O      0   0   0     0.000000000000     0.00000000     0.00000000
 Mo     1   0   0     1.993272362684     0.00000000     0.00000000
 O      2   1   0     1.894479618924    76.99085298     0.00000000
 S      2   1   3     2.397620567331    88.72995229   212.80672208
 C      4   2   1     1.731291442635   108.71053675   126.48922557
 C      5   4   2     1.349500795979   120.68399361   358.70181385
 S      6   5   4     1.728373413574   120.79917546   358.31879852
 S      2   1   3     2.412546061922    82.86814566   126.90648818
 C      8   2   1     1.731424476941   109.45748465   212.94454194
 C      9   8   2     1.349063006804   119.98182832   357.24428904
 S     10   9   8     1.729399926706   121.52969308     1.95278325
 S      3   2   1     1.863464473410   119.22810523    11.30509781
 C     12   3   2     1.786904525977   103.89238422    65.32765265
 H     13  12   3     1.096578128538   108.39245957   241.09042197
 H     13  12   3     1.105067552037   107.34563923   358.07690031
 H     13  12   3     1.099821657352   110.54498987   119.45834405
 C     12   3   2     1.796194307291    87.79742846   163.85650724
 H     17  12   3     1.098262861605   106.58193360    68.21126245
 H     17  12   3     1.100878423119   110.23270339   187.49069137
 H     17  12   3     1.099634740891   109.59021631   310.78899121
 C      1   2   3     1.388018568082   132.48221120   184.28351608
 H     21   1   2     1.109077923940   111.78068746    63.55387129
 H     21   1   2     1.109481342795   109.45352917   183.28390864
 H     21   1   2     1.107281694751   111.20256076   302.96685227
 H      6   5   4     1.095380020999   121.87179078   179.02316079
 H      5   4   2     1.095025703529   117.05794995   178.47559350
 H     10   9   8     1.095616327863   121.70124170   182.10202199
 H      9   8   2     1.094762764276   117.37931582   179.57334360

---------------------------
INTERNAL COORDINATES (A.U.)
---------------------------
 O      0   0   0     0.000000000000     0.00000000     0.00000000
 Mo     1   0   0     3.766738875787     0.00000000     0.00000000
 O      2   1   0     3.580047646063    76.99085298     0.00000000
 S      2   1   3     4.530846245313    88.72995229   212.80672208
 C      4   2   1     3.271666684581   108.71053675   126.48922557
 C      5   4   2     2.550186921910   120.68399361   358.70181385
 S      6   5   4     3.266152408806   120.79917546   358.31879852
 S      2   1   3     4.559051342502    82.86814566   126.90648818
 C      8   2   1     3.271918082986   109.45748465   212.94454194
 C      9   8   2     2.549359620263   119.98182832   357.24428904
 S     10   9   8     3.268092237497   121.52969308     1.95278325
 S      3   2   1     3.521437515037   119.22810523    11.30509781
 C     12   3   2     3.376760181561   103.89238422    65.32765265
 H     13  12   3     2.072232347384   108.39245957   241.09042197
 H     13  12   3     2.088275032834   107.34563923   358.07690031
 H     13  12   3     2.078361728551   110.54498987   119.45834405
 C     12   3   2     3.394315324088    87.79742846   163.85650724
 H     17  12   3     2.075416031490   106.58193360    68.21126245
 H     17  12   3     2.080358726439   110.23270339   187.49069137
 H     17  12   3     2.078008507629   109.59021631   310.78899121
 C      1   2   3     2.622974962473   132.48221120   184.28351608
 H     21   1   2     2.095853537424   111.78068746    63.55387129
 H     21   1   2     2.096615888578   109.45352917   183.28390864
 H     21   1   2     2.092459156183   111.20256076   302.96685227
 H      6   5   4     2.069968252256   121.87179078   179.02316079
 H      5   4   2     2.069298689275   117.05794995   178.47559350
 H     10   9   8     2.070414807514   121.70124170   182.10202199
 H      9   8   2     2.068801806096   117.37931582   179.57334360

---------------------
BASIS SET INFORMATION
---------------------
There are 5 groups of distinct atoms

 Group   1 Type O   : 12s7p3d1f contracted to 6s4p3d1f pattern {621111/4111/111/1}
 Group   2 Type Mo  : 7s7p5d2f1g contracted to 6s4p3d2f1g pattern {211111/4111/311/11/1}
 Group   3 Type S   : 15s10p4d1f contracted to 6s6p4d1f pattern {732111/511111/1111/1}
 Group   4 Type C   : 12s6p3d1f contracted to 6s3p3d1f pattern {621111/411/111/1}
 Group   5 Type H   : 5s3p1d contracted to 3s3p1d pattern {311/111/1}

Atom   0O    basis set group =>   1
Atom   1Mo   basis set group =>   2
Atom   2O    basis set group =>   1
Atom   3S    basis set group =>   3
Atom   4C    basis set group =>   4
Atom   5C    basis set group =>   4
Atom   6S    basis set group =>   3
Atom   7S    basis set group =>   3
Atom   8C    basis set group =>   4
Atom   9C    basis set group =>   4
Atom  10S    basis set group =>   3
Atom  11S    basis set group =>   3
Atom  12C    basis set group =>   4
Atom  13H    basis set group =>   5
Atom  14H    basis set group =>   5
Atom  15H    basis set group =>   5
Atom  16C    basis set group =>   4
Atom  17H    basis set group =>   5
Atom  18H    basis set group =>   5
Atom  19H    basis set group =>   5
Atom  20C    basis set group =>   4
Atom  21H    basis set group =>   5
Atom  22H    basis set group =>   5
Atom  23H    basis set group =>   5
Atom  24H    basis set group =>   5
Atom  25H    basis set group =>   5
Atom  26H    basis set group =>   5
Atom  27H    basis set group =>   5
---------------------------------
AUXILIARY/C BASIS SET INFORMATION
---------------------------------
There are 5 groups of distinct atoms

 Group   1 Type O   : 9s7p6d4f1g contracted to 9s7p5d4f1g pattern {111111111/1111111/21111/1111/1}
 Group   2 Type Mo  : 8s7p6d5f4g3h1i contracted to 8s7p6d5f4g3h1i pattern {11111111/1111111/111111/11111/1111/111/1}
 Group   3 Type S   : 12s9p8d6f2g contracted to 12s9p8d6f2g pattern {111111111111/111111111/11111111/111111/11}
 Group   4 Type C   : 9s7p6d4f1g contracted to 9s7p5d4f1g pattern {111111111/1111111/21111/1111/1}
 Group   5 Type H   : 5s4p3d1f contracted to 5s4p3d1f pattern {11111/1111/111/1}

Atom   0O    basis set group =>   1
Atom   1Mo   basis set group =>   2
Atom   2O    basis set group =>   1
Atom   3S    basis set group =>   3
Atom   4C    basis set group =>   4
Atom   5C    basis set group =>   4
Atom   6S    basis set group =>   3
Atom   7S    basis set group =>   3
Atom   8C    basis set group =>   4
Atom   9C    basis set group =>   4
Atom  10S    basis set group =>   3
Atom  11S    basis set group =>   3
Atom  12C    basis set group =>   4
Atom  13H    basis set group =>   5
Atom  14H    basis set group =>   5
Atom  15H    basis set group =>   5
Atom  16C    basis set group =>   4
Atom  17H    basis set group =>   5
Atom  18H    basis set group =>   5
Atom  19H    basis set group =>   5
Atom  20C    basis set group =>   4
Atom  21H    basis set group =>   5
Atom  22H    basis set group =>   5
Atom  23H    basis set group =>   5
Atom  24H    basis set group =>   5
Atom  25H    basis set group =>   5
Atom  26H    basis set group =>   5
Atom  27H    basis set group =>   5
----------------------------------
AUXILIARY/JK BASIS SET INFORMATION
----------------------------------
There are 5 groups of distinct atoms

 Group   1 Type O   : 14s10p6d2f1g contracted to 10s8p4d2f1g pattern {5111111111/31111111/3111/11/1}
 Group   2 Type Mo  : 13s12p10d9f6g3h2i contracted to 11s10p9d8f6g3h2i pattern {31111111111/3111111111/211111111/21111111/111111/111/11}
 Group   3 Type S   : 16s12p10d4f1g contracted to 13s11p9d4f1g pattern {4111111111111/21111111111/211111111/1111/1}
 Group   4 Type C   : 14s10p6d2f1g contracted to 10s8p5d1f1g pattern {5111111111/31111111/21111/2/1}
 Group   5 Type H   : 4s2p2d contracted to 2s2p2d pattern {31/11/11}

Atom   0O    basis set group =>   1
Atom   1Mo   basis set group =>   2
Atom   2O    basis set group =>   1
Atom   3S    basis set group =>   3
Atom   4C    basis set group =>   4
Atom   5C    basis set group =>   4
Atom   6S    basis set group =>   3
Atom   7S    basis set group =>   3
Atom   8C    basis set group =>   4
Atom   9C    basis set group =>   4
Atom  10S    basis set group =>   3
Atom  11S    basis set group =>   3
Atom  12C    basis set group =>   4
Atom  13H    basis set group =>   5
Atom  14H    basis set group =>   5
Atom  15H    basis set group =>   5
Atom  16C    basis set group =>   4
Atom  17H    basis set group =>   5
Atom  18H    basis set group =>   5
Atom  19H    basis set group =>   5
Atom  20C    basis set group =>   4
Atom  21H    basis set group =>   5
Atom  22H    basis set group =>   5
Atom  23H    basis set group =>   5
Atom  24H    basis set group =>   5
Atom  25H    basis set group =>   5
Atom  26H    basis set group =>   5
Atom  27H    basis set group =>   5
-------------------------
ECP PARAMETER INFORMATION
-------------------------

 Group 1, Type Mo ECP Def2-ECP (replacing 28 core electrons, lmax=3)

Atom   1Mo   ECP group =>   1



           ************************************************************
           *        Program running with 24 parallel MPI-processes    *
           *              working on a common directory               *
           ************************************************************
------------------------------------------------------------------------------
                           ORCA GTO INTEGRAL CALCULATION
                           -- RI-GTO INTEGRALS CHOSEN --
------------------------------------------------------------------------------

                         BASIS SET STATISTICS AND STARTUP INFO

Gaussian basis set:
 # of primitive gaussian shells          ...  489
 # of primitive gaussian functions       ... 1157
 # of contracted shells                  ...  311
 # of contracted basis functions         ...  871
 Highest angular momentum                ...    4
 Maximum contraction depth               ...    7
Auxiliary gaussian basis set:
 # of primitive gaussian shells          ...  671
 # of primitive gaussian functions       ... 2103
 # of contracted shells                  ...  542
 # of contracted aux-basis functions     ... 1808
 Highest angular momentum                ...    6
 Maximum contraction depth               ...    5
Ratio of auxiliary to basis functions    ...  2.08
Integral package used                  ... LIBINT
 One Electron integrals                  
   ECP integrals                         ... done
 Ordering auxiliary basis shells         ... done
 Integral threshhold             Thresh  ...  1.000e-10
 Primitive cut-off               TCut    ...  1.000e-11
 Pre-screening matrix                    ... done
 Shell pair data                         ... 
 Ordering of the shell pairs             ... done (   0.007 sec) 39021 of 48516 pairs
 Determination of significant pairs      ... done (   0.000 sec)
 Creation of shell pair data             ... done (   0.004 sec)
 Storage of shell pair data              ... done (   0.015 sec)
 Shell pair data done in (   0.026 sec)
 Computing two index integrals           ... done
 Cholesky decomposition of the V-matrix  ... done


Timings:
 Total evaluation time                   ...   3.669 sec (  0.061 min)
 One electron matrix time                ...   2.928 sec (  0.049 min) = 79.8%
 Schwartz matrix evaluation time         ...   0.398 sec (  0.007 min) = 10.8%
 Two index repulsion integral time       ...   0.142 sec (  0.002 min) =  3.9%
 Cholesky decomposition of V             ...   0.144 sec (  0.002 min) =  3.9%
 Three index repulsion integral time     ...   0.000 sec (  0.000 min) =  0.0%



           ************************************************************
           *        Program running with 24 parallel MPI-processes    *
           *              working on a common directory               *
           ************************************************************
-------------------------------------------------------------------------------
                                 ORCA SCF
-------------------------------------------------------------------------------

------------
SCF SETTINGS
------------
Hamiltonian:
 Density Functional     Method          .... DFT(GTOs)
 Exchange Functional    Exchange        .... B88
   X-Alpha parameter    XAlpha          ....  0.666667
   Becke's b parameter  XBeta           ....  0.004200
 Correlation Functional Correlation     .... LYP
 LDA part of GGA corr.  LDAOpt          .... VWN-3
 Gradients option       PostSCFGGA      .... off
 Hybrid DFT is turned on
   Fraction HF Exchange ScalHFX         ....  0.530000
   Scaling of DF-GGA-X  ScalDFX         ....  0.470000
   Scaling of DF-GGA-C  ScalDFC         ....  0.730000
   Scaling of DF-LDA-C  ScalLDAC        ....  0.730000
   Perturbative correction              ....  0.270000
   Density functional embedding theory  .... OFF
 RI-approximation to the Coulomb term is turned on
   Number of auxiliary basis functions  .... 1808
   RI-JK (J+K treated both via RI)      .... on


General Settings:
 Integral files         IntName         .... TMB08_T1
 Hartree-Fock type      HFTyp           .... RHF
 Total Charge           Charge          ....   -1
 Multiplicity           Mult            ....    1
 Number of Electrons    NEL             ....  166
 Basis Dimension        Dim             ....  871
 Nuclear Repulsion      ENuc            ....   1966.3539851446 Eh

Convergence Acceleration:
 DIIS                   CNVDIIS         .... on
   Start iteration      DIISMaxIt       ....    12
   Startup error        DIISStart       ....  0.200000
   # of expansion vecs  DIISMaxEq       ....     5
   Bias factor          DIISBfac        ....   1.050
   Max. coefficient     DIISMaxC        ....  10.000
 Newton-Raphson         CNVNR           .... off
 SOSCF                  CNVSOSCF        .... off
 Level Shifting         CNVShift        .... on
   Level shift para.    LevelShift      ....    0.2500
   Turn off err/grad.   ShiftErr        ....    0.0010
 Zerner damping         CNVZerner       .... off
 Static damping         CNVDamp         .... on
   Fraction old density DampFac         ....    0.7000
   Max. Damping (<1)    DampMax         ....    0.9800
   Min. Damping (>=0)   DampMin         ....    0.0000
   Turn off err/grad.   DampErr         ....    0.1000
 Fernandez-Rico         CNVRico         .... off

SCF Procedure:
 Maximum # iterations   MaxIter         ....   125
 SCF integral mode      SCFMode         .... Direct
   Integral package                     .... LIBINT
 Reset frequency        DirectResetFreq ....    20
 Integral Threshold     Thresh          ....  1.000e-10 Eh
 Primitive CutOff       TCut            ....  1.000e-11 Eh

Convergence Tolerance:
 Convergence Check Mode ConvCheckMode   .... Total+1el-Energy
 Convergence forced     ConvForced      .... 0
 Energy Change          TolE            ....  1.000e-06 Eh
 1-El. energy change                    ....  1.000e-03 Eh
 DIIS Error             TolErr          ....  1.000e-06


Diagonalization of the overlap matrix:
Smallest eigenvalue                        ... 2.243e-06
Time for diagonalization                   ...    0.132 sec
Threshold for overlap eigenvalues          ... 1.000e-08
Number of eigenvalues below threshold      ... 0
Time for construction of square roots      ...    0.105 sec
Total time needed                          ...    0.239 sec

-------------------
DFT GRID GENERATION
-------------------

General Integration Accuracy     IntAcc      ...  4.670
Radial Grid Type                 RadialGrid  ... Gauss-Chebyshev
Angular Grid (max. acc.)         AngularGrid ... Lebedev-302
Angular grid pruning method      GridPruning ... 3 (G Style)
Weight generation scheme         WeightScheme... Becke
Basis function cutoff            BFCut       ...    1.0000e-10
Integration weight cutoff        WCut        ...    1.0000e-14
Grids for H and He will be reduced by one unit

# of grid points (after initial pruning)     ... 144858 (   0.0 sec)
# of grid points (after weights+screening)   ... 129902 (   0.1 sec)
nearest neighbour list constructed           ...    0.0 sec
Grid point re-assignment to atoms done       ...    0.0 sec
Grid point division into batches done        ...    0.4 sec
Reduced shell lists constructed in    0.9 sec

Total number of grid points                  ...   129902
Total number of batches                      ...     2042
Average number of points per batch           ...       63
Average number of grid points per atom       ...     4639
Average number of shells per batch           ...   194.17 (62.43%)
Average number of basis functions per batch  ...   554.82 (63.70%)
Average number of large shells per batch     ...   150.22 (77.36%)
Average number of large basis fcns per batch ...   427.05 (76.97%)
Average number of aux-shells per batch       ...   194.17 (35.83%)
Average number of aux functions per batch    ...   554.82 (30.69%)
Maximum spatial batch extension              ...   3.07,  3.86,  2.91 au
Average spatial batch extension              ...   0.05,  0.05,  0.05 au

Time for grid setup =    1.103 sec

------------------------------
INITIAL GUESS: MODEL POTENTIAL
------------------------------
Loading Hartree-Fock densities                     ... done
  calling /sw/apps/orca/orca_4_2_0_linux_x86-64_openmpi314/orca TMB08_T1_atom42.inp > TMB08_T1_atom42.out in order to generate an atomic fitting density for atom 1 (Mo with ECP) on-the-fly... 
    atom 1 (Mo), assumed electronic state with S=5: 1s2 2s2 2p6 3s2 3p6 4s2 3d10 4p6 5s2 4d4           ... done
Calculating cut-offs                               ... done
Setting up the integral package                    ... done
Initializing the effective Hamiltonian             ... done
Starting the Coulomb interaction                   ... done (   0.1 sec)
Reading the grid                                   ... done
Mapping shells                                     ... done
Starting the XC term evaluation                    ... done (   0.4 sec)
  promolecular density results
     # of electrons  =    192.994140984
     EX              =   -301.194185548
     EC              =     -2.797834678
     EX+EC           =   -303.992020227
Transforming the Hamiltonian                       ... done (   0.1 sec)
Diagonalizing the Hamiltonian                      ... done (   0.1 sec)
Back transforming the eigenvectors                 ... done (   0.0 sec)
Now organizing SCF variables                       ... done
                      ------------------
                      INITIAL GUESS DONE (   3.5 sec)
                      ------------------
--------------
SCF ITERATIONS
--------------
ITER       Energy         Delta-E        Max-DP      RMS-DP      [F,P]     Damp
  0  -2481.6845336657   0.000000000000 0.35802111  0.00138168  0.3891893 0.7000
  1  -2481.5432693705   0.141264295186 0.25789327  0.00117651  0.2712983 0.7000
                               ***Turning on DIIS***
  2  -2481.7232359566  -0.179966586092 0.05742253  0.00069470  0.1810908 0.7000
  3  -2482.0239221846  -0.300686228008 0.08118526  0.00058352  0.1259808 0.7000
  4  -2482.2563306168  -0.232408432142 0.13370051  0.00107227  0.0921023 0.0000
  5  -2482.4456094297  -0.189278812965 0.06536745  0.00037998  0.0248990 0.0000
  6  -2482.4514738215  -0.005864391801 0.03009468  0.00017877  0.0195422 0.0000
  7  -2482.4528254930  -0.001351671448 0.01089648  0.00009425  0.0078864 0.0000
  8  -2482.4533848823  -0.000559389302 0.00936567  0.00006240  0.0057565 0.0000
  9  -2482.4535728777  -0.000187995395 0.00530105  0.00003446  0.0022063 0.0000
 10  -2482.4536402058  -0.000067328113 0.01239327  0.00005302  0.0009788 0.0000
 11  -2482.4536978377  -0.000057631936 0.00388705  0.00002627  0.0009258 0.0000
 12  -2482.4537171351  -0.000019297392 0.00465955  0.00002094  0.0004470 0.0000
 13  -2482.4537240804  -0.000006945296 0.00330362  0.00001113  0.0002010 0.0000
 14  -2482.4537252319  -0.000001151459 0.00131960  0.00000735  0.0000763 0.0000
 15  -2482.4537253777  -0.000000145785 0.00648451  0.00001792  0.0000795 0.0000
                 **** Energy Check signals convergence ****

               *****************************************************
               *                     SUCCESS                       *
               *           SCF CONVERGED AFTER  16 CYCLES          *
               *****************************************************


----------------
TOTAL SCF ENERGY
----------------

Total Energy       :        -2482.45372542 Eh          -67551.00010 eV

Components:
Nuclear Repulsion  :         1966.35398514 Eh           53507.21219 eV
Electronic Energy  :        -4448.80771057 Eh         -121058.21229 eV
One Electron Energy:        -7388.77727922 Eh         -201058.85140 eV
Two Electron Energy:         2939.96956865 Eh           80000.63912 eV

Virial components:
Potential Energy   :        -4916.33926597 Eh         -133780.39269 eV
Kinetic Energy     :         2433.88554055 Eh           66229.39260 eV
Virial Ratio       :            2.01995500


DFT components:
N(Alpha)           :       83.000015101549 electrons
N(Beta)            :       83.000015101549 electrons
N(Total)           :      166.000030203098 electrons
E(X)               :      -89.412102804957 Eh       
E(C)               :       -4.543011023954 Eh       
E(XC)              :      -93.955113828912 Eh       
DFET-embed. en.    :        0.000000000000 Eh       

---------------
SCF CONVERGENCE
---------------

  Last Energy change         ...   -4.3313e-08  Tolerance :   1.0000e-06
  Last MAX-Density change    ...    4.9298e-03  Tolerance :   1.0000e-05
  Last RMS-Density change    ...    1.8421e-05  Tolerance :   1.0000e-06
  Last DIIS Error            ...    3.5851e-05  Tolerance :   1.0000e-06

             **** THE GBW FILE WAS UPDATED (TMB08_T1.gbw) ****
             **** DENSITY FILE WAS UPDATED (TMB08_T1.scfp) ****
             **** ENERGY FILE WAS UPDATED (TMB08_T1.en.tmp) ****
             **** THE GBW FILE WAS UPDATED (TMB08_T1.gbw) ****
             **** DENSITY FILE WAS UPDATED (TMB08_T1.scfp) ****
----------------
ORBITAL ENERGIES
----------------

  NO   OCC          E(Eh)            E(eV) 
   0   2.0000     -90.144644     -2452.9605 
   1   2.0000     -89.982868     -2448.5583 
   2   2.0000     -89.981020     -2448.5080 
   3   2.0000     -89.980412     -2448.4915 
   4   2.0000     -89.979737     -2448.4731 
   5   2.0000     -19.617988      -533.8326 
   6   2.0000     -19.575856      -532.6861 
   7   2.0000     -10.557831      -287.2932 
   8   2.0000     -10.557275      -287.2781 
   9   2.0000     -10.528613      -286.4981 
  10   2.0000     -10.494744      -285.5765 
  11   2.0000     -10.493545      -285.5439 
  12   2.0000     -10.493274      -285.5365 
  13   2.0000     -10.492070      -285.5038 
  14   2.0000      -8.340486      -226.9562 
  15   2.0000      -8.189378      -222.8443 
  16   2.0000      -8.187268      -222.7869 
  17   2.0000      -8.186486      -222.7656 
  18   2.0000      -8.185629      -222.7423 
  19   2.0000      -6.186176      -168.3344 
  20   2.0000      -6.185370      -168.3125 
  21   2.0000      -6.182546      -168.2356 
  22   2.0000      -6.035634      -164.2380 
  23   2.0000      -6.033499      -164.1799 
  24   2.0000      -6.032723      -164.1588 
  25   2.0000      -6.032469      -164.1518 
  26   2.0000      -6.032099      -164.1418 
  27   2.0000      -6.031945      -164.1376 
  28   2.0000      -6.030234      -164.0910 
  29   2.0000      -6.030103      -164.0875 
  30   2.0000      -6.029608      -164.0740 
  31   2.0000      -6.029068      -164.0593 
  32   2.0000      -6.028558      -164.0454 
  33   2.0000      -6.028380      -164.0406 
  34   2.0000      -2.670323       -72.6632 
  35   2.0000      -1.610748       -43.8307 
  36   2.0000      -1.602559       -43.6078 
  37   2.0000      -1.592212       -43.3263 
  38   2.0000      -0.994426       -27.0597 
  39   2.0000      -0.963311       -26.2130 
  40   2.0000      -0.834720       -22.7139 
  41   2.0000      -0.787915       -21.4403 
  42   2.0000      -0.785086       -21.3633 
  43   2.0000      -0.734482       -19.9863 
  44   2.0000      -0.675204       -18.3732 
  45   2.0000      -0.672198       -18.2915 
  46   2.0000      -0.638479       -17.3739 
  47   2.0000      -0.617253       -16.7963 
  48   2.0000      -0.600593       -16.3430 
  49   2.0000      -0.586628       -15.9629 
  50   2.0000      -0.464836       -12.6488 
  51   2.0000      -0.460125       -12.5206 
  52   2.0000      -0.450048       -12.2464 
  53   2.0000      -0.445128       -12.1126 
  54   2.0000      -0.431775       -11.7492 
  55   2.0000      -0.408446       -11.1144 
  56   2.0000      -0.406267       -11.0551 
  57   2.0000      -0.403902       -10.9907 
  58   2.0000      -0.395818       -10.7708 
  59   2.0000      -0.394469       -10.7340 
  60   2.0000      -0.381549       -10.3825 
  61   2.0000      -0.363530        -9.8922 
  62   2.0000      -0.342272        -9.3137 
  63   2.0000      -0.323314        -8.7978 
  64   2.0000      -0.310691        -8.4543 
  65   2.0000      -0.296712        -8.0740 
  66   2.0000      -0.288090        -7.8393 
  67   2.0000      -0.271565        -7.3897 
  68   2.0000      -0.264654        -7.2016 
  69   2.0000      -0.256015        -6.9665 
  70   2.0000      -0.251234        -6.8364 
  71   2.0000      -0.239556        -6.5187 
  72   2.0000      -0.222415        -6.0522 
  73   2.0000      -0.218582        -5.9479 
  74   2.0000      -0.205516        -5.5924 
  75   2.0000      -0.185825        -5.0566 
  76   2.0000      -0.166020        -4.5176 
  77   2.0000      -0.163769        -4.4564 
  78   2.0000      -0.146125        -3.9763 
  79   2.0000      -0.141176        -3.8416 
  80   2.0000      -0.112159        -3.0520 
  81   2.0000      -0.092124        -2.5068 
  82   2.0000      -0.070108        -1.9077 
  83   0.0000       0.086304         2.3485 
  84   0.0000       0.103383         2.8132 
  85   0.0000       0.111379         3.0308 
  86   0.0000       0.116623         3.1735 
  87   0.0000       0.121504         3.3063 
  88   0.0000       0.124316         3.3828 
  89   0.0000       0.128949         3.5089 
  90   0.0000       0.130882         3.5615 
  91   0.0000       0.135666         3.6917 
  92   0.0000       0.137792         3.7495 
  93   0.0000       0.140467         3.8223 
  94   0.0000       0.153158         4.1676 
  95   0.0000       0.162053         4.4097 
  96   0.0000       0.165989         4.5168 
  97   0.0000       0.167544         4.5591 
  98   0.0000       0.171077         4.6552 
  99   0.0000       0.171932         4.6785 
 100   0.0000       0.175800         4.7838 
 101   0.0000       0.180499         4.9116 
 102   0.0000       0.181703         4.9444 
 103   0.0000       0.188250         5.1226 
 104   0.0000       0.190168         5.1747 
 105   0.0000       0.195742         5.3264 
 106   0.0000       0.201215         5.4753 
 107   0.0000       0.203007         5.5241 
 108   0.0000       0.209337         5.6963 
 109   0.0000       0.210026         5.7151 
 110   0.0000       0.214347         5.8327 
 111   0.0000       0.219903         5.9839 
 112   0.0000       0.220917         6.0115 
 113   0.0000       0.225043         6.1237 
 114   0.0000       0.226131         6.1533 
 115   0.0000       0.231377         6.2961 
 116   0.0000       0.244150         6.6437 
 117   0.0000       0.244567         6.6550 
 118   0.0000       0.248878         6.7723 
 119   0.0000       0.253118         6.8877 
 120   0.0000       0.255683         6.9575 
 121   0.0000       0.257252         7.0002 
 122   0.0000       0.261835         7.1249 
 123   0.0000       0.262594         7.1456 
 124   0.0000       0.265433         7.2228 
 125   0.0000       0.269850         7.3430 
 126   0.0000       0.273818         7.4510 
 127   0.0000       0.279146         7.5960 
 128   0.0000       0.282490         7.6869 
 129   0.0000       0.284727         7.7478 
 130   0.0000       0.287478         7.8227 
 131   0.0000       0.290370         7.9014 
 132   0.0000       0.294462         8.0127 
 133   0.0000       0.297562         8.0971 
 134   0.0000       0.305554         8.3145 
 135   0.0000       0.306629         8.3438 
 136   0.0000       0.308811         8.4032 
 137   0.0000       0.312907         8.5146 
 138   0.0000       0.317893         8.6503 
 139   0.0000       0.322453         8.7744 
 140   0.0000       0.324387         8.8270 
 141   0.0000       0.334765         9.1094 
 142   0.0000       0.337856         9.1935 
 143   0.0000       0.338893         9.2217 
 144   0.0000       0.345857         9.4112 
 145   0.0000       0.350815         9.5462 
 146   0.0000       0.351883         9.5752 
 147   0.0000       0.357024         9.7151 
 148   0.0000       0.358901         9.7662 
 149   0.0000       0.363243         9.8843 
 150   0.0000       0.365281         9.9398 
 151   0.0000       0.372536        10.1372 
 152   0.0000       0.373571        10.1654 
 153   0.0000       0.373584        10.1658 
 154   0.0000       0.376115        10.2346 
 155   0.0000       0.380438        10.3523 
 156   0.0000       0.382769        10.4157 
 157   0.0000       0.385058        10.4780 
 158   0.0000       0.388673        10.5763 
 159   0.0000       0.390290        10.6203 
 160   0.0000       0.392918        10.6918 
 161   0.0000       0.398442        10.8422 
 162   0.0000       0.401629        10.9289 
 163   0.0000       0.402534        10.9535 
 164   0.0000       0.405875        11.0444 
 165   0.0000       0.408107        11.1052 
 166   0.0000       0.413089        11.2407 
 167   0.0000       0.416117        11.3231 
 168   0.0000       0.416694        11.3388 
 169   0.0000       0.420920        11.4538 
 170   0.0000       0.425339        11.5741 
 171   0.0000       0.426928        11.6173 
 172   0.0000       0.428793        11.6681 
 173   0.0000       0.430610        11.7175 
 174   0.0000       0.436607        11.8807 
 175   0.0000       0.438183        11.9236 
 176   0.0000       0.439344        11.9551 
 177   0.0000       0.443111        12.0577 
 178   0.0000       0.444235        12.0882 
 179   0.0000       0.450663        12.2632 
 180   0.0000       0.454731        12.3739 
 181   0.0000       0.457425        12.4472 
 182   0.0000       0.460652        12.5350 
 183   0.0000       0.464454        12.6384 
 184   0.0000       0.467007        12.7079 
 185   0.0000       0.469999        12.7893 
 186   0.0000       0.473933        12.8964 
 187   0.0000       0.477121        12.9831 
 188   0.0000       0.482016        13.1163 
 189   0.0000       0.483290        13.1510 
 190   0.0000       0.486317        13.2334 
 191   0.0000       0.486692        13.2436 
 192   0.0000       0.489075        13.3084 
 193   0.0000       0.494200        13.4479 
 194   0.0000       0.496395        13.5076 
 195   0.0000       0.502456        13.6725 
 196   0.0000       0.503118        13.6905 
 197   0.0000       0.505284        13.7495 
 198   0.0000       0.507427        13.8078 
 199   0.0000       0.513614        13.9762 
 200   0.0000       0.516942        14.0667 
 201   0.0000       0.521910        14.2019 
 202   0.0000       0.526483        14.3263 
 203   0.0000       0.530121        14.4253 
 204   0.0000       0.533140        14.5075 
 205   0.0000       0.534543        14.5457 
 206   0.0000       0.539571        14.6825 
 207   0.0000       0.544488        14.8163 
 208   0.0000       0.547659        14.9026 
 209   0.0000       0.549559        14.9543 
 210   0.0000       0.555561        15.1176 
 211   0.0000       0.559842        15.2341 
 212   0.0000       0.561865        15.2891 
 213   0.0000       0.566179        15.4065 
 214   0.0000       0.571707        15.5569 
 215   0.0000       0.574251        15.6262 
 216   0.0000       0.577230        15.7072 
 217   0.0000       0.579219        15.7613 
 218   0.0000       0.581113        15.8129 
 219   0.0000       0.584775        15.9125 
 220   0.0000       0.588847        16.0233 
 221   0.0000       0.594120        16.1668 
 222   0.0000       0.595437        16.2027 
 223   0.0000       0.597615        16.2619 
 224   0.0000       0.599717        16.3191 
 225   0.0000       0.604301        16.4439 
 226   0.0000       0.606018        16.4906 
 227   0.0000       0.609774        16.5928 
 228   0.0000       0.613153        16.6847 
 229   0.0000       0.616242        16.7688 
 230   0.0000       0.618566        16.8320 
 231   0.0000       0.624997        17.0070 
 232   0.0000       0.627809        17.0836 
 233   0.0000       0.629951        17.1418 
 234   0.0000       0.634233        17.2583 
 235   0.0000       0.637536        17.3482 
 236   0.0000       0.640935        17.4407 
 237   0.0000       0.647190        17.6109 
 238   0.0000       0.651157        17.7189 
 239   0.0000       0.653918        17.7940 
 240   0.0000       0.658588        17.9211 
 241   0.0000       0.663770        18.0621 
 242   0.0000       0.666728        18.1426 
 243   0.0000       0.673438        18.3252 
 244   0.0000       0.675827        18.3902 
 245   0.0000       0.685742        18.6600 
 246   0.0000       0.688422        18.7329 
 247   0.0000       0.690366        18.7858 
 248   0.0000       0.691947        18.8288 
 249   0.0000       0.697002        18.9664 
 250   0.0000       0.704204        19.1624 
 251   0.0000       0.708385        19.2761 
 252   0.0000       0.713452        19.4140 
 253   0.0000       0.721917        19.6444 
 254   0.0000       0.723572        19.6894 
 255   0.0000       0.726223        19.7615 
 256   0.0000       0.731020        19.8921 
 257   0.0000       0.735667        20.0185 
 258   0.0000       0.739948        20.1350 
 259   0.0000       0.741082        20.1659 
 260   0.0000       0.746961        20.3258 
 261   0.0000       0.753187        20.4953 
 262   0.0000       0.757260        20.6061 
 263   0.0000       0.760645        20.6982 
 264   0.0000       0.770765        20.9736 
 265   0.0000       0.773020        21.0349 
 266   0.0000       0.779994        21.2247 
 267   0.0000       0.780714        21.2443 
 268   0.0000       0.787329        21.4243 
 269   0.0000       0.791130        21.5278 
 270   0.0000       0.793258        21.5857 
 271   0.0000       0.793648        21.5962 
 272   0.0000       0.800805        21.7910 
 273   0.0000       0.805126        21.9086 
 274   0.0000       0.809855        22.0373 
 275   0.0000       0.812823        22.1180 
 276   0.0000       0.820970        22.3397 
 277   0.0000       0.824109        22.4252 
 278   0.0000       0.828350        22.5405 
 279   0.0000       0.830020        22.5860 
 280   0.0000       0.833828        22.6896 
 281   0.0000       0.838104        22.8060 
 282   0.0000       0.839694        22.8492 
 283   0.0000       0.842937        22.9375 
 284   0.0000       0.848536        23.0898 
 285   0.0000       0.852515        23.1981 
 286   0.0000       0.857969        23.3465 
 287   0.0000       0.860023        23.4024 
 288   0.0000       0.865564        23.5532 
 289   0.0000       0.868069        23.6213 
 290   0.0000       0.870895        23.6983 
 291   0.0000       0.873566        23.7709 
 292   0.0000       0.875531        23.8244 
 293   0.0000       0.877974        23.8909 
 294   0.0000       0.880374        23.9562 
 295   0.0000       0.884469        24.0676 
 296   0.0000       0.887447        24.1487 
 297   0.0000       0.891205        24.2509 
 298   0.0000       0.894687        24.3457 
 299   0.0000       0.896132        24.3850 
 300   0.0000       0.901567        24.5329 
 301   0.0000       0.905799        24.6480 
 302   0.0000       0.908855        24.7312 
 303   0.0000       0.913261        24.8511 
 304   0.0000       0.916245        24.9323 
 305   0.0000       0.918752        25.0005 
 306   0.0000       0.924304        25.1516 
 307   0.0000       0.928528        25.2665 
 308   0.0000       0.931328        25.3427 
 309   0.0000       0.934035        25.4164 
 310   0.0000       0.940574        25.5943 
 311   0.0000       0.942948        25.6589 
 312   0.0000       0.950029        25.8516 
 313   0.0000       0.958790        26.0900 
 314   0.0000       0.963420        26.2160 
 315   0.0000       0.971066        26.4241 
 316   0.0000       0.972511        26.4634 
 317   0.0000       0.975575        26.5467 
 318   0.0000       0.982404        26.7326 
 319   0.0000       0.988582        26.9007 
 320   0.0000       0.998365        27.1669 
 321   0.0000       0.999097        27.1868 
 322   0.0000       1.006397        27.3854 
 323   0.0000       1.008533        27.4436 
 324   0.0000       1.014566        27.6078 
 325   0.0000       1.018824        27.7236 
 326   0.0000       1.022604        27.8265 
 327   0.0000       1.033189        28.1145 
 328   0.0000       1.036437        28.2029 
 329   0.0000       1.039274        28.2801 
 330   0.0000       1.044841        28.4316 
 331   0.0000       1.054975        28.7073 
 332   0.0000       1.057216        28.7683 
 333   0.0000       1.065130        28.9837 
 334   0.0000       1.070172        29.1209 
 335   0.0000       1.074973        29.2515 
 336   0.0000       1.081580        29.4313 
 337   0.0000       1.089143        29.6371 
 338   0.0000       1.092621        29.7317 
 339   0.0000       1.101061        29.9614 
 340   0.0000       1.101740        29.9799 
 341   0.0000       1.110228        30.2108 
 342   0.0000       1.118215        30.4282 
 343   0.0000       1.126914        30.6649 
 344   0.0000       1.133233        30.8368 
 345   0.0000       1.134507        30.8715 
 346   0.0000       1.140928        31.0462 
 347   0.0000       1.151423        31.3318 
 348   0.0000       1.153043        31.3759 
 349   0.0000       1.158505        31.5245 
 350   0.0000       1.162372        31.6297 
 351   0.0000       1.169479        31.8231 
 352   0.0000       1.176794        32.0222 
 353   0.0000       1.183341        32.2003 
 354   0.0000       1.191283        32.4165 
 355   0.0000       1.198822        32.6216 
 356   0.0000       1.210302        32.9340 
 357   0.0000       1.221072        33.2271 
 358   0.0000       1.225057        33.3355 
 359   0.0000       1.225169        33.3386 
 360   0.0000       1.232177        33.5292 
 361   0.0000       1.246507        33.9192 
 362   0.0000       1.252702        34.0878 
 363   0.0000       1.255495        34.1638 
 364   0.0000       1.269002        34.5313 
 365   0.0000       1.284641        34.9569 
 366   0.0000       1.293058        35.1859 
 367   0.0000       1.304365        35.4936 
 368   0.0000       1.309539        35.6344 
 369   0.0000       1.316278        35.8177 
 370   0.0000       1.321800        35.9680 
 371   0.0000       1.322948        35.9993 
 372   0.0000       1.334988        36.3269 
 373   0.0000       1.344366        36.5820 
 374   0.0000       1.346187        36.6316 
 375   0.0000       1.358193        36.9583 
 376   0.0000       1.367438        37.2099 
 377   0.0000       1.373439        37.3732 
 378   0.0000       1.378967        37.5236 
 379   0.0000       1.382976        37.6327 
 380   0.0000       1.396344        37.9965 
 381   0.0000       1.401180        38.1280 
 382   0.0000       1.404997        38.2319 
 383   0.0000       1.416342        38.5406 
 384   0.0000       1.422757        38.7152 
 385   0.0000       1.426188        38.8086 
 386   0.0000       1.433990        39.0208 
 387   0.0000       1.459151        39.7055 
 388   0.0000       1.461803        39.7777 
 389   0.0000       1.467571        39.9346 
 390   0.0000       1.472878        40.0790 
 391   0.0000       1.473234        40.0887 
 392   0.0000       1.492769        40.6203 
 393   0.0000       1.500924        40.8422 
 394   0.0000       1.501798        40.8660 
 395   0.0000       1.505815        40.9753 
 396   0.0000       1.519353        41.3437 
 397   0.0000       1.523182        41.4479 
 398   0.0000       1.523547        41.4578 
 399   0.0000       1.534547        41.7571 
 400   0.0000       1.539788        41.8998 
 401   0.0000       1.545348        42.0511 
 402   0.0000       1.563125        42.5348 
 403   0.0000       1.565126        42.5892 
 404   0.0000       1.570603        42.7383 
 405   0.0000       1.572130        42.7798 
 406   0.0000       1.578092        42.9421 
 407   0.0000       1.590949        43.2919 
 408   0.0000       1.596280        43.4370 
 409   0.0000       1.601879        43.5893 
 410   0.0000       1.611226        43.8437 
 411   0.0000       1.621195        44.1150 
 412   0.0000       1.628098        44.3028 
 413   0.0000       1.632908        44.4337 
 414   0.0000       1.640831        44.6493 
 415   0.0000       1.643772        44.7293 
 416   0.0000       1.646222        44.7960 
 417   0.0000       1.659307        45.1520 
 418   0.0000       1.666500        45.3478 
 419   0.0000       1.671546        45.4851 
 420   0.0000       1.681186        45.7474 
 421   0.0000       1.685115        45.8543 
 422   0.0000       1.704853        46.3914 
 423   0.0000       1.716837        46.7175 
 424   0.0000       1.726944        46.9925 
 425   0.0000       1.730009        47.0759 
 426   0.0000       1.747902        47.5628 
 427   0.0000       1.760307        47.9004 
 428   0.0000       1.765465        48.0407 
 429   0.0000       1.778073        48.3838 
 430   0.0000       1.784755        48.5657 
 431   0.0000       1.791121        48.7389 
 432   0.0000       1.796212        48.8774 
 433   0.0000       1.808937        49.2237 
 434   0.0000       1.814408        49.3726 
 435   0.0000       1.839081        50.0439 
 436   0.0000       1.842133        50.1270 
 437   0.0000       1.853307        50.4310 
 438   0.0000       1.864439        50.7340 
 439   0.0000       1.871105        50.9154 
 440   0.0000       1.875547        51.0362 
 441   0.0000       1.885025        51.2941 
 442   0.0000       1.889257        51.4093 
 443   0.0000       1.896676        51.6112 
 444   0.0000       1.906429        51.8766 
 445   0.0000       1.914054        52.0841 
 446   0.0000       1.923564        52.3428 
 447   0.0000       1.927964        52.4626 
 448   0.0000       1.930896        52.5424 
 449   0.0000       1.939477        52.7759 
 450   0.0000       1.954457        53.1835 
 451   0.0000       1.962713        53.4081 
 452   0.0000       1.965793        53.4919 
 453   0.0000       1.971447        53.6458 
 454   0.0000       1.976015        53.7701 
 455   0.0000       1.981306        53.9141 
 456   0.0000       1.985325        54.0234 
 457   0.0000       1.992930        54.2304 
 458   0.0000       1.995157        54.2910 
 459   0.0000       2.000588        54.4388 
 460   0.0000       2.007605        54.6297 
 461   0.0000       2.017797        54.9071 
 462   0.0000       2.025249        55.1098 
 463   0.0000       2.026622        55.1472 
 464   0.0000       2.031197        55.2717 
 465   0.0000       2.039218        55.4900 
 466   0.0000       2.045209        55.6530 
 467   0.0000       2.047006        55.7019 
 468   0.0000       2.052014        55.8381 
 469   0.0000       2.055392        55.9301 
 470   0.0000       2.059173        56.0330 
 471   0.0000       2.065903        56.2161 
 472   0.0000       2.070471        56.3404 
 473   0.0000       2.072598        56.3983 
 474   0.0000       2.079678        56.5909 
 475   0.0000       2.088040        56.8184 
 476   0.0000       2.091225        56.9051 
 477   0.0000       2.101515        57.1851 
 478   0.0000       2.104753        57.2732 
 479   0.0000       2.109022        57.3894 
 480   0.0000       2.120097        57.6908 
 481   0.0000       2.132449        58.0269 
 482   0.0000       2.135626        58.1133 
 483   0.0000       2.141491        58.2729 
 484   0.0000       2.149987        58.5041 
 485   0.0000       2.155314        58.6491 
 486   0.0000       2.160266        58.7838 
 487   0.0000       2.162648        58.8486 
 488   0.0000       2.173128        59.1338 
 489   0.0000       2.180020        59.3214 
 490   0.0000       2.190735        59.6129 
 491   0.0000       2.197070        59.7853 
 492   0.0000       2.209336        60.1191 
 493   0.0000       2.212624        60.2086 
 494   0.0000       2.225264        60.5525 
 495   0.0000       2.237611        60.8885 
 496   0.0000       2.243023        61.0357 
 497   0.0000       2.250544        61.2404 
 498   0.0000       2.257379        61.4264 
 499   0.0000       2.263258        61.5864 
 500   0.0000       2.265409        61.6449 
 501   0.0000       2.279615        62.0315 
 502   0.0000       2.283984        62.1504 
 503   0.0000       2.294167        62.4274 
 504   0.0000       2.300805        62.6081 
 505   0.0000       2.307158        62.7810 
 506   0.0000       2.311266        62.8927 
 507   0.0000       2.322800        63.2066 
 508   0.0000       2.330123        63.4059 
 509   0.0000       2.335806        63.5605 
 510   0.0000       2.340566        63.6900 
 511   0.0000       2.344604        63.7999 
 512   0.0000       2.354467        64.0683 
 513   0.0000       2.360249        64.2256 
 514   0.0000       2.382107        64.8204 
 515   0.0000       2.387197        64.9589 
 516   0.0000       2.387553        64.9686 
 517   0.0000       2.397484        65.2389 
 518   0.0000       2.411389        65.6172 
 519   0.0000       2.419767        65.8452 
 520   0.0000       2.429545        66.1113 
 521   0.0000       2.449824        66.6631 
 522   0.0000       2.456306        66.8395 
 523   0.0000       2.459585        66.9287 
 524   0.0000       2.464610        67.0655 
 525   0.0000       2.472763        67.2873 
 526   0.0000       2.479661        67.4750 
 527   0.0000       2.497272        67.9542 
 528   0.0000       2.515655        68.4544 
 529   0.0000       2.521634        68.6171 
 530   0.0000       2.534535        68.9682 
 531   0.0000       2.536683        69.0266 
 532   0.0000       2.548795        69.3562 
 533   0.0000       2.564369        69.7800 
 534   0.0000       2.570482        69.9464 
 535   0.0000       2.572099        69.9904 
 536   0.0000       2.587506        70.4096 
 537   0.0000       2.592499        70.5455 
 538   0.0000       2.600584        70.7655 
 539   0.0000       2.611747        71.0692 
 540   0.0000       2.627570        71.4998 
 541   0.0000       2.640690        71.8568 
 542   0.0000       2.652945        72.1903 
 543   0.0000       2.664457        72.5036 
 544   0.0000       2.686519        73.1039 
 545   0.0000       2.696165        73.3664 
 546   0.0000       2.715500        73.8925 
 547   0.0000       2.732944        74.3672 
 548   0.0000       2.755127        74.9708 
 549   0.0000       2.759202        75.0817 
 550   0.0000       2.775767        75.5325 
 551   0.0000       2.800168        76.1964 
 552   0.0000       2.832482        77.0757 
 553   0.0000       2.833643        77.1074 
 554   0.0000       2.858838        77.7930 
 555   0.0000       2.864183        77.9384 
 556   0.0000       2.881282        78.4037 
 557   0.0000       2.912495        79.2530 
 558   0.0000       2.916098        79.3511 
 559   0.0000       2.923557        79.5540 
 560   0.0000       2.937052        79.9213 
 561   0.0000       2.946956        80.1908 
 562   0.0000       2.957378        80.4743 
 563   0.0000       2.974637        80.9440 
 564   0.0000       2.977674        81.0266 
 565   0.0000       2.998211        81.5855 
 566   0.0000       3.007046        81.8259 
 567   0.0000       3.037325        82.6498 
 568   0.0000       3.049467        82.9802 
 569   0.0000       3.054006        83.1037 
 570   0.0000       3.059992        83.2666 
 571   0.0000       3.066202        83.4356 
 572   0.0000       3.069689        83.5305 
 573   0.0000       3.080151        83.8152 
 574   0.0000       3.086785        83.9957 
 575   0.0000       3.096863        84.2699 
 576   0.0000       3.099882        84.3521 
 577   0.0000       3.108657        84.5909 
 578   0.0000       3.120553        84.9146 
 579   0.0000       3.123548        84.9961 
 580   0.0000       3.129970        85.1708 
 581   0.0000       3.137160        85.3665 
 582   0.0000       3.146535        85.6216 
 583   0.0000       3.163799        86.0913 
 584   0.0000       3.170460        86.2726 
 585   0.0000       3.181643        86.5769 
 586   0.0000       3.192915        86.8836 
 587   0.0000       3.206379        87.2500 
 588   0.0000       3.214166        87.4619 
 589   0.0000       3.228672        87.8566 
 590   0.0000       3.231475        87.9329 
 591   0.0000       3.245919        88.3259 
 592   0.0000       3.248235        88.3890 
 593   0.0000       3.271510        89.0223 
 594   0.0000       3.280531        89.2678 
 595   0.0000       3.286171        89.4213 
 596   0.0000       3.292286        89.5877 
 597   0.0000       3.303576        89.8949 
 598   0.0000       3.310508        90.0835 
 599   0.0000       3.318251        90.2942 
 600   0.0000       3.327061        90.5339 
 601   0.0000       3.337976        90.8309 
 602   0.0000       3.345192        91.0273 
 603   0.0000       3.352703        91.2317 
 604   0.0000       3.357265        91.3558 
 605   0.0000       3.361966        91.4837 
 606   0.0000       3.366981        91.6202 
 607   0.0000       3.373577        91.7997 
 608   0.0000       3.380533        91.9890 
 609   0.0000       3.382808        92.0509 
 610   0.0000       3.391641        92.2912 
 611   0.0000       3.395430        92.3944 
 612   0.0000       3.412631        92.8624 
 613   0.0000       3.423644        93.1621 
 614   0.0000       3.428680        93.2991 
 615   0.0000       3.430017        93.3355 
 616   0.0000       3.445469        93.7560 
 617   0.0000       3.463543        94.2478 
 618   0.0000       3.469606        94.4128 
 619   0.0000       3.471358        94.4604 
 620   0.0000       3.477670        94.6322 
 621   0.0000       3.492983        95.0489 
 622   0.0000       3.495150        95.1079 
 623   0.0000       3.502002        95.2943 
 624   0.0000       3.523400        95.8766 
 625   0.0000       3.529328        96.0379 
 626   0.0000       3.552991        96.6818 
 627   0.0000       3.559812        96.8674 
 628   0.0000       3.562102        96.9297 
 629   0.0000       3.569327        97.1263 
 630   0.0000       3.577700        97.3542 
 631   0.0000       3.581002        97.4440 
 632   0.0000       3.589226        97.6678 
 633   0.0000       3.597571        97.8949 
 634   0.0000       3.601201        97.9937 
 635   0.0000       3.623064        98.5886 
 636   0.0000       3.631411        98.8157 
 637   0.0000       3.648890        99.2913 
 638   0.0000       3.666096        99.7596 
 639   0.0000       3.681749       100.1855 
 640   0.0000       3.685368       100.2840 
 641   0.0000       3.704343       100.8003 
 642   0.0000       3.717983       101.1714 
 643   0.0000       3.725817       101.3846 
 644   0.0000       3.738204       101.7217 
 645   0.0000       3.744237       101.8859 
 646   0.0000       3.756691       102.2248 
 647   0.0000       3.759327       102.2965 
 648   0.0000       3.763293       102.4044 
 649   0.0000       3.769346       102.5691 
 650   0.0000       3.773689       102.6873 
 651   0.0000       3.777539       102.7921 
 652   0.0000       3.778967       102.8309 
 653   0.0000       3.787622       103.0664 
 654   0.0000       3.794414       103.2513 
 655   0.0000       3.800029       103.4041 
 656   0.0000       3.804428       103.5238 
 657   0.0000       3.813389       103.7676 
 658   0.0000       3.818043       103.8942 
 659   0.0000       3.823766       104.0500 
 660   0.0000       3.831073       104.2488 
 661   0.0000       3.859669       105.0269 
 662   0.0000       3.862691       105.1092 
 663   0.0000       3.866404       105.2102 
 664   0.0000       3.875517       105.4582 
 665   0.0000       3.908888       106.3662 
 666   0.0000       3.918394       106.6249 
 667   0.0000       3.942831       107.2899 
 668   0.0000       3.950236       107.4914 
 669   0.0000       3.957966       107.7017 
 670   0.0000       3.966481       107.9334 
 671   0.0000       4.014196       109.2318 
 672   0.0000       4.024952       109.5245 
 673   0.0000       4.028460       109.6200 
 674   0.0000       4.034840       109.7936 
 675   0.0000       4.038879       109.9035 
 676   0.0000       4.046402       110.1082 
 677   0.0000       4.058007       110.4240 
 678   0.0000       4.071179       110.7824 
 679   0.0000       4.077630       110.9579 
 680   0.0000       4.088466       111.2528 
 681   0.0000       4.097485       111.4982 
 682   0.0000       4.099244       111.5461 
 683   0.0000       4.107267       111.7644 
 684   0.0000       4.115097       111.9775 
 685   0.0000       4.122480       112.1784 
 686   0.0000       4.141461       112.6949 
 687   0.0000       4.151236       112.9609 
 688   0.0000       4.167197       113.3952 
 689   0.0000       4.184313       113.8610 
 690   0.0000       4.185958       113.9057 
 691   0.0000       4.187339       113.9433 
 692   0.0000       4.199605       114.2771 
 693   0.0000       4.202586       114.3582 
 694   0.0000       4.212321       114.6231 
 695   0.0000       4.216844       114.7462 
 696   0.0000       4.240089       115.3787 
 697   0.0000       4.241252       115.4103 
 698   0.0000       4.250601       115.6647 
 699   0.0000       4.280793       116.4863 
 700   0.0000       4.308803       117.2485 
 701   0.0000       4.321444       117.5925 
 702   0.0000       4.332026       117.8804 
 703   0.0000       4.338762       118.0637 
 704   0.0000       4.352421       118.4354 
 705   0.0000       4.365374       118.7879 
 706   0.0000       4.379787       119.1801 
 707   0.0000       4.389409       119.4419 
 708   0.0000       4.390818       119.4802 
 709   0.0000       4.410206       120.0078 
 710   0.0000       4.415606       120.1547 
 711   0.0000       4.425594       120.4265 
 712   0.0000       4.451376       121.1281 
 713   0.0000       4.475420       121.7824 
 714   0.0000       4.491285       122.2141 
 715   0.0000       4.498043       122.3980 
 716   0.0000       4.505512       122.6012 
 717   0.0000       4.522248       123.0566 
 718   0.0000       4.529243       123.2470 
 719   0.0000       4.537790       123.4795 
 720   0.0000       4.538559       123.5005 
 721   0.0000       4.552929       123.8915 
 722   0.0000       4.559903       124.0813 
 723   0.0000       4.592561       124.9699 
 724   0.0000       4.621254       125.7507 
 725   0.0000       4.644918       126.3946 
 726   0.0000       4.647391       126.4619 
 727   0.0000       4.656522       126.7104 
 728   0.0000       4.663398       126.8975 
 729   0.0000       4.690060       127.6230 
 730   0.0000       4.699352       127.8759 
 731   0.0000       4.704400       128.0132 
 732   0.0000       4.714281       128.2821 
 733   0.0000       4.732614       128.7810 
 734   0.0000       4.843895       131.8091 
 735   0.0000       4.856858       132.1618 
 736   0.0000       4.865904       132.4080 
 737   0.0000       4.874362       132.6381 
 738   0.0000       4.890822       133.0860 
 739   0.0000       4.904189       133.4498 
 740   0.0000       4.914696       133.7357 
 741   0.0000       4.928984       134.1245 
 742   0.0000       4.932135       134.2102 
 743   0.0000       4.948688       134.6606 
 744   0.0000       4.951319       134.7322 
 745   0.0000       4.952855       134.7740 
 746   0.0000       4.997347       135.9847 
 747   0.0000       5.162386       140.4757 
 748   0.0000       5.189807       141.2218 
 749   0.0000       5.194784       141.3573 
 750   0.0000       5.225893       142.2038 
 751   0.0000       5.234393       142.4351 
 752   0.0000       5.241112       142.6179 
 753   0.0000       5.250279       142.8673 
 754   0.0000       5.251989       142.9139 
 755   0.0000       5.257434       143.0620 
 756   0.0000       5.263151       143.2176 
 757   0.0000       5.272230       143.4647 
 758   0.0000       5.285936       143.8376 
 759   0.0000       5.290639       143.9656 
 760   0.0000       5.300963       144.2465 
 761   0.0000       5.315292       144.6365 
 762   0.0000       5.331993       145.0909 
 763   0.0000       5.382577       146.4674 
 764   0.0000       5.402841       147.0188 
 765   0.0000       5.435205       147.8994 
 766   0.0000       5.436536       147.9357 
 767   0.0000       5.450061       148.3037 
 768   0.0000       5.469846       148.8421 
 769   0.0000       5.489433       149.3751 
 770   0.0000       5.496933       149.5792 
 771   0.0000       5.525674       150.3612 
 772   0.0000       5.538682       150.7152 
 773   0.0000       5.560822       151.3177 
 774   0.0000       5.585946       152.0013 
 775   0.0000       5.596582       152.2907 
 776   0.0000       5.603302       152.4736 
 777   0.0000       5.615816       152.8141 
 778   0.0000       5.639466       153.4577 
 779   0.0000       5.663219       154.1040 
 780   0.0000       5.676164       154.4563 
 781   0.0000       5.682526       154.6294 
 782   0.0000       5.685800       154.7185 
 783   0.0000       5.694445       154.9537 
 784   0.0000       5.696288       155.0039 
 785   0.0000       5.705270       155.2483 
 786   0.0000       5.713577       155.4743 
 787   0.0000       5.739998       156.1933 
 788   0.0000       5.747461       156.3964 
 789   0.0000       5.796299       157.7253 
 790   0.0000       5.860115       159.4618 
 791   0.0000       5.888994       160.2477 
 792   0.0000       5.902041       160.6027 
 793   0.0000       5.916895       161.0069 
 794   0.0000       5.926179       161.2595 
 795   0.0000       5.964299       162.2968 
 796   0.0000       5.981951       162.7772 
 797   0.0000       6.043446       164.4505 
 798   0.0000       6.046274       164.5275 
 799   0.0000       6.065533       165.0515 
 800   0.0000       6.109998       166.2615 
 801   0.0000       6.154440       167.4708 
 802   0.0000       6.394513       174.0035 
 803   0.0000       6.545408       178.1096 
 804   0.0000       6.718088       182.8085 
 805   0.0000       6.947343       189.0468 
 806   0.0000       7.006614       190.6597 
 807   0.0000       7.050835       191.8630 
 808   0.0000       7.084891       192.7897 
 809   0.0000       7.102461       193.2678 
 810   0.0000       7.195949       195.8117 
 811   0.0000       7.239908       197.0079 
 812   0.0000       7.248083       197.2304 
 813   0.0000       7.261964       197.6081 
 814   0.0000       7.270683       197.8453 
 815   0.0000       7.279095       198.0743 
 816   0.0000       7.297677       198.5799 
 817   0.0000       7.306998       198.8335 
 818   0.0000       7.312636       198.9869 
 819   0.0000       7.321851       199.2377 
 820   0.0000       7.329468       199.4450 
 821   0.0000       7.332851       199.5370 
 822   0.0000       7.348546       199.9641 
 823   0.0000       7.354190       200.1177 
 824   0.0000       7.366367       200.4490 
 825   0.0000       7.375286       200.6917 
 826   0.0000       7.402121       201.4219 
 827   0.0000       7.417586       201.8428 
 828   0.0000       7.446346       202.6254 
 829   0.0000       7.494327       203.9310 
 830   0.0000       7.502095       204.1424 
 831   0.0000       7.567224       205.9146 
 832   0.0000       7.580331       206.2713 
 833   0.0000       7.595178       206.6753 
 834   0.0000       7.616997       207.2690 
 835   0.0000       7.627929       207.5665 
 836   0.0000       7.699032       209.5013 
 837   0.0000       7.718042       210.0186 
 838   0.0000       7.727446       210.2745 
 839   0.0000       7.884584       214.5504 
 840   0.0000       9.545608       259.7492 
 841   0.0000       9.571746       260.4605 
 842   0.0000       9.597676       261.1661 
 843   0.0000       9.624817       261.9046 
 844   0.0000       9.780539       266.1420 
 845   0.0000       9.815181       267.0846 
 846   0.0000       9.824992       267.3516 
 847   0.0000       9.892375       269.1852 
 848   0.0000       9.918591       269.8986 
 849   0.0000       9.955811       270.9114 
 850   0.0000      10.008312       272.3400 
 851   0.0000      10.048163       273.4244 
 852   0.0000      10.066881       273.9337 
 853   0.0000      10.145106       276.0624 
 854   0.0000      10.156518       276.3729 
 855   0.0000      20.736428       564.2669 
 856   0.0000      20.799053       565.9710 
 857   0.0000      20.894829       568.5772 
 858   0.0000      21.220997       577.4527 
 859   0.0000      21.263851       578.6188 
 860   0.0000      23.369675       635.9212 
 861   0.0000      23.386471       636.3782 
 862   0.0000      23.857390       649.1926 
 863   0.0000      23.875956       649.6978 
 864   0.0000      24.093265       655.6111 
 865   0.0000      24.247701       659.8135 
 866   0.0000      24.324324       661.8985 
 867   0.0000      25.343730       689.6380 
 868   0.0000      44.989893      1224.2372 
 869   0.0000      45.211961      1230.2800 
 870   0.0000      84.724171      2305.4619 

                    ********************************
                    * MULLIKEN POPULATION ANALYSIS *
                    ********************************

-----------------------
MULLIKEN ATOMIC CHARGES
-----------------------
   0 O :   -0.341124
   1 Mo:    0.348780
   2 O :   -0.313008
   3 S :   -0.357205
   4 C :    0.163510
   5 C :    0.195302
   6 S :   -0.366982
   7 S :   -0.398478
   8 C :    0.137625
   9 C :    0.172406
  10 S :   -0.332446
  11 S :    0.181069
  12 C :    0.025971
  13 H :    0.080933
  14 H :   -0.045197
  15 H :    0.140457
  16 C :   -0.164334
  17 H :    0.076504
  18 H :    0.092910
  19 H :    0.070864
  20 C :   -0.267073
  21 H :    0.096507
  22 H :    0.032921
  23 H :    0.092299
  24 H :   -0.090232
  25 H :   -0.074032
  26 H :   -0.081324
  27 H :   -0.076619
Sum of atomic charges:   -1.0000000

--------------------------------
MULLIKEN REDUCED ORBITAL CHARGES
--------------------------------
  0 O s       :     3.587636  s :     3.587636
      pz      :     1.322636  p :     4.762790
      px      :     1.672328
      py      :     1.767826
      dz2     :    -0.027028  d :    -0.010842
      dxz     :     0.011438
      dyz     :     0.006023
      dx2y2   :    -0.001523
      dxy     :     0.000247
      f0      :     0.000651  f :     0.001541
      f+1     :     0.000354
      f-1     :     0.000339
      f+2     :     0.000066
      f-2     :     0.000064
      f+3     :     0.000027
      f-3     :     0.000039
  1 Mos       :     2.470388  s :     2.470388
      pz      :     2.293381  p :     6.793182
      px      :     2.242309
      py      :     2.257491
      dz2     :     1.413679  d :     4.219580
      dxz     :     0.718535
      dyz     :     0.794506
      dx2y2   :     0.670143
      dxy     :     0.622717
      f0      :     0.016276  f :     0.158452
      f+1     :     0.020833
      f-1     :     0.016485
      f+2     :     0.034952
      f-2     :     0.031559
      f+3     :     0.023405
      f-3     :     0.014943
      g0      :     0.000778  g :     0.009618
      g+1     :     0.001105
      g-1     :     0.000616
      g+2     :     0.000994
      g-2     :     0.001209
      g+3     :     0.001579
      g-3     :     0.001722
      g+4     :     0.000818
      g-4     :     0.000797
  2 O s       :     3.761974  s :     3.761974
      pz      :     1.574931  p :     4.549075
      px      :     1.191150
      py      :     1.782994
      dz2     :    -0.009224  d :     0.000907
      dxz     :     0.013061
      dyz     :     0.004297
      dx2y2   :    -0.002549
      dxy     :    -0.004678
      f0      :     0.000083  f :     0.001053
      f+1     :     0.000173
      f-1     :     0.000044
      f+2     :     0.000179
      f-2     :     0.000151
      f+3     :     0.000187
      f-3     :     0.000235
  3 S s       :     5.908574  s :     5.908574
      pz      :     3.592623  p :    10.344614
      px      :     3.282194
      py      :     3.469798
      dz2     :     0.012676  d :     0.091517
      dxz     :     0.027679
      dyz     :     0.015106
      dx2y2   :     0.026601
      dxy     :     0.009455
      f0      :     0.001282  f :     0.012500
      f+1     :     0.002022
      f-1     :     0.000978
      f+2     :     0.001753
      f-2     :     0.002945
      f+3     :     0.001745
      f-3     :     0.001775
  4 C s       :     3.103441  s :     3.103441
      pz      :     0.898579  p :     2.739917
      px      :     0.905530
      py      :     0.935809
      dz2     :    -0.033378  d :    -0.014581
      dxz     :     0.034016
      dyz     :    -0.012090
      dx2y2   :     0.013559
      dxy     :    -0.016688
      f0      :     0.001556  f :     0.007713
      f+1     :     0.001231
      f-1     :     0.001095
      f+2     :     0.001277
      f-2     :     0.001212
      f+3     :     0.000596
      f-3     :     0.000747
  5 C s       :     3.081730  s :     3.081730
      pz      :     0.917487  p :     2.726488
      px      :     0.830595
      py      :     0.978406
      dz2     :    -0.023813  d :    -0.011247
      dxz     :    -0.021299
      dyz     :     0.030735
      dx2y2   :     0.017300
      dxy     :    -0.014171
      f0      :     0.001540  f :     0.007728
      f+1     :     0.001438
      f-1     :     0.000908
      f+2     :     0.001038
      f-2     :     0.001352
      f+3     :     0.000648
      f-3     :     0.000804
  6 S s       :     5.918666  s :     5.918666
      pz      :     3.630268  p :    10.333442
      px      :     3.171971
      py      :     3.531203
      dz2     :     0.016671  d :     0.102241
      dxz     :     0.027679
      dyz     :     0.015264
      dx2y2   :     0.024088
      dxy     :     0.018539
      f0      :     0.001396  f :     0.012633
      f+1     :     0.001875
      f-1     :     0.000920
      f+2     :     0.002492
      f-2     :     0.001898
      f+3     :     0.002019
      f-3     :     0.002033
  7 S s       :     5.914771  s :     5.914771
      pz      :     3.504450  p :    10.406491
      px      :     3.723481
      py      :     3.178560
[...]
      px      :     3.404520
      py      :     2.998566
      dz2     :     0.117199  d :     0.521039
      dxz     :     0.030298
      dyz     :     0.123590
      dx2y2   :     0.130064
      dxy     :     0.119888
      f0      :     0.004579  f :     0.030682
      f+1     :     0.000566
      f-1     :     0.006689
      f+2     :     0.006078
      f-2     :     0.002880
      f+3     :     0.004757
      f-3     :     0.005134
 11 S s       :     4.932730  s :     4.932730
      pz      :     2.965832  p :     8.977439
      px      :     2.903845
      py      :     3.107761
      dz2     :     0.155127  d :     0.934041
      dxz     :     0.284270
      dyz     :     0.170299
      dx2y2   :     0.167820
      dxy     :     0.156526
      f0      :     0.011119  f :     0.082348
      f+1     :     0.016235
      f-1     :     0.008107
      f+2     :     0.014095
      f-2     :     0.012441
      f+3     :     0.009840
      f-3     :     0.010512
 12 C s       :     2.684542  s :     2.684542
      pz      :     0.944646  p :     2.768533
      px      :     0.933863
      py      :     0.890023
      dz2     :     0.138179  d :     0.574070
      dxz     :     0.066008
      dyz     :     0.088663
      dx2y2   :     0.153347
      dxy     :     0.127873
      f0      :     0.005598  f :     0.027477
      f+1     :     0.001006
      f-1     :     0.003266
      f+2     :     0.004232
      f-2     :     0.004400
      f+3     :     0.005609
      f-3     :     0.003365
 13 H s       :     0.702455  s :     0.702455
      pz      :     0.145632  p :     0.311661
      px      :     0.085707
      py      :     0.080322
      dz2     :     0.011097  d :     0.029593
      dxz     :     0.009365
      dyz     :     0.008998
      dx2y2   :     0.000092
      dxy     :     0.000042
 14 H s       :     0.678096  s :     0.678096
      pz      :     0.086481  p :     0.334444
      px      :     0.132152
      py      :     0.115812
      dz2     :     0.004365  d :     0.029239
      dxz     :     0.004167
      dyz     :     0.005172
      dx2y2   :     0.008036
      dxy     :     0.007500
 15 H s       :     0.708709  s :     0.708709
      pz      :     0.089857  p :     0.302751
      px      :     0.130452
      py      :     0.082442
      dz2     :     0.004712  d :     0.029286
      dxz     :     0.008035
      dyz     :     0.001182
      dx2y2   :     0.007167
      dxy     :     0.008190
 16 C s       :     2.696539  s :     2.696539
      pz      :     0.901891  p :     2.790813
      px      :     0.926194
      py      :     0.962728
      dz2     :     0.133835  d :     0.569841
      dxz     :     0.110548
      dyz     :     0.148399
      dx2y2   :     0.124969
      dxy     :     0.052091
      f0      :     0.004448  f :     0.026857
      f+1     :     0.006714
      f-1     :     0.002437
      f+2     :     0.004235
      f-2     :     0.003382
      f+3     :     0.004037
      f-3     :     0.001604
 17 H s       :     0.711103  s :     0.711103
      pz      :     0.095842  p :     0.300745
      px      :     0.088884
      py      :     0.116020
      dz2     :     0.005098  d :     0.029375
      dxz     :     0.003195
      dyz     :     0.007638
      dx2y2   :     0.007458
      dxy     :     0.005986
 18 H s       :     0.720169  s :     0.720169
      pz      :     0.078584  p :     0.298607
      px      :     0.138498
      py      :     0.081524
      dz2     :     0.002819  d :     0.028951
      dxz     :     0.008488
      dyz     :     0.000569
      dx2y2   :     0.007988
      dxy     :     0.009088
 19 H s       :     0.697806  s :     0.697806
      pz      :     0.096954  p :     0.303297
      px      :     0.084521
      py      :     0.121823
      dz2     :     0.006005  d :     0.029586
      dxz     :     0.002909
      dyz     :     0.008614
      dx2y2   :     0.006380
      dxy     :     0.005678
 20 C s       :     2.642957  s :     2.642957
      pz      :     0.750099  p :     2.577376
      px      :     0.911579
      py      :     0.915698
      dz2     :     0.182908  d :     0.783913
      dxz     :     0.226790
      dyz     :     0.208781
      dx2y2   :     0.107181
      dxy     :     0.058254
      f0      :     0.020626  f :     0.071807
      f+1     :     0.017539
      f-1     :     0.019272
      f+2     :     0.003846
      f-2     :     0.005539
      f+3     :     0.000364
      f-3     :     0.004622
 21 H s       :     0.699482  s :     0.699482
      pz      :     0.072903  p :     0.316868
      px      :     0.081259
      py      :     0.162707
      dz2     :     0.003322  d :     0.027049
      dxz     :     0.000455
      dyz     :     0.007718
      dx2y2   :     0.006985
      dxy     :     0.008569
 22 H s       :     0.714187  s :     0.714187
      pz      :     0.063584  p :     0.266660
      px      :     0.111896
      py      :     0.091180
      dz2     :     0.004240  d :     0.026850
      dxz     :     0.005780
      dyz     :     0.003311
      dx2y2   :     0.007575
      dxy     :     0.005944
 23 H s       :     0.698975  s :     0.698975
      pz      :     0.070830  p :     0.313382
      px      :     0.158470
      py      :     0.084082
      dz2     :     0.003600  d :     0.027245
      dxz     :     0.006981
      dyz     :     0.001777
      dx2y2   :     0.007564
      dxy     :     0.007323
 24 H s       :     0.731811  s :     0.731811
      pz      :     0.090834  p :     0.313243
      px      :     0.114718
      py      :     0.107691
      dz2     :     0.005506  d :     0.028702
      dxz     :     0.005560
      dyz     :     0.005076
      dx2y2   :     0.006228
      dxy     :     0.006332
 25 H s       :     0.732168  s :     0.732168
      pz      :     0.086713  p :     0.313611
      px      :     0.131604
      py      :     0.095294
      dz2     :     0.004913  d :     0.028732
      dxz     :     0.007557
      dyz     :     0.002402
      dx2y2   :     0.006693
      dxy     :     0.007168
 26 H s       :     0.731724  s :     0.731724
      pz      :     0.098977  p :     0.314334
      px      :     0.091440
      py      :     0.123917
      dz2     :     0.006896  d :     0.028668
      dxz     :     0.004267
      dyz     :     0.008416
      dx2y2   :     0.004808
      dxy     :     0.004280
 27 H s       :     0.732192  s :     0.732192
      pz      :     0.081549  p :     0.314498
      px      :     0.093633
      py      :     0.139315
      dz2     :     0.004224  d :     0.028778
      dxz     :     0.001303
      dyz     :     0.008097
      dx2y2   :     0.007619
      dxy     :     0.007534


                      *****************************
                      * MAYER POPULATION ANALYSIS *
                      *****************************

  NA   - Mulliken gross atomic population
  ZA   - Total nuclear charge
  QA   - Mulliken gross atomic charge
  VA   - Mayer's total valence
  BVA  - Mayer's bonded valence
  FA   - Mayer's free valence

  ATOM       NA         ZA         QA         VA         BVA        FA
  0 O      8.3411     8.0000    -0.3411     1.4192     1.4192    -0.0000
  1 Mo    13.6512    14.0000     0.3488     6.3974     6.3974    -0.0000
  2 O      8.3130     8.0000    -0.3130     1.3876     1.3876    -0.0000
  3 S     16.3572    16.0000    -0.3572     2.0681     2.0681    -0.0000
  4 C      5.8365     6.0000     0.1635     3.5220     3.5220     0.0000
  5 C      5.8047     6.0000     0.1953     3.4908     3.4908     0.0000
  6 S     16.3670    16.0000    -0.3670     2.1424     2.1424     0.0000
  7 S     16.3985    16.0000    -0.3985     1.9804     1.9804     0.0000
  8 C      5.8624     6.0000     0.1376     3.5390     3.5390     0.0000
  9 C      5.8276     6.0000     0.1724     3.5269     3.5269    -0.0000
 10 S     16.3324    16.0000    -0.3324     2.1271     2.1271    -0.0000
 11 S     15.8189    16.0000     0.1811     3.0021     3.0021    -0.0000
 12 C      5.9740     6.0000     0.0260     3.7595     3.7595    -0.0000
 13 H      0.9191     1.0000     0.0809     1.0583     1.0583    -0.0000
 14 H      1.0452     1.0000    -0.0452     1.2894     1.2894    -0.0000
 15 H      0.8595     1.0000     0.1405     0.9843     0.9843     0.0000
 16 C      6.1643     6.0000    -0.1643     3.8155     3.8155     0.0000
 17 H      0.9235     1.0000     0.0765     1.0795     1.0795     0.0000
 18 H      0.9071     1.0000     0.0929     1.0656     1.0656    -0.0000
 19 H      0.9291     1.0000     0.0709     1.1543     1.1543     0.0000
 20 C      6.2671     6.0000    -0.2671     4.0938     4.0938    -0.0000
 21 H      0.9035     1.0000     0.0965     1.0414     1.0414    -0.0000
 22 H      0.9671     1.0000     0.0329     0.9681     0.9681     0.0000
 23 H      0.9077     1.0000     0.0923     0.9543     0.9543    -0.0000
 24 H      1.0902     1.0000    -0.0902     0.9800     0.9800     0.0000
 25 H      1.0740     1.0000    -0.0740     0.9737     0.9737     0.0000
 26 H      1.0813     1.0000    -0.0813     0.9793     0.9793    -0.0000
 27 H      1.0766     1.0000    -0.0766     0.9790     0.9790     0.0000

  Mayer bond orders larger than 0.100000
B(  0-O ,  1-Mo) :   0.5095 B(  0-O , 11-S ) :   0.1074 B(  0-O , 20-C ) :   0.9566 
B(  1-Mo,  2-O ) :   0.8073 B(  1-Mo,  3-S ) :   1.2373 B(  1-Mo,  6-S ) :   1.2889 
B(  1-Mo,  7-S ) :   1.0501 B(  1-Mo, 10-S ) :   1.1172 B(  1-Mo, 11-S ) :   0.2625 
B(  2-O ,  6-S ) :  -0.1261 B(  2-O , 11-S ) :   0.8100 B(  3-S ,  4-C ) :   0.9224 
B(  4-C ,  5-C ) :   1.6316 B(  4-C , 24-H ) :  -0.1698 B(  4-C , 25-H ) :   1.1509 
B(  5-C ,  6-S ) :   0.9508 B(  5-C , 24-H ) :   1.1509 B(  5-C , 25-H ) :  -0.1696 
B(  7-S ,  8-C ) :   0.9360 B(  8-C ,  9-C ) :   1.6409 B(  8-C , 26-H ) :  -0.1634 
B(  8-C , 27-H ) :   1.1571 B(  9-C , 10-S ) :   0.9702 B(  9-C , 26-H ) :   1.1276 
B(  9-C , 27-H ) :  -0.1602 B( 11-S , 12-C ) :   0.7356 B( 11-S , 14-H ) :   0.1463 
B( 11-S , 16-C ) :   0.8011 B( 12-C , 13-H ) :   1.0060 B( 12-C , 14-H ) :   0.9970 
B( 12-C , 15-H ) :   0.9744 B( 16-C , 17-H ) :   1.0045 B( 16-C , 18-H ) :   1.0209 
B( 16-C , 19-H ) :   1.0105 B( 20-C , 21-H ) :   1.0069 B( 20-C , 22-H ) :   1.0100 
B( 20-C , 23-H ) :   1.0137 

-------
TIMINGS
-------

Total SCF time: 0 days 0 hours 1 min 49 sec 

Total time                  ....     109.409 sec
Sum of individual times     ....     108.295 sec  ( 99.0%)

Fock matrix formation       ....      98.224 sec  ( 89.8%)
  XC integration            ....       7.314 sec  (  7.4% of F)
    Basis function eval.    ....       1.289 sec  ( 17.6% of XC)
    Density eval.           ....       2.377 sec  ( 32.5% of XC)
    XC-Functional eval.     ....       0.073 sec  (  1.0% of XC)
    XC-Potential eval.      ....       2.454 sec  ( 33.6% of XC)
Diagonalization             ....       3.884 sec  (  3.5%)
Density matrix formation    ....       0.194 sec  (  0.2%)
Population analysis         ....       0.168 sec  (  0.2%)
Initial guess               ....       2.400 sec  (  2.2%)
Orbital Transformation      ....       0.000 sec  (  0.0%)
Orbital Orthonormalization  ....       0.000 sec  (  0.0%)
DIIS solution               ....       2.322 sec  (  2.1%)
Grid generation             ....       1.103 sec  (  1.0%)


           ************************************************************
           *        Program running with 24 parallel MPI-processes    *
           *              working on a common directory               *
           ************************************************************

------------------------------------------------------------------------------
                                ORCA  MP2 
------------------------------------------------------------------------------

Freezing NCore=68 chemical core electrons

-------------
RI-MP2 ENERGY
-------------
Dimension of the basis                    ...  871
Memory devoted to MP2                     ... 5000 MB   
Data format for buffers                   ... DOUBLE
Compression type for matrix containers    ... UNCOMPRESSED
Overall scaling of the MP2 energy         ...   2.700e-01
Calculating two index integrals           ... done (    0.037 sec)
Cholesky decomposition of V**-1           ... done (    0.445 sec)

-----------------
RI-TRANSFORMATION (AUX index driven)
-----------------

Dimension of the orbital-basis         ... 871
Dimension of the aux-basis             ... 2206
Transformation of internal/external MOs...   34-  82 to   83- 870
Number Format for Storage              ... Double (8 Byte)
Integral mode                          ... Direct

First Phase: integral generation and transformation of MO indices
  Aux angular momentum 0               ... done (    0.192 sec)
  Aux angular momentum 1               ... done (    0.343 sec)
  Aux angular momentum 2               ... done (    0.564 sec)
  Aux angular momentum 3               ... done (    0.493 sec)
  Aux angular momentum 4               ... done (    0.153 sec)
  Aux angular momentum 5               ... done (    0.184 sec)
  Aux angular momentum 6               ... done (    0.234 sec)
Closing buffer VIA ( 0.63 GB; CompressionRatio= 1.00)
  Phase 1 completed in     2.289 sec
Second Phase: sorting and transformation of aux index

IA-Transformation
Memory available                       ... 4904 MB 
Max. # MO pairs treated in a batch     ... 3    
# of internal orbitals                 ... 49
# batches for internal orbitals        ... 1
Closing buffer IAV ( 0.04 GB; CompressionRatio= 1.00)
(ia|v) transformation done in     0.569 sec

  Phase 2 completed in     1.295 sec
RI-Integral transformation completed in     3.608 sec
Opening buffers                              ... done

Starting loop over batches of integrals:

Operator 0  - window                       ... ( 34- 82)x( 83-870)
Operator 0  - Memory available             ...  5000 MB
Operator 0  - Memory needed per MO         ...  13.3 MB
Operator 0  - Number of orbitals per batch ... 3
Operator 0  - Number of batches            ... 1

OPERATOR  0   PASS   0:  MOs    34 ...   36 +   37 ...   39 +   40 ...   42 +   43 ...   45
                            +   46 ...   48 +   49 ...   51 +   52 ...   54 +   55 ...   57
                            +   58 ...   60 +   61 ...   63 +   64 ...   66 +   67 ...   69
                            +   70 ...   72 +   73 ...   75 +   76 ...   78 +   79 ...   81
                            +   82 ...   82
  Reading integrals       ... ok
  Internal MO  36
Time spent in pair loops =     0.395 sec
Deleting buffer (Ka|jb)[aa] ...done

-----------------------------------------------
 RI-MP2 CORRELATION ENERGY:     -1.097609835 Eh
-----------------------------------------------


-------
TIMINGS
-------

Total time                :   11.544 sec
Integral trafo            :    3.621 sec ( 31.4%)
I/O of integrals          :    0.040 sec (  0.3%)
K(i,j) Operators          :    0.265 sec (  2.3%)
T(i,j) pair energies      :    0.037 sec (  0.3%)
V-calculation             :    0.037 sec (  0.3%)
V**(-1/2)                 :    0.445 sec (  3.9%)
Gamma(ia|P)               :    0.000 sec (  0.0%)
Gamma-Trafo               :    0.000 sec (  0.0%)
D(virtual)                :    0.000 sec (  0.0%)
D(internal)               :    0.000 sec (  0.0%)
W(virtual)                :    0.000 sec (  0.0%)
W(internal)               :    0.000 sec (  0.0%)
L(virtual)                :    0.000 sec (  0.0%)
L(internal)               :    0.000 sec (  0.0%)
G(D)                      :    0.000 sec (  0.0%)
G(Z)                      :    0.000 sec (  0.0%)
Z-Vector Solution         :    0.000 sec (  0.0%)
Z-Vector Solution         :    0.000 sec (  0.0%)
3-Index Derivative 
+ Separable RIJ part      :    0.000 sec (  0.0%)
2-Index Derivative 
+ Separable RIJ part      :    0.000 sec (  0.0%)
Separable Gradient (X)    :    0.000 sec (  0.0%)


---------------------------------------
MP2 TOTAL ENERGY:    -2483.551335256 Eh
---------------------------------------


-------------------------------------------------------------------------------
                          DFT DISPERSION CORRECTION                            
                                                                               
                              DFTD3 V3.1  Rev 1                                
                          USING Becke-Johnson damping                          
-------------------------------------------------------------------------------
The B2PLYP functional is recognized
Active option DFTDOPT                   ...         4   

molecular C6(AA) [au] = 19499.656081 


            DFT-D V3
 parameters
 s6 scaling factor         :     0.6400 
 a1 scaling factor         :     0.3065 
 s8 scaling factor         :     0.9147 
 a2 scaling factor         :     5.0570 
 ad hoc parameters k1-k3   :    16.0000     1.3333    -4.0000 

 Edisp/kcal,au: -30.217445992817  -0.048154560239 
 E6   /kcal   : -14.138336334 
 E8   /kcal   : -16.079109658 
 % E8         :  53.211345731 

-------------------------   ----------------
Dispersion correction           -0.048154560
-------------------------   ----------------


-------------------------   --------------------
FINAL SINGLE POINT ENERGY     -2483.599489815991
-------------------------   --------------------


                            ***************************************
                            *     ORCA property calculations      *
                            ***************************************


  WARNING: The energy has been calculated at the MP2 level but the densities
           used in the property calculations are still SCF densities
           MP2 response densities have not been calculated 
           use %mp2 Density relaxed end
           or  %mp2 Density unrelaxed end

                                    ---------------------
                                    Active property flags
                                    ---------------------
   (+) Dipole Moment


------------------------------------------------------------------------------
                       ORCA ELECTRIC PROPERTIES CALCULATION
------------------------------------------------------------------------------

Dipole Moment Calculation                       ... on
Quadrupole Moment Calculation                   ... off
Polarizability Calculation                      ... off
GBWName                                         ... TMB08_T1.gbw
Electron density file                           ... TMB08_T1.scfp
The origin for moment calculation is the CENTER OF MASS  = ( 0.092179, -0.001986 -0.023406)

-------------
DIPOLE MOMENT
-------------
                                X             Y             Z
Electronic contribution:     27.30897      -2.59400      -3.81903
Nuclear contribution   :    -30.46451       1.96400       4.17914
                        -----------------------------------------
Total Dipole Moment    :     -3.15554      -0.63000       0.36011
                        -----------------------------------------
Magnitude (a.u.)       :      3.23790
Magnitude (Debye)      :      8.23009



--------------------
Rotational spectrum 
--------------------
 
Rotational constants in cm-1:     0.012781     0.009890     0.008747 
Rotational constants in MHz :   383.176431   296.486696   262.216571 

 Dipole components along the rotational axes: 
x,y,z [a.u.] :     3.162424    -0.601618     0.348038 
x,y,z [Debye]:     8.038243    -1.529192     0.884642 

 

Timings for individual modules:

Sum of individual times         ...      126.122 sec (=   2.102 min)
GTO integral calculation        ...        4.052 sec (=   0.068 min)   3.2 %
SCF iterations                  ...      109.824 sec (=   1.830 min)  87.1 %
MP2 module                      ...       12.245 sec (=   0.204 min)   9.7 %
                             ****ORCA TERMINATED NORMALLY****
TOTAL RUN TIME: 0 days 0 hours 2 minutes 6 seconds 765 msec
