
                                 *****************
                                 * O   R   C   A *
                                 *****************

           --- An Ab Initio, DFT and Semiempirical electronic structure package ---

                  #######################################################
                  #                        -***-                        #
                  #          Department of theory and spectroscopy      #
                  #               Directorship: Frank Neese             #
                  #        Max Planck Institute fuer Kohlenforschung    #
                  #                Kaiser Wilhelm Platz 1               #
                  #                 D-45470 Muelheim/Ruhr               #
                  #                      Germany                        #
                  #                                                     #
                  #                  All rights reserved                #
                  #                        -***-                        #
                  #######################################################


                         Program Version 4.2.0 -  RELEASE  -


 With contributions from (in alphabetic order):
   Daniel Aravena         : Magnetic Suceptibility
   Michael Atanasov       : Ab Initio Ligand Field Theory (pilot matlab implementation)
   Alexander A. Auer      : GIAO ZORA, VPT2
   Ute Becker             : Parallelization
   Giovanni Bistoni       : ED, misc. LED, open-shell LED, HFLED
   Martin Brehm           : Molecular dynamics
   Dmytro Bykov           : SCF Hessian
   Vijay G. Chilkuri      : MRCI spin determinant printing, contributions to CSF-ICE
   Dipayan Datta          : RHF DLPNO-CCSD density
   Achintya Kumar Dutta   : EOM-CC, STEOM-CC
   Dmitry Ganyushin       : Spin-Orbit,Spin-Spin,Magnetic field MRCI
   Miquel Garcia          : C-PCM Hessian, Gaussian charge scheme
   Yang Guo               : DLPNO-NEVPT2, CIM, IAO-localization
   Andreas Hansen         : Spin unrestricted coupled pair/coupled cluster methods
   Benjamin Helmich-Paris : CASSCF linear response (MC-RPA)
   Lee Huntington         : MR-EOM, pCC
   Robert Izsak           : Overlap fitted RIJCOSX, COSX-SCS-MP3, EOM
   Christian Kollmar      : KDIIS, OOCD, Brueckner-CCSD(T), CCSD density
   Simone Kossmann        : Meta GGA functionals, TD-DFT gradient, OOMP2, MP2 Hessian
   Martin Krupicka        : AUTO-CI
   Lucas Lang             : DCDCAS
   Dagmar Lenk            : GEPOL surface, SMD
   Dimitrios Liakos       : Extrapolation schemes; Compound Job, initial MDCI parallelization
   Dimitrios Manganas     : Further ROCIS development; embedding schemes
   Dimitrios Pantazis     : SARC Basis sets
   Taras Petrenko         : DFT Hessian,TD-DFT gradient, ASA, ECA, R-Raman, ABS, FL, XAS/XES, NRVS
   Peter Pinski           : DLPNO-MP2, DLPNO-MP2 Gradient
   Christoph Reimann      : Effective Core Potentials
   Marius Retegan         : Local ZFS, SOC
   Christoph Riplinger    : Optimizer, TS searches, QM/MM, DLPNO-CCSD(T), (RO)-DLPNO pert. Triples
   Tobias Risthaus        : Range-separated hybrids, TD-DFT gradient, RPA, STAB
   Michael Roemelt        : Original ROCIS implementation
   Masaaki Saitow         : Open-shell DLPNO-CCSD energy and density
   Barbara Sandhoefer     : DKH picture change effects
   Avijit Sen             : IP-ROCIS
   Kantharuban Sivalingam : CASSCF convergence, NEVPT2, FIC-MRCI
   Bernardo de Souza      : ESD, SOC TD-DFT
   Georgi Stoychev        : AutoAux, RI-MP2 NMR
   Willem Van den Heuvel  : Paramagnetic NMR
   Boris Wezisla          : Elementary symmetry handling
   Frank Wennmohs         : Technical directorship


 We gratefully acknowledge several colleagues who have allowed us to
 interface, adapt or use parts of their codes:
   Stefan Grimme, W. Hujo, H. Kruse,             : VdW corrections, initial TS optimization,
                  C. Bannwarth                     DFT functionals, gCP, sTDA/sTD-DF
   Ed Valeev, F. Pavosevic, A. Kumar             : LibInt (2-el integral package), F12 methods
   Garnet Chan, S. Sharma, J. Yang, R. Olivares  : DMRG
   Ulf Ekstrom                                   : XCFun DFT Library
   Mihaly Kallay                                 : mrcc  (arbitrary order and MRCC methods)
   Andreas Klamt, Michael Diedenhofen            : otool_cosmo (COSMO solvation model)
   Jiri Pittner, Ondrej Demel                    : Mk-CCSD
   Frank Weinhold                                : gennbo (NPA and NBO analysis)
   Christopher J. Cramer and Donald G. Truhlar   : smd solvation model
   Lars Goerigk                                  : TD-DFT with DH, B97 family of functionals
   V. Asgeirsson, H. Jonsson                     : NEB implementation
   FAccTs GmbH                                   : IRC, NEB, NEB-TS, Multilevel, MM, QM/MM, CI optimization
   S Lehtola, MJT Oliveira, MAL Marques          : LibXC Library


 Your calculation uses the libint2 library for the computation of 2-el integrals
 For citations please refer to: http://libint.valeyev.net

 Your ORCA version has been built with support for libXC version: 4.2.3
 For citations please refer to: https://tddft.org/programs/libxc/

 This ORCA versions uses:
   CBLAS   interface :  Fast vector & matrix operations
   LAPACKE interface :  Fast linear algebra routines
   SCALAPACK package :  Parallel linear algebra routines


Your calculation utilizes the atom-pairwise dispersion correction
with the Becke-Johnson damping scheme (D3BJ)
Cite in your paper:
S.Grimme, S.Ehrlich, L.Goerigk, J Comput Chem, (2011), 32, 1456–1465 
S.Grimme, J.Antony, S.Ehrlich and H.Krieg, J.Chem.Phys., 132, (2010), 154104 
   

----- Orbital basis set information -----
Your calculation utilizes the basis: def2-TZVPPD
   F. Weigend and R. Ahlrichs, Phys. Chem. Chem. Phys. 7, 3297 (2005).
   D. Rappoport and F. Furche, J. Chem. Phys. 133 134105 (2010).

----- AuxC basis set information -----
Your calculation utilizes the auxiliary basis: def2-TZVPPD/C
   A. Hellweg, C. Hattig, S. Hofener and W. Klopper, Theor. Chem. Acc. 117, 587 (2007).

----- AuxJK basis set information -----
Your calculation utilizes the auxiliary basis: def2/JK
   H-Ba, Hf-Rn: F. Weigend, J. Comput. Chem. 29, 167 (2008).

cite the ECPs for Mo [Def2-ECP] as follows:
Ce-Yb(ecp-28): M. Dolg, H. Stoll, H.Preuss, J. Chem. Phys., 1989, 90, 1730-1734.
Y-Cd(ecp-28), Hf-Hg(ecp-46): D. Andrae,U. Haeussermann, M. Dolg, H. Stoll, H. Preuss, Theor. Chim. Acta, 1990, 77, 123-141.
In-Sb(ecp-28), Tl-Bi(ecp-46): B. Metz, H. Stoll, M. Dolg, J. Chem. Phys., 2000, 113, 2563-2569.
Te-Xe(ecp-28), Po-Rn(ecp-46): K. A. Peterson, D. Figgen, E. Goll, H. Stoll, M. Dolg, J. Chem. Phys., 2003, 119, 11113-11123.
Rb(ecp-28), Cs(ecp-46): T. Leininger, A. Nicklass, W. Kuechle, H. Stoll, M. Dolg, A. Bergner, Chem. Phys. Lett., 1996, 255, 274-280.
Sr(ecp-28), Ba(ecp-46): M. Kaupp, P. V. Schleyer, H. Stoll and H. Preuss, J. Chem. Phys., 1991, 94, 1360-1366.
La(ecp-46): M. Dolg, H. Stoll, A. Savin, H. Preuss, Theor. Chim. Acta, 1989, 75, 173-194.
Lu(ecp-28): X. Cao, M. Dolg, J. Chem. Phys., 2001, 115, 7348-7355.

ECP parameters for Mo [Def2-ECP] have been obtained from:
TURBOMOLE (7.0.2)

================================================================================
                                        WARNINGS
                       Please study these warnings very carefully!
================================================================================


WARNING: No MP2 level density has been requested!
         To caclulate MP2 level properties use
         %mp2 Density relaxed end
         or
         %mp2 Density unrelaxed end
         Otherwise for double-hybrid DFT only the energy is correct!

WARNING: The frozen-core approximation is turned on by default for 
         the MP2 part of double-hybrid DFT.

INFO   : the flag for use of LIBINT has been found!

================================================================================
                                       INPUT FILE
================================================================================
NAME = TMB09_T1.in
|  1> #
|  2> # TMB09_T1 ri-B2PLYP-D3BJ/Def2-TZVPPD
|  3> #
|  4> ! rijk ri-b2plyp d3bj def2-tzvppd def2/jk def2-tzvppd/c grid4 nofinalgrid
|  5> 
|  6> *xyz 0 1
|  7> Mo       0.144293   -0.018278    0.187956 
|  8> C       -1.882744   -1.070987   -0.485243 
|  9> C       -1.076439    2.809087   -0.488683 
| 10> H       -1.056313    3.572787    0.310053 
| 11> H       -2.117393    2.730299   -0.852689 
| 12> H       -0.453643    3.172151   -1.326804 
| 13> C        1.996084   -2.290843   -0.946924 
| 14> C        2.556730    1.794509   -0.039409 
| 15> N       -0.610025    1.553803    0.004719 
| 16> O        1.936938    0.565567   -0.322724 
| 17> O        0.833025   -1.766355   -0.360705 
| 18> H        1.780871   -2.689531   -1.957376 
| 19> H        2.380311   -3.126092   -0.331250 
| 20> H        2.779790   -1.516765   -1.025980 
| 21> H        3.470410    1.892833   -0.654307 
| 22> H        2.854397    1.863620    1.026056 
| 23> H        1.897937    2.657406   -0.259961 
| 24> C       -0.134457   -0.284271    2.087106 
| 25> C       -1.864166   -1.358035    0.884748 
| 26> H        0.299474   -1.167843    2.578202 
| 27> H       -0.661177    0.399181    2.762773 
| 28> H       -1.449974   -2.303708    1.234049 
| 29> H       -2.567349   -0.858578    1.555883 
| 30> C       -2.930318   -0.174171   -1.105185 
| 31> H       -2.557155    0.344677   -2.001613 
| 32> H       -3.799822   -0.779414   -1.421129 
| 33> H       -3.293476    0.582538   -0.393193 
| 34> H       -1.444854   -1.827941   -1.140932 
| 35> *
| 36> 
| 37> %maxcore 5000
| 38> 
| 39> %pal
| 40> nprocs = 24
| 41> end
| 42> 
| 43> 
| 44>                          ****END OF INPUT****
================================================================================

                       ****************************
                       * Single Point Calculation *
                       ****************************

---------------------------------
CARTESIAN COORDINATES (ANGSTROEM)
---------------------------------
  Mo     0.144293   -0.018278    0.187956
  C     -1.882744   -1.070987   -0.485243
  C     -1.076439    2.809087   -0.488683
  H     -1.056313    3.572787    0.310053
  H     -2.117393    2.730299   -0.852689
  H     -0.453643    3.172151   -1.326804
  C      1.996084   -2.290843   -0.946924
  C      2.556730    1.794509   -0.039409
  N     -0.610025    1.553803    0.004719
  O      1.936938    0.565567   -0.322724
  O      0.833025   -1.766355   -0.360705
  H      1.780871   -2.689531   -1.957376
  H      2.380311   -3.126092   -0.331250
  H      2.779790   -1.516765   -1.025980
  H      3.470410    1.892833   -0.654307
  H      2.854397    1.863620    1.026056
  H      1.897937    2.657406   -0.259961
  C     -0.134457   -0.284271    2.087106
  C     -1.864166   -1.358035    0.884748
  H      0.299474   -1.167843    2.578202
  H     -0.661177    0.399181    2.762773
  H     -1.449974   -2.303708    1.234049
  H     -2.567349   -0.858578    1.555883
  C     -2.930318   -0.174171   -1.105185
  H     -2.557155    0.344677   -2.001613
  H     -3.799822   -0.779414   -1.421129
  H     -3.293476    0.582538   -0.393193
  H     -1.444854   -1.827941   -1.140932

----------------------------
CARTESIAN COORDINATES (A.U.)
----------------------------
  NO LB      ZA    FRAG     MASS         X           Y           Z
   0 Mo   14.0000*   0    95.940    0.272674   -0.034540    0.355185
   1 C     6.0000    0    12.011   -3.557871   -2.023872   -0.916976
   2 C     6.0000    0    12.011   -2.034175    5.308405   -0.923477
   3 H     1.0000    0     1.008   -1.996142    6.751589    0.585915
   4 H     1.0000    0     1.008   -4.001293    5.159517   -1.611349
   5 H     1.0000    0     1.008   -0.857261    5.994497   -2.507296
   6 C     6.0000    0    12.011    3.772052   -4.329066   -1.789427
   7 C     6.0000    0    12.011    4.831519    3.391131   -0.074472
   8 N     7.0000    0    14.007   -1.152780    2.936262    0.008918
   9 O     8.0000    0    15.999    3.660282    1.068767   -0.609860
  10 O     8.0000    0    15.999    1.574189   -3.337927   -0.681634
  11 H     1.0000    0     1.008    3.365358   -5.082477   -3.698905
  12 H     1.0000    0     1.008    4.498136   -5.907458   -0.625972
  13 H     1.0000    0     1.008    5.253042   -2.866270   -1.938821
  14 H     1.0000    0     1.008    6.558124    3.576936   -1.236461
  15 H     1.0000    0     1.008    5.394029    3.521731    1.938965
  16 H     1.0000    0     1.008    3.586581    5.021770   -0.491255
  17 C     6.0000    0    12.011   -0.254087   -0.537194    3.944059
  18 C     6.0000    0    12.011   -3.522763   -2.566314    1.671931
  19 H     1.0000    0     1.008    0.565924   -2.206903    4.872096
  20 H     1.0000    0     1.008   -1.249443    0.754343    5.220884
  21 H     1.0000    0     1.008   -2.740054   -4.353377    2.332015
  22 H     1.0000    0     1.008   -4.851587   -1.622477    2.940193
  23 C     6.0000    0    12.011   -5.537499   -0.329135   -2.088497
  24 H     1.0000    0     1.008   -4.832323    0.651345   -3.782500
  25 H     1.0000    0     1.008   -7.180623   -1.472879   -2.685545
  26 H     1.0000    0     1.008   -6.223768    1.100837   -0.743027
  27 H     1.0000    0     1.008   -2.730378   -3.454308   -2.156049
* core charge reduced due to ECP

--------------------------------
INTERNAL COORDINATES (ANGSTROEM)
--------------------------------
 Mo     0   0   0     0.000000000000     0.00000000     0.00000000
 C      1   0   0     2.381233321548     0.00000000     0.00000000
 C      1   2   0     3.153096857911    90.35416580     0.00000000
 H      3   1   2     1.105270077208   117.22287164   125.98189637
 H      3   1   2     1.105573673301   111.79438695     0.93323316
 H      3   1   2     1.105503114583   103.83186971   245.09209323
 C      1   2   3     3.143506672699    94.57678127   216.68676685
 C      1   2   3     3.026176437282   157.24926990   308.16077783
 N      3   1   2     1.427138911829     8.33579235    87.31623396
 O      8   1   2     1.405243022346    30.64532601   277.48267478
 O      7   1   2     1.404082125656    24.66757243   327.13618320
 H      7   1   2     1.107376178639   118.37357679    44.97133975
 H      7   1   2     1.106492545753   123.32566127   264.80956309
 H      7   1   2     1.104373893053    86.39702684   154.60695032
 H      8   1   2     1.105702628097   138.92033387   295.55831576
 H      8   1   2     1.108421237362   100.32403884   162.39971618
 H      8   1   2     1.107809836643    90.42894388    54.40925173
 C      1   2   3     1.937840179439    95.38999786   106.23184163
 C      2   1   3     1.399863220629    78.61953806   245.90319180
 H     18   1   2     1.100077666877   119.40723354    94.01901505
 H     18   1   2     1.095931790575   125.99730880   271.02019269
 H     19   2   1     1.089891565429   119.77641259   265.45198793
 H     19   2   1     1.092861297038   119.91738675   108.56187226
 C      2   1   3     1.511958434183   116.32713961     6.30003436
 H     24   2   1     1.100925533747   112.24433834    58.40885355
 H     24   2   1     1.105521101653   109.71783228   177.19901419
 H     24   2   1     1.100647469315   111.78755294   296.43929625
 H      2   1   3     1.093002779016    97.74258943   130.73038408

---------------------------
INTERNAL COORDINATES (A.U.)
---------------------------
 Mo     0   0   0     0.000000000000     0.00000000     0.00000000
 C      1   0   0     4.499878838694     0.00000000     0.00000000
 C      1   2   0     5.958489535180    90.35416580     0.00000000
 H      3   1   2     2.088657749942   117.22287164   125.98189637
 H      3   1   2     2.089231463412   111.79438695     0.93323316
 H      3   1   2     2.089098126759   103.83186971   245.09209323
 C      1   2   3     5.940366711556    94.57678127   216.68676685
 C      1   2   3     5.718644699389   157.24926990   308.16077783
 N      3   1   2     2.696901698419     8.33579235    87.31623396
 O      8   1   2     2.655524463838    30.64532601   277.48267478
 O      7   1   2     2.653330687023    24.66757243   327.13618320
 H      7   1   2     2.092637704856   118.37357679    44.97133975
 H      7   1   2     2.090967880698   123.32566127   264.80956309
 H      7   1   2     2.086964207322    86.39702684   154.60695032
 H      8   1   2     2.089475152660   138.92033387   295.55831576
 H      8   1   2     2.094612579636   100.32403884   162.39971618
 H      8   1   2     2.093457199718    90.42894388    54.40925173
 C      1   2   3     3.661987230449    95.38999786   106.23184163
 C      2   1   3     2.645358111937    78.61953806   245.90319180
 H     18   1   2     2.078845516440   119.40723354    94.01901505
 H     18   1   2     2.071010945645   125.99730880   271.02019269
 H     19   2   1     2.059596574332   119.77641259   265.45198793
 H     19   2   1     2.065208553763   119.91738675   108.56187226
 C      2   1   3     2.857187366478   116.32713961     6.30003436
 H     24   2   1     2.080447752624   112.24433834    58.40885355
 H     24   2   1     2.089132117396   109.71783228   177.19901419
 H     24   2   1     2.079922286998   111.78755294   296.43929625
 H      2   1   3     2.065475915955    97.74258943   130.73038408

---------------------
BASIS SET INFORMATION
---------------------
There are 5 groups of distinct atoms

 Group   1 Type Mo  : 7s7p5d2f1g contracted to 6s4p3d2f1g pattern {211111/4111/311/11/1}
 Group   2 Type C   : 12s6p3d1f contracted to 6s3p3d1f pattern {621111/411/111/1}
 Group   3 Type H   : 5s3p1d contracted to 3s3p1d pattern {311/111/1}
 Group   4 Type N   : 12s6p3d1f contracted to 6s3p3d1f pattern {621111/411/111/1}
 Group   5 Type O   : 12s7p3d1f contracted to 6s4p3d1f pattern {621111/4111/111/1}

Atom   0Mo   basis set group =>   1
Atom   1C    basis set group =>   2
Atom   2C    basis set group =>   2
Atom   3H    basis set group =>   3
Atom   4H    basis set group =>   3
Atom   5H    basis set group =>   3
Atom   6C    basis set group =>   2
Atom   7C    basis set group =>   2
Atom   8N    basis set group =>   4
Atom   9O    basis set group =>   5
Atom  10O    basis set group =>   5
Atom  11H    basis set group =>   3
Atom  12H    basis set group =>   3
Atom  13H    basis set group =>   3
Atom  14H    basis set group =>   3
Atom  15H    basis set group =>   3
Atom  16H    basis set group =>   3
Atom  17C    basis set group =>   2
Atom  18C    basis set group =>   2
Atom  19H    basis set group =>   3
Atom  20H    basis set group =>   3
Atom  21H    basis set group =>   3
Atom  22H    basis set group =>   3
Atom  23C    basis set group =>   2
Atom  24H    basis set group =>   3
Atom  25H    basis set group =>   3
Atom  26H    basis set group =>   3
Atom  27H    basis set group =>   3
---------------------------------
AUXILIARY/C BASIS SET INFORMATION
---------------------------------
There are 5 groups of distinct atoms

 Group   1 Type Mo  : 8s7p6d5f4g3h1i contracted to 8s7p6d5f4g3h1i pattern {11111111/1111111/111111/11111/1111/111/1}
 Group   2 Type C   : 9s7p6d4f1g contracted to 9s7p5d4f1g pattern {111111111/1111111/21111/1111/1}
 Group   3 Type H   : 5s4p3d1f contracted to 5s4p3d1f pattern {11111/1111/111/1}
 Group   4 Type N   : 9s7p6d4f1g contracted to 9s7p5d4f1g pattern {111111111/1111111/21111/1111/1}
 Group   5 Type O   : 9s7p6d4f1g contracted to 9s7p5d4f1g pattern {111111111/1111111/21111/1111/1}

Atom   0Mo   basis set group =>   1
Atom   1C    basis set group =>   2
Atom   2C    basis set group =>   2
Atom   3H    basis set group =>   3
Atom   4H    basis set group =>   3
Atom   5H    basis set group =>   3
Atom   6C    basis set group =>   2
Atom   7C    basis set group =>   2
Atom   8N    basis set group =>   4
Atom   9O    basis set group =>   5
Atom  10O    basis set group =>   5
Atom  11H    basis set group =>   3
Atom  12H    basis set group =>   3
Atom  13H    basis set group =>   3
Atom  14H    basis set group =>   3
Atom  15H    basis set group =>   3
Atom  16H    basis set group =>   3
Atom  17C    basis set group =>   2
Atom  18C    basis set group =>   2
Atom  19H    basis set group =>   3
Atom  20H    basis set group =>   3
Atom  21H    basis set group =>   3
Atom  22H    basis set group =>   3
Atom  23C    basis set group =>   2
Atom  24H    basis set group =>   3
Atom  25H    basis set group =>   3
Atom  26H    basis set group =>   3
Atom  27H    basis set group =>   3
----------------------------------
AUXILIARY/JK BASIS SET INFORMATION
----------------------------------
There are 5 groups of distinct atoms

 Group   1 Type Mo  : 13s12p10d9f6g3h2i contracted to 11s10p9d8f6g3h2i pattern {31111111111/3111111111/211111111/21111111/111111/111/11}
 Group   2 Type C   : 14s10p6d2f1g contracted to 10s8p5d1f1g pattern {5111111111/31111111/21111/2/1}
 Group   3 Type H   : 4s2p2d contracted to 2s2p2d pattern {31/11/11}
 Group   4 Type N   : 14s10p6d2f1g contracted to 10s8p4d2f1g pattern {5111111111/31111111/3111/11/1}
 Group   5 Type O   : 14s10p6d2f1g contracted to 10s8p4d2f1g pattern {5111111111/31111111/3111/11/1}

Atom   0Mo   basis set group =>   1
Atom   1C    basis set group =>   2
Atom   2C    basis set group =>   2
Atom   3H    basis set group =>   3
Atom   4H    basis set group =>   3
Atom   5H    basis set group =>   3
Atom   6C    basis set group =>   2
Atom   7C    basis set group =>   2
Atom   8N    basis set group =>   4
Atom   9O    basis set group =>   5
Atom  10O    basis set group =>   5
Atom  11H    basis set group =>   3
Atom  12H    basis set group =>   3
Atom  13H    basis set group =>   3
Atom  14H    basis set group =>   3
Atom  15H    basis set group =>   3
Atom  16H    basis set group =>   3
Atom  17C    basis set group =>   2
Atom  18C    basis set group =>   2
Atom  19H    basis set group =>   3
Atom  20H    basis set group =>   3
Atom  21H    basis set group =>   3
Atom  22H    basis set group =>   3
Atom  23C    basis set group =>   2
Atom  24H    basis set group =>   3
Atom  25H    basis set group =>   3
Atom  26H    basis set group =>   3
Atom  27H    basis set group =>   3
-------------------------
ECP PARAMETER INFORMATION
-------------------------

 Group 1, Type Mo ECP Def2-ECP (replacing 28 core electrons, lmax=3)

Atom   0Mo   ECP group =>   1



           ************************************************************
           *        Program running with 24 parallel MPI-processes    *
           *              working on a common directory               *
           ************************************************************
------------------------------------------------------------------------------
                           ORCA GTO INTEGRAL CALCULATION
                           -- RI-GTO INTEGRALS CHOSEN --
------------------------------------------------------------------------------

                         BASIS SET STATISTICS AND STARTUP INFO

Gaussian basis set:
 # of primitive gaussian shells          ...  397
 # of primitive gaussian functions       ...  925
 # of contracted shells                  ...  267
 # of contracted basis functions         ...  721
 Highest angular momentum                ...    4
 Maximum contraction depth               ...    6
Auxiliary gaussian basis set:
 # of primitive gaussian shells          ...  521
 # of primitive gaussian functions       ... 1585
 # of contracted shells                  ...  401
 # of contracted aux-basis functions     ... 1317
 Highest angular momentum                ...    6
 Maximum contraction depth               ...    5
Ratio of auxiliary to basis functions    ...  1.83
Integral package used                  ... LIBINT
 One Electron integrals                  
   ECP integrals                         ... done
 Ordering auxiliary basis shells         ... done
 Integral threshhold             Thresh  ...  1.000e-10
 Primitive cut-off               TCut    ...  1.000e-11
 Pre-screening matrix                    ... done
 Shell pair data                         ... 
 Ordering of the shell pairs             ... done (   0.005 sec) 30801 of 35778 pairs
 Determination of significant pairs      ... done (   0.000 sec)
 Creation of shell pair data             ... done (   0.003 sec)
 Storage of shell pair data              ... done (   0.004 sec)
 Shell pair data done in (   0.012 sec)
 Computing two index integrals           ... done
 Cholesky decomposition of the V-matrix  ... done


Timings:
 Total evaluation time                   ...   3.052 sec (  0.051 min)
 One electron matrix time                ...   2.547 sec (  0.042 min) = 83.5%
 Schwartz matrix evaluation time         ...   0.268 sec (  0.004 min) =  8.8%
 Two index repulsion integral time       ...   0.099 sec (  0.002 min) =  3.2%
 Cholesky decomposition of V             ...   0.093 sec (  0.002 min) =  3.0%
 Three index repulsion integral time     ...   0.000 sec (  0.000 min) =  0.0%



           ************************************************************
           *        Program running with 24 parallel MPI-processes    *
           *              working on a common directory               *
           ************************************************************
-------------------------------------------------------------------------------
                                 ORCA SCF
-------------------------------------------------------------------------------

------------
SCF SETTINGS
------------
Hamiltonian:
 Density Functional     Method          .... DFT(GTOs)
 Exchange Functional    Exchange        .... B88
   X-Alpha parameter    XAlpha          ....  0.666667
   Becke's b parameter  XBeta           ....  0.004200
 Correlation Functional Correlation     .... LYP
 LDA part of GGA corr.  LDAOpt          .... VWN-3
 Gradients option       PostSCFGGA      .... off
 Hybrid DFT is turned on
   Fraction HF Exchange ScalHFX         ....  0.530000
   Scaling of DF-GGA-X  ScalDFX         ....  0.470000
   Scaling of DF-GGA-C  ScalDFC         ....  0.730000
   Scaling of DF-LDA-C  ScalLDAC        ....  0.730000
   Perturbative correction              ....  0.270000
   Density functional embedding theory  .... OFF
 RI-approximation to the Coulomb term is turned on
   Number of auxiliary basis functions  .... 1317
   RI-JK (J+K treated both via RI)      .... on


General Settings:
 Integral files         IntName         .... TMB09_T1
 Hartree-Fock type      HFTyp           .... RHF
 Total Charge           Charge          ....    0
 Multiplicity           Mult            ....    1
 Number of Electrons    NEL             ....   96
 Basis Dimension        Dim             ....  721
 Nuclear Repulsion      ENuc            ....    772.8237984215 Eh

Convergence Acceleration:
 DIIS                   CNVDIIS         .... on
   Start iteration      DIISMaxIt       ....    12
   Startup error        DIISStart       ....  0.200000
   # of expansion vecs  DIISMaxEq       ....     5
   Bias factor          DIISBfac        ....   1.050
   Max. coefficient     DIISMaxC        ....  10.000
 Newton-Raphson         CNVNR           .... off
 SOSCF                  CNVSOSCF        .... off
 Level Shifting         CNVShift        .... on
   Level shift para.    LevelShift      ....    0.2500
   Turn off err/grad.   ShiftErr        ....    0.0010
 Zerner damping         CNVZerner       .... off
 Static damping         CNVDamp         .... on
   Fraction old density DampFac         ....    0.7000
   Max. Damping (<1)    DampMax         ....    0.9800
   Min. Damping (>=0)   DampMin         ....    0.0000
   Turn off err/grad.   DampErr         ....    0.1000
 Fernandez-Rico         CNVRico         .... off

SCF Procedure:
 Maximum # iterations   MaxIter         ....   125
 SCF integral mode      SCFMode         .... Direct
   Integral package                     .... LIBINT
 Reset frequency        DirectResetFreq ....    20
 Integral Threshold     Thresh          ....  1.000e-10 Eh
 Primitive CutOff       TCut            ....  1.000e-11 Eh

Convergence Tolerance:
 Convergence Check Mode ConvCheckMode   .... Total+1el-Energy
 Convergence forced     ConvForced      .... 0
 Energy Change          TolE            ....  1.000e-06 Eh
 1-El. energy change                    ....  1.000e-03 Eh
 DIIS Error             TolErr          ....  1.000e-06


Diagonalization of the overlap matrix:
Smallest eigenvalue                        ... 2.613e-06
Time for diagonalization                   ...    0.099 sec
Threshold for overlap eigenvalues          ... 1.000e-08
Number of eigenvalues below threshold      ... 0
Time for construction of square roots      ...    0.082 sec
Total time needed                          ...    0.184 sec

-------------------
DFT GRID GENERATION
-------------------

General Integration Accuracy     IntAcc      ...  4.670
Radial Grid Type                 RadialGrid  ... Gauss-Chebyshev
Angular Grid (max. acc.)         AngularGrid ... Lebedev-302
Angular grid pruning method      GridPruning ... 3 (G Style)
Weight generation scheme         WeightScheme... Becke
Basis function cutoff            BFCut       ...    1.0000e-10
Integration weight cutoff        WCut        ...    1.0000e-14
Grids for H and He will be reduced by one unit

# of grid points (after initial pruning)     ... 130416 (   0.0 sec)
# of grid points (after weights+screening)   ... 116069 (   0.1 sec)
nearest neighbour list constructed           ...    0.0 sec
Grid point re-assignment to atoms done       ...    0.0 sec
Grid point division into batches done        ...    0.3 sec
Reduced shell lists constructed in    0.7 sec

Total number of grid points                  ...   116069
Total number of batches                      ...     1829
Average number of points per batch           ...       63
Average number of grid points per atom       ...     4145
Average number of shells per batch           ...   194.05 (72.68%)
Average number of basis functions per batch  ...   535.85 (74.32%)
Average number of large shells per batch     ...   151.29 (77.97%)
Average number of large basis fcns per batch ...   410.37 (76.58%)
Average number of aux-shells per batch       ...   194.05 (48.39%)
Average number of aux functions per batch    ...   535.85 (40.69%)
Maximum spatial batch extension              ...   2.09,  2.19,  2.23 au
Average spatial batch extension              ...   0.05,  0.05,  0.05 au

Time for grid setup =    0.855 sec

------------------------------
INITIAL GUESS: MODEL POTENTIAL
------------------------------
Loading Hartree-Fock densities                     ... done
  calling /sw/apps/orca/orca_4_2_0_linux_x86-64_openmpi314/orca TMB09_T1_atom42.inp > TMB09_T1_atom42.out in order to generate an atomic fitting density for atom 0 (Mo with ECP) on-the-fly... 
    atom 0 (Mo), assumed electronic state with S=5: 1s2 2s2 2p6 3s2 3p6 4s2 3d10 4p6 5s2 4d4           ... done
Calculating cut-offs                               ... done
Setting up the integral package                    ... done
Initializing the effective Hamiltonian             ... done
Starting the Coulomb interaction                   ... done (   0.1 sec)
Reading the grid                                   ... done
Mapping shells                                     ... done
Starting the XC term evaluation                    ... done (   0.3 sec)
  promolecular density results
     # of electrons  =    123.992171550
     EX              =   -183.723805002
     EC              =     -1.683811987
     EX+EC           =   -185.407616989
Transforming the Hamiltonian                       ... done (   0.0 sec)
Diagonalizing the Hamiltonian                      ... done (   0.1 sec)
Back transforming the eigenvectors                 ... done (   0.0 sec)
Now organizing SCF variables                       ... done
                      ------------------
                      INITIAL GUESS DONE (   3.1 sec)
                      ------------------
--------------
SCF ITERATIONS
--------------
ITER       Energy         Delta-E        Max-DP      RMS-DP      [F,P]     Damp
  0   -548.6112249533   0.000000000000 0.44019561  0.00138123  0.3472362 0.7000
  1   -548.4542784821   0.156946471147 0.22863062  0.00112113  0.2769933 0.7000
  2   -548.5918044751  -0.137525992955 0.15690220  0.00074605  0.2087663 0.7000
                               ***Turning on DIIS***
  3   -548.8507844193  -0.258979944200 0.22318404  0.00066116  0.1428755 0.7000
  4   -549.0754917593  -0.224707339965 0.49526596  0.00148283  0.0895652 0.0000
  5   -549.2089108416  -0.133419082301 0.08882598  0.00022867  0.1337758 0.7000
  6   -549.2158564351  -0.006945593539 0.08645408  0.00022985  0.1163629 0.7000
  7   -549.2332118995  -0.017355464405 0.21119463  0.00059056  0.0830607 0.0000
  8   -549.2615202404  -0.028308340897 0.01738522  0.00013165  0.0296620 0.0000
  9   -549.2637703848  -0.002250144439 0.00486539  0.00004414  0.0086999 0.0000
 10   -549.2640289148  -0.000258529921 0.00989681  0.00003071  0.0036339 0.0000
 11   -549.2640728488  -0.000043934010 0.00628005  0.00002273  0.0009704 0.0000
 12   -549.2640848502  -0.000012001445 0.00475419  0.00001382  0.0006707 0.0000
 13   -549.2640873287  -0.000002478499 0.00141899  0.00000864  0.0003237 0.0000
 14   -549.2640879465  -0.000000617746 0.00112067  0.00000568  0.0002371 0.0000
 15   -549.2640882341  -0.000000287659 0.00204640  0.00000854  0.0000591 0.0000
 16   -549.2640882535  -0.000000019382 0.00243900  0.00000886  0.0000844 0.0000
                 **** Energy Check signals convergence ****

               *****************************************************
               *                     SUCCESS                       *
               *           SCF CONVERGED AFTER  17 CYCLES          *
               *****************************************************


----------------
TOTAL SCF ENERGY
----------------

Total Energy       :         -549.26408828 Eh          -14946.23569 eV

Components:
Nuclear Repulsion  :          772.82379842 Eh           21029.60468 eV
Electronic Energy  :        -1322.08788670 Eh          -35975.84037 eV
One Electron Energy:        -2306.95392958 Eh          -62775.40786 eV
Two Electron Energy:          984.86604288 Eh           26799.56749 eV

Virial components:
Potential Energy   :        -1051.41901587 Eh          -28610.56595 eV
Kinetic Energy     :          502.15492759 Eh           13664.33026 eV
Virial Ratio       :            2.09381400


DFT components:
N(Alpha)           :       47.999972488955 electrons
N(Beta)            :       47.999972488955 electrons
N(Total)           :       95.999944977910 electrons
E(X)               :      -34.189945904344 Eh       
E(C)               :       -2.331100176007 Eh       
E(XC)              :      -36.521046080351 Eh       
DFET-embed. en.    :        0.000000000000 Eh       

---------------
SCF CONVERGENCE
---------------

  Last Energy change         ...   -2.6177e-08  Tolerance :   1.0000e-06
  Last MAX-Density change    ...    2.6066e-03  Tolerance :   1.0000e-05
  Last RMS-Density change    ...    9.3990e-06  Tolerance :   1.0000e-06
  Last DIIS Error            ...    3.4697e-05  Tolerance :   1.0000e-06

             **** THE GBW FILE WAS UPDATED (TMB09_T1.gbw) ****
             **** DENSITY FILE WAS UPDATED (TMB09_T1.scfp) ****
             **** ENERGY FILE WAS UPDATED (TMB09_T1.en.tmp) ****
             **** THE GBW FILE WAS UPDATED (TMB09_T1.gbw) ****
             **** DENSITY FILE WAS UPDATED (TMB09_T1.scfp) ****
----------------
ORBITAL ENERGIES
----------------

  NO   OCC          E(Eh)            E(eV) 
   0   2.0000     -19.677224      -535.4445 
   1   2.0000     -19.676067      -535.4130 
   2   2.0000     -14.832499      -403.6128 
   3   2.0000     -10.655746      -289.9576 
   4   2.0000     -10.647413      -289.7308 
   5   2.0000     -10.639167      -289.5065 
   6   2.0000     -10.634882      -289.3898 
   7   2.0000     -10.633518      -289.3527 
   8   2.0000     -10.627791      -289.1969 
   9   2.0000     -10.619159      -288.9620 
  10   2.0000      -2.824688       -76.8637 
  11   2.0000      -1.767945       -48.1082 
  12   2.0000      -1.755918       -47.7809 
  13   2.0000      -1.747918       -47.5633 
  14   2.0000      -1.088330       -29.6150 
  15   2.0000      -1.079697       -29.3800 
  16   2.0000      -0.955726       -26.0066 
  17   2.0000      -0.918390       -24.9907 
  18   2.0000      -0.807048       -21.9609 
  19   2.0000      -0.755160       -20.5490 
  20   2.0000      -0.742572       -20.2064 
  21   2.0000      -0.735712       -20.0197 
  22   2.0000      -0.716237       -19.4898 
  23   2.0000      -0.660540       -17.9742 
  24   2.0000      -0.559374       -15.2213 
  25   2.0000      -0.526041       -14.3143 
  26   2.0000      -0.515653       -14.0316 
  27   2.0000      -0.513187       -13.9645 
  28   2.0000      -0.508493       -13.8368 
  29   2.0000      -0.503950       -13.7132 
  30   2.0000      -0.497317       -13.5327 
  31   2.0000      -0.492009       -13.3883 
  32   2.0000      -0.484341       -13.1796 
  33   2.0000      -0.479757       -13.0548 
  34   2.0000      -0.476153       -12.9568 
  35   2.0000      -0.458590       -12.4789 
  36   2.0000      -0.453902       -12.3513 
  37   2.0000      -0.446236       -12.1427 
  38   2.0000      -0.421908       -11.4807 
  39   2.0000      -0.409922       -11.1545 
  40   2.0000      -0.368913       -10.0386 
  41   2.0000      -0.348541        -9.4843 
  42   2.0000      -0.340670        -9.2701 
  43   2.0000      -0.322750        -8.7825 
  44   2.0000      -0.321031        -8.7357 
  45   2.0000      -0.301525        -8.2049 
  46   2.0000      -0.291155        -7.9227 
  47   2.0000      -0.262055        -7.1309 
  48   0.0000       0.000285         0.0078 
  49   0.0000       0.012745         0.3468 
  50   0.0000       0.022428         0.6103 
  51   0.0000       0.028531         0.7764 
  52   0.0000       0.035819         0.9747 
  53   0.0000       0.042422         1.1544 
  54   0.0000       0.045873         1.2483 
  55   0.0000       0.051035         1.3887 
  56   0.0000       0.055939         1.5222 
  57   0.0000       0.066000         1.7960 
  58   0.0000       0.070560         1.9200 
  59   0.0000       0.074525         2.0279 
  60   0.0000       0.079734         2.1697 
  61   0.0000       0.084752         2.3062 
  62   0.0000       0.094688         2.5766 
  63   0.0000       0.103517         2.8168 
  64   0.0000       0.110122         2.9966 
  65   0.0000       0.113829         3.0974 
  66   0.0000       0.119218         3.2441 
  67   0.0000       0.122437         3.3317 
  68   0.0000       0.124346         3.3836 
  69   0.0000       0.127597         3.4721 
  70   0.0000       0.137715         3.7474 
  71   0.0000       0.143588         3.9072 
  72   0.0000       0.151559         4.1241 
  73   0.0000       0.152228         4.1423 
  74   0.0000       0.154015         4.1910 
  75   0.0000       0.158645         4.3170 
  76   0.0000       0.168004         4.5716 
  77   0.0000       0.169997         4.6258 
  78   0.0000       0.177383         4.8268 
  79   0.0000       0.184899         5.0314 
  80   0.0000       0.189844         5.1659 
  81   0.0000       0.192012         5.2249 
  82   0.0000       0.198784         5.4092 
  83   0.0000       0.203633         5.5411 
  84   0.0000       0.206698         5.6245 
  85   0.0000       0.211042         5.7427 
  86   0.0000       0.213704         5.8152 
  87   0.0000       0.217547         5.9197 
  88   0.0000       0.221780         6.0349 
  89   0.0000       0.225020         6.1231 
  90   0.0000       0.232777         6.3342 
  91   0.0000       0.238449         6.4885 
  92   0.0000       0.243501         6.6260 
  93   0.0000       0.248673         6.7667 
  94   0.0000       0.250856         6.8261 
  95   0.0000       0.257965         7.0196 
  96   0.0000       0.265394         7.2217 
  97   0.0000       0.272405         7.4125 
  98   0.0000       0.274166         7.4604 
  99   0.0000       0.275720         7.5027 
 100   0.0000       0.278528         7.5791 
 101   0.0000       0.284310         7.7365 
 102   0.0000       0.286426         7.7941 
 103   0.0000       0.290073         7.8933 
 104   0.0000       0.295586         8.0433 
 105   0.0000       0.301256         8.1976 
 106   0.0000       0.305294         8.3075 
 107   0.0000       0.308259         8.3882 
 108   0.0000       0.310498         8.4491 
 109   0.0000       0.312775         8.5110 
 110   0.0000       0.321536         8.7494 
 111   0.0000       0.324526         8.8308 
 112   0.0000       0.325284         8.8514 
 113   0.0000       0.327409         8.9093 
 114   0.0000       0.330379         8.9901 
 115   0.0000       0.334283         9.0963 
 116   0.0000       0.337800         9.1920 
 117   0.0000       0.341010         9.2794 
 118   0.0000       0.342565         9.3217 
 119   0.0000       0.343760         9.3542 
 120   0.0000       0.348543         9.4843 
 121   0.0000       0.355555         9.6751 
 122   0.0000       0.357381         9.7248 
 123   0.0000       0.362877         9.8744 
 124   0.0000       0.367178         9.9914 
 125   0.0000       0.367521        10.0007 
 126   0.0000       0.372332        10.1317 
 127   0.0000       0.373764        10.1706 
 128   0.0000       0.382318        10.4034 
 129   0.0000       0.385503        10.4901 
 130   0.0000       0.387940        10.5564 
 131   0.0000       0.389500        10.5988 
 132   0.0000       0.391374        10.6498 
 133   0.0000       0.394289        10.7292 
 134   0.0000       0.402036        10.9399 
 135   0.0000       0.407092        11.0775 
 136   0.0000       0.407974        11.1015 
 137   0.0000       0.413842        11.2612 
 138   0.0000       0.416559        11.3352 
 139   0.0000       0.419406        11.4126 
 140   0.0000       0.421295        11.4640 
 141   0.0000       0.422157        11.4875 
 142   0.0000       0.428316        11.6551 
 143   0.0000       0.434753        11.8302 
 144   0.0000       0.435720        11.8565 
 145   0.0000       0.442509        12.0413 
 146   0.0000       0.445700        12.1281 
 147   0.0000       0.452025        12.3002 
 148   0.0000       0.455181        12.3861 
 149   0.0000       0.458932        12.4882 
 150   0.0000       0.462290        12.5796 
 151   0.0000       0.467737        12.7278 
 152   0.0000       0.468555        12.7500 
 153   0.0000       0.472826        12.8663 
 154   0.0000       0.476211        12.9584 
 155   0.0000       0.483469        13.1559 
 156   0.0000       0.485983        13.2243 
 157   0.0000       0.487041        13.2531 
 158   0.0000       0.491674        13.3791 
 159   0.0000       0.495449        13.4819 
 160   0.0000       0.498676        13.5697 
 161   0.0000       0.500479        13.6187 
 162   0.0000       0.506092        13.7715 
 163   0.0000       0.513450        13.9717 
 164   0.0000       0.517287        14.0761 
 165   0.0000       0.524973        14.2852 
 166   0.0000       0.529013        14.3952 
 167   0.0000       0.532611        14.4931 
 168   0.0000       0.535211        14.5638 
 169   0.0000       0.536851        14.6085 
 170   0.0000       0.546181        14.8623 
 171   0.0000       0.547827        14.9071 
 172   0.0000       0.556827        15.1520 
 173   0.0000       0.563298        15.3281 
 174   0.0000       0.567783        15.4502 
 175   0.0000       0.568896        15.4804 
 176   0.0000       0.573688        15.6108 
 177   0.0000       0.576874        15.6975 
 178   0.0000       0.582147        15.8410 
 179   0.0000       0.587015        15.9735 
 180   0.0000       0.595698        16.2098 
 181   0.0000       0.598556        16.2875 
 182   0.0000       0.605300        16.4711 
 183   0.0000       0.611312        16.6346 
 184   0.0000       0.616054        16.7637 
 185   0.0000       0.620811        16.8931 
 186   0.0000       0.625495        17.0206 
 187   0.0000       0.634035        17.2530 
 188   0.0000       0.643707        17.5162 
 189   0.0000       0.646659        17.5965 
 190   0.0000       0.652505        17.7556 
 191   0.0000       0.657678        17.8963 
 192   0.0000       0.665944        18.1212 
 193   0.0000       0.667990        18.1769 
 194   0.0000       0.673499        18.3268 
 195   0.0000       0.681135        18.5346 
 196   0.0000       0.690069        18.7777 
 197   0.0000       0.695404        18.9229 
 198   0.0000       0.701713        19.0946 
 199   0.0000       0.708163        19.2701 
 200   0.0000       0.716076        19.4854 
 201   0.0000       0.717894        19.5349 
 202   0.0000       0.719086        19.5673 
 203   0.0000       0.726998        19.7826 
 204   0.0000       0.736227        20.0337 
 205   0.0000       0.737460        20.0673 
 206   0.0000       0.741503        20.1773 
 207   0.0000       0.745112        20.2755 
 208   0.0000       0.751176        20.4405 
 209   0.0000       0.752429        20.4746 
 210   0.0000       0.756942        20.5974 
 211   0.0000       0.759624        20.6704 
 212   0.0000       0.766952        20.8698 
 213   0.0000       0.769533        20.9400 
 214   0.0000       0.772198        21.0126 
 215   0.0000       0.778640        21.1879 
 216   0.0000       0.784540        21.3484 
 217   0.0000       0.789243        21.4764 
 218   0.0000       0.797938        21.7130 
 219   0.0000       0.804977        21.9045 
 220   0.0000       0.807288        21.9674 
 221   0.0000       0.809218        22.0199 
 222   0.0000       0.817670        22.2499 
 223   0.0000       0.819023        22.2867 
 224   0.0000       0.822173        22.3725 
 225   0.0000       0.826265        22.4838 
 226   0.0000       0.830176        22.5902 
 227   0.0000       0.834901        22.7188 
 228   0.0000       0.839611        22.8470 
 229   0.0000       0.841968        22.9111 
 230   0.0000       0.850344        23.1390 
 231   0.0000       0.852331        23.1931 
 232   0.0000       0.858546        23.3622 
 233   0.0000       0.866342        23.5744 
 234   0.0000       0.872442        23.7404 
 235   0.0000       0.878561        23.9069 
 236   0.0000       0.885602        24.0985 
 237   0.0000       0.894726        24.3467 
 238   0.0000       0.900313        24.4988 
 239   0.0000       0.906262        24.6607 
 240   0.0000       0.918069        24.9819 
 241   0.0000       0.927323        25.2337 
 242   0.0000       0.933890        25.4124 
 243   0.0000       0.949016        25.8240 
 244   0.0000       0.950178        25.8557 
 245   0.0000       0.953311        25.9409 
 246   0.0000       0.961345        26.1595 
 247   0.0000       0.975344        26.5405 
 248   0.0000       0.993751        27.0413 
 249   0.0000       0.999275        27.1917 
 250   0.0000       1.005261        27.3545 
 251   0.0000       1.023736        27.8573 
 252   0.0000       1.029071        28.0024 
 253   0.0000       1.035169        28.1684 
 254   0.0000       1.054237        28.6873 
 255   0.0000       1.058448        28.8018 
 256   0.0000       1.070398        29.1270 
 257   0.0000       1.076108        29.2824 
 258   0.0000       1.086328        29.5605 
 259   0.0000       1.101187        29.9648 
 260   0.0000       1.107589        30.1390 
 261   0.0000       1.117360        30.4049 
 262   0.0000       1.124429        30.5973 
 263   0.0000       1.134375        30.8679 
 264   0.0000       1.141842        31.0711 
 265   0.0000       1.150636        31.3104 
 266   0.0000       1.156537        31.4710 
 267   0.0000       1.158056        31.5123 
 268   0.0000       1.166538        31.7431 
 269   0.0000       1.171068        31.8664 
 270   0.0000       1.181913        32.1615 
 271   0.0000       1.188224        32.3332 
 272   0.0000       1.198324        32.6081 
 273   0.0000       1.206993        32.8440 
 274   0.0000       1.211619        32.9698 
 275   0.0000       1.222401        33.2632 
 276   0.0000       1.232721        33.5440 
 277   0.0000       1.236618        33.6501 
 278   0.0000       1.239629        33.7320 
 279   0.0000       1.253023        34.0965 
 280   0.0000       1.258939        34.2575 
 281   0.0000       1.268681        34.5226 
 282   0.0000       1.274821        34.6896 
 283   0.0000       1.285868        34.9902 
 284   0.0000       1.288775        35.0693 
 285   0.0000       1.295029        35.2395 
 286   0.0000       1.303129        35.4600 
 287   0.0000       1.311761        35.6948 
 288   0.0000       1.315500        35.7966 
 289   0.0000       1.320917        35.9440 
 290   0.0000       1.327018        36.1100 
 291   0.0000       1.338032        36.4097 
 292   0.0000       1.351091        36.7650 
 293   0.0000       1.357568        36.9413 
 294   0.0000       1.360079        37.0096 
 295   0.0000       1.373659        37.3792 
 296   0.0000       1.381788        37.6004 
 297   0.0000       1.390778        37.8450 
 298   0.0000       1.396091        37.9896 
 299   0.0000       1.398843        38.0645 
 300   0.0000       1.403132        38.1812 
 301   0.0000       1.411424        38.4068 
 302   0.0000       1.415398        38.5149 
 303   0.0000       1.426519        38.8176 
 304   0.0000       1.438174        39.1347 
 305   0.0000       1.447116        39.3780 
 306   0.0000       1.448248        39.4088 
 307   0.0000       1.454651        39.5831 
 308   0.0000       1.460124        39.7320 
 309   0.0000       1.467669        39.9373 
 310   0.0000       1.473575        40.0980 
 311   0.0000       1.484251        40.3885 
 312   0.0000       1.489415        40.5291 
 313   0.0000       1.501185        40.8493 
 314   0.0000       1.503892        40.9230 
 315   0.0000       1.511410        41.1275 
 316   0.0000       1.516508        41.2663 
 317   0.0000       1.526905        41.5492 
 318   0.0000       1.529600        41.6225 
 319   0.0000       1.545205        42.0472 
 320   0.0000       1.546990        42.0957 
 321   0.0000       1.552209        42.2378 
 322   0.0000       1.560649        42.4674 
 323   0.0000       1.562924        42.5293 
 324   0.0000       1.576254        42.8921 
 325   0.0000       1.583255        43.0826 
 326   0.0000       1.594112        43.3780 
 327   0.0000       1.597513        43.4705 
 328   0.0000       1.608158        43.7602 
 329   0.0000       1.617591        44.0169 
 330   0.0000       1.627364        44.2828 
 331   0.0000       1.637027        44.5458 
 332   0.0000       1.643724        44.7280 
 333   0.0000       1.651974        44.9525 
 334   0.0000       1.677601        45.6498 
 335   0.0000       1.679908        45.7126 
 336   0.0000       1.685736        45.8712 
 337   0.0000       1.694416        46.1074 
 338   0.0000       1.704943        46.3938 
 339   0.0000       1.709295        46.5123 
 340   0.0000       1.712752        46.6064 
 341   0.0000       1.727227        47.0002 
 342   0.0000       1.737886        47.2903 
 343   0.0000       1.740798        47.3695 
 344   0.0000       1.751247        47.6539 
 345   0.0000       1.764830        48.0235 
 346   0.0000       1.768583        48.1256 
 347   0.0000       1.775054        48.3017 
 348   0.0000       1.780977        48.4629 
 349   0.0000       1.785733        48.5923 
 350   0.0000       1.795112        48.8475 
 351   0.0000       1.800957        49.0065 
 352   0.0000       1.815519        49.4028 
 353   0.0000       1.819903        49.5221 
 354   0.0000       1.841728        50.1160 
 355   0.0000       1.857614        50.5482 
 356   0.0000       1.868119        50.8341 
 357   0.0000       1.891931        51.4821 
 358   0.0000       1.905118        51.8409 
 359   0.0000       1.927671        52.4546 
 360   0.0000       1.935264        52.6612 
 361   0.0000       1.942189        52.8496 
 362   0.0000       1.959661        53.3251 
 363   0.0000       1.987552        54.0840 
 364   0.0000       1.995101        54.2895 
 365   0.0000       2.018217        54.9185 
 366   0.0000       2.021309        55.0026 
 367   0.0000       2.033503        55.3344 
 368   0.0000       2.054637        55.9095 
 369   0.0000       2.065364        56.2014 
 370   0.0000       2.069174        56.3051 
 371   0.0000       2.073797        56.4309 
 372   0.0000       2.090635        56.8891 
 373   0.0000       2.098223        57.0956 
 374   0.0000       2.105163        57.2844 
 375   0.0000       2.127066        57.8804 
 376   0.0000       2.132820        58.0370 
 377   0.0000       2.146873        58.4194 
 378   0.0000       2.157454        58.7073 
 379   0.0000       2.184177        59.4345 
 380   0.0000       2.197354        59.7930 
 381   0.0000       2.205645        60.0186 
 382   0.0000       2.246198        61.1222 
 383   0.0000       2.254671        61.3527 
 384   0.0000       2.264439        61.6185 
 385   0.0000       2.280721        62.0616 
 386   0.0000       2.314952        62.9931 
 387   0.0000       2.338969        63.6466 
 388   0.0000       2.378183        64.7136 
 389   0.0000       2.389721        65.0276 
 390   0.0000       2.396832        65.2211 
 391   0.0000       2.401735        65.3545 
 392   0.0000       2.420647        65.8692 
 393   0.0000       2.446483        66.5722 
 394   0.0000       2.458392        66.8963 
 395   0.0000       2.472576        67.2822 
 396   0.0000       2.488073        67.7039 
 397   0.0000       2.511431        68.3395 
 398   0.0000       2.541872        69.1678 
 399   0.0000       2.550034        69.3899 
 400   0.0000       2.590847        70.5005 
 401   0.0000       2.624150        71.4068 
 402   0.0000       2.642508        71.9063 
 403   0.0000       2.651099        72.1401 
 404   0.0000       2.684343        73.0447 
 405   0.0000       2.699194        73.4488 
 406   0.0000       2.722297        74.0775 
 407   0.0000       2.739281        74.5396 
 408   0.0000       2.741486        74.5996 
 409   0.0000       2.757368        75.0318 
 410   0.0000       2.767699        75.3129 
 411   0.0000       2.787155        75.8424 
 412   0.0000       2.815109        76.6030 
 413   0.0000       2.844315        77.3977 
 414   0.0000       2.847887        77.4949 
 415   0.0000       2.874774        78.2266 
 416   0.0000       2.875536        78.2473 
 417   0.0000       2.882393        78.4339 
 418   0.0000       2.892303        78.7036 
 419   0.0000       2.903803        79.0165 
 420   0.0000       2.916007        79.3486 
 421   0.0000       2.925829        79.6159 
 422   0.0000       2.929267        79.7094 
 423   0.0000       2.942908        80.0806 
 424   0.0000       2.955484        80.4228 
 425   0.0000       2.958078        80.4934 
 426   0.0000       2.963782        80.6486 
 427   0.0000       2.965410        80.6929 
 428   0.0000       2.977833        81.0310 
 429   0.0000       2.988437        81.3195 
 430   0.0000       2.990587        81.3780 
 431   0.0000       2.994425        81.4825 
 432   0.0000       3.005203        81.7757 
 433   0.0000       3.008655        81.8697 
 434   0.0000       3.013177        81.9927 
 435   0.0000       3.023227        82.2662 
 436   0.0000       3.025318        82.3231 
 437   0.0000       3.029398        82.4341 
 438   0.0000       3.032797        82.5266 
 439   0.0000       3.040744        82.7429 
 440   0.0000       3.050470        83.0075 
 441   0.0000       3.061559        83.3093 
 442   0.0000       3.066232        83.4364 
 443   0.0000       3.078967        83.7829 
 444   0.0000       3.097244        84.2803 
 445   0.0000       3.105681        84.5099 
 446   0.0000       3.113500        84.7226 
 447   0.0000       3.122658        84.9718 
 448   0.0000       3.129142        85.1483 
 449   0.0000       3.141066        85.4727 
 450   0.0000       3.151452        85.7554 
 451   0.0000       3.160806        86.0099 
 452   0.0000       3.164333        86.1059 
 453   0.0000       3.191108        86.8345 
 454   0.0000       3.199262        87.0563 
 455   0.0000       3.203928        87.1833 
 456   0.0000       3.214080        87.4596 
 457   0.0000       3.216022        87.5124 
 458   0.0000       3.221952        87.6738 
 459   0.0000       3.229876        87.8894 
 460   0.0000       3.234228        88.0078 
 461   0.0000       3.241560        88.2073 
 462   0.0000       3.251745        88.4845 
 463   0.0000       3.253938        88.5442 
 464   0.0000       3.261124        88.7397 
 465   0.0000       3.275133        89.1209 
 466   0.0000       3.291265        89.5599 
 467   0.0000       3.292836        89.6026 
 468   0.0000       3.317605        90.2766 
 469   0.0000       3.323787        90.4448 
 470   0.0000       3.332360        90.6781 
 471   0.0000       3.357552        91.3636 
 472   0.0000       3.363478        91.5249 
 473   0.0000       3.370656        91.7202 
 474   0.0000       3.381752        92.0222 
 475   0.0000       3.388575        92.2078 
 476   0.0000       3.403330        92.6093 
 477   0.0000       3.413522        92.8867 
 478   0.0000       3.419118        93.0389 
 479   0.0000       3.423927        93.1698 
 480   0.0000       3.443366        93.6988 
 481   0.0000       3.457734        94.0897 
 482   0.0000       3.462827        94.2283 
 483   0.0000       3.477291        94.6219 
 484   0.0000       3.480811        94.7177 
 485   0.0000       3.497688        95.1769 
 486   0.0000       3.506806        95.4250 
 487   0.0000       3.509748        95.5051 
 488   0.0000       3.520184        95.7891 
 489   0.0000       3.527815        95.9967 
 490   0.0000       3.530253        96.0631 
 491   0.0000       3.542528        96.3971 
 492   0.0000       3.547384        96.5292 
 493   0.0000       3.559706        96.8645 
 494   0.0000       3.562637        96.9443 
 495   0.0000       3.577874        97.3589 
 496   0.0000       3.580637        97.4341 
 497   0.0000       3.595708        97.8442 
 498   0.0000       3.607508        98.1653 
 499   0.0000       3.611482        98.2734 
 500   0.0000       3.632994        98.8588 
 501   0.0000       3.640583        99.0653 
 502   0.0000       3.644739        99.1784 
 503   0.0000       3.655755        99.4782 
 504   0.0000       3.659639        99.5838 
 505   0.0000       3.664273        99.7099 
 506   0.0000       3.671564        99.9083 
 507   0.0000       3.679318       100.1193 
 508   0.0000       3.685275       100.2814 
 509   0.0000       3.688513       100.3695 
 510   0.0000       3.711165       100.9859 
 511   0.0000       3.714558       101.0783 
 512   0.0000       3.715266       101.0975 
 513   0.0000       3.740507       101.7844 
 514   0.0000       3.743500       101.8658 
 515   0.0000       3.744241       101.8860 
 516   0.0000       3.760342       102.3241 
 517   0.0000       3.773587       102.6845 
 518   0.0000       3.783102       102.9434 
 519   0.0000       3.806424       103.5781 
 520   0.0000       3.816202       103.8441 
 521   0.0000       3.829278       104.2000 
 522   0.0000       3.830963       104.2458 
 523   0.0000       3.855169       104.9045 
 524   0.0000       3.860413       105.0472 
 525   0.0000       3.873743       105.4099 
 526   0.0000       3.882153       105.6388 
 527   0.0000       3.885673       105.7345 
 528   0.0000       3.888883       105.8219 
 529   0.0000       3.906763       106.3084 
 530   0.0000       3.918328       106.6231 
 531   0.0000       3.931218       106.9739 
 532   0.0000       3.935760       107.0975 
 533   0.0000       3.949705       107.4769 
 534   0.0000       3.953141       107.5704 
 535   0.0000       3.973198       108.1162 
 536   0.0000       3.985104       108.4402 
 537   0.0000       3.986452       108.4769 
 538   0.0000       4.001806       108.8947 
 539   0.0000       4.014584       109.2424 
 540   0.0000       4.025081       109.5280 
 541   0.0000       4.036504       109.8389 
 542   0.0000       4.042051       109.9898 
 543   0.0000       4.058726       110.4436 
 544   0.0000       4.069234       110.7295 
 545   0.0000       4.074195       110.8645 
 546   0.0000       4.086721       111.2053 
 547   0.0000       4.103969       111.6747 
 548   0.0000       4.117839       112.0521 
 549   0.0000       4.121864       112.1616 
 550   0.0000       4.141134       112.6860 
 551   0.0000       4.160151       113.2035 
 552   0.0000       4.165577       113.3511 
 553   0.0000       4.173918       113.5781 
 554   0.0000       4.187051       113.9355 
 555   0.0000       4.198261       114.2405 
 556   0.0000       4.202432       114.3540 
 557   0.0000       4.214570       114.6843 
 558   0.0000       4.225383       114.9785 
 559   0.0000       4.244922       115.5102 
 560   0.0000       4.250610       115.6650 
 561   0.0000       4.261903       115.9723 
 562   0.0000       4.268391       116.1488 
 563   0.0000       4.276149       116.3599 
 564   0.0000       4.289272       116.7170 
 565   0.0000       4.292493       116.8047 
 566   0.0000       4.300428       117.0206 
 567   0.0000       4.310361       117.2909 
 568   0.0000       4.314194       117.3952 
 569   0.0000       4.319211       117.5317 
 570   0.0000       4.326178       117.7213 
 571   0.0000       4.334721       117.9537 
 572   0.0000       4.342082       118.1541 
 573   0.0000       4.353768       118.4721 
 574   0.0000       4.364516       118.7645 
 575   0.0000       4.369741       118.9067 
 576   0.0000       4.377080       119.1064 
 577   0.0000       4.391026       119.4859 
 578   0.0000       4.406248       119.9001 
 579   0.0000       4.432969       120.6272 
 580   0.0000       4.439157       120.7956 
 581   0.0000       4.445250       120.9614 
 582   0.0000       4.452035       121.1460 
 583   0.0000       4.455634       121.2440 
 584   0.0000       4.460776       121.3839 
 585   0.0000       4.464133       121.4752 
 586   0.0000       4.471374       121.6723 
 587   0.0000       4.484909       122.0406 
 588   0.0000       4.491799       122.2281 
 589   0.0000       4.511030       122.7514 
 590   0.0000       4.527499       123.1995 
 591   0.0000       4.528225       123.2193 
 592   0.0000       4.549679       123.8030 
 593   0.0000       4.559122       124.0600 
 594   0.0000       4.583034       124.7107 
 595   0.0000       4.583963       124.7360 
 596   0.0000       4.592803       124.9765 
 597   0.0000       4.601900       125.2241 
 598   0.0000       4.607926       125.3880 
 599   0.0000       4.657480       126.7365 
 600   0.0000       4.685630       127.5025 
 601   0.0000       4.725366       128.5838 
 602   0.0000       4.758014       129.4721 
 603   0.0000       4.760582       129.5420 
 604   0.0000       4.771197       129.8309 
 605   0.0000       4.777528       130.0032 
 606   0.0000       4.792851       130.4201 
 607   0.0000       4.805583       130.7666 
 608   0.0000       4.816243       131.0566 
 609   0.0000       4.832827       131.5079 
 610   0.0000       4.845587       131.8551 
 611   0.0000       4.858047       132.1942 
 612   0.0000       4.871607       132.5632 
 613   0.0000       4.884578       132.9161 
 614   0.0000       4.888868       133.0329 
 615   0.0000       4.903638       133.4348 
 616   0.0000       4.910311       133.6164 
 617   0.0000       4.928155       134.1019 
 618   0.0000       4.976264       135.4110 
 619   0.0000       4.997116       135.9784 
 620   0.0000       5.017414       136.5308 
 621   0.0000       5.022562       136.6709 
 622   0.0000       5.037376       137.0740 
 623   0.0000       5.048726       137.3828 
 624   0.0000       5.060547       137.7045 
 625   0.0000       5.088618       138.4683 
 626   0.0000       5.105458       138.9266 
 627   0.0000       5.126532       139.5000 
 628   0.0000       5.134577       139.7189 
 629   0.0000       5.147419       140.0684 
 630   0.0000       5.154900       140.2720 
 631   0.0000       5.158883       140.3803 
 632   0.0000       5.170866       140.7064 
 633   0.0000       5.181129       140.9857 
 634   0.0000       5.187764       141.1662 
 635   0.0000       5.193959       141.3348 
 636   0.0000       5.206093       141.6650 
 637   0.0000       5.211803       141.8204 
 638   0.0000       5.222429       142.1095 
 639   0.0000       5.241025       142.6155 
 640   0.0000       5.296859       144.1348 
 641   0.0000       5.299858       144.2165 
 642   0.0000       5.305922       144.3815 
 643   0.0000       5.333640       145.1357 
 644   0.0000       5.344194       145.4229 
 645   0.0000       5.366229       146.0225 
 646   0.0000       5.388023       146.6155 
 647   0.0000       5.402184       147.0009 
 648   0.0000       5.414375       147.3326 
 649   0.0000       5.443098       148.1142 
 650   0.0000       5.452701       148.3755 
 651   0.0000       5.471964       148.8997 
 652   0.0000       5.483916       149.2250 
 653   0.0000       5.500165       149.6671 
 654   0.0000       5.502921       149.7421 
 655   0.0000       5.511463       149.9745 
 656   0.0000       5.519835       150.2023 
 657   0.0000       5.521018       150.2345 
 658   0.0000       5.538853       150.7199 
 659   0.0000       5.553885       151.1289 
 660   0.0000       5.554357       151.1417 
 661   0.0000       5.572474       151.6347 
 662   0.0000       5.589107       152.0873 
 663   0.0000       5.601024       152.4116 
 664   0.0000       5.608568       152.6169 
 665   0.0000       5.616073       152.8211 
 666   0.0000       5.629049       153.1742 
 667   0.0000       5.633988       153.3086 
 668   0.0000       5.639900       153.4695 
 669   0.0000       5.656466       153.9203 
 670   0.0000       5.672519       154.3571 
 671   0.0000       5.687882       154.7751 
 672   0.0000       5.715414       155.5243 
 673   0.0000       5.741313       156.2291 
 674   0.0000       5.774742       157.1387 
 675   0.0000       5.789247       157.5334 
 676   0.0000       5.802353       157.8900 
 677   0.0000       5.817421       158.3001 
 678   0.0000       5.831248       158.6763 
 679   0.0000       5.841390       158.9523 
 680   0.0000       5.845211       159.0563 
 681   0.0000       5.851351       159.2234 
 682   0.0000       5.866936       159.6474 
 683   0.0000       5.904767       160.6769 
 684   0.0000       5.920309       161.0998 
 685   0.0000       5.953386       161.9999 
 686   0.0000       5.966057       162.3447 
 687   0.0000       5.986751       162.9078 
 688   0.0000       5.990942       163.0218 
 689   0.0000       6.046444       164.5321 
 690   0.0000       6.172922       167.9737 
 691   0.0000       6.223128       169.3399 
 692   0.0000       6.246390       169.9729 
 693   0.0000       6.273286       170.7048 
 694   0.0000       6.387357       173.8088 
 695   0.0000       6.446254       175.4115 
 696   0.0000       6.566278       178.6775 
 697   0.0000       6.680878       181.7959 
 698   0.0000       6.717707       182.7981 
 699   0.0000       6.885397       187.3612 
 700   0.0000       6.928888       188.5446 
 701   0.0000       6.995002       190.3437 
 702   0.0000       7.067651       192.3206 
 703   0.0000       7.235390       196.8850 
 704   0.0000       7.304636       198.7692 
 705   0.0000       7.513878       204.4630 
 706   0.0000       7.613777       207.1814 
 707   0.0000       7.701532       209.5694 
 708   0.0000       7.830891       213.0894 
 709   0.0000      23.749679       646.2616 
 710   0.0000      23.795680       647.5134 
 711   0.0000      24.010451       653.3576 
 712   0.0000      24.113602       656.1645 
 713   0.0000      24.129163       656.5879 
 714   0.0000      24.173286       657.7885 
 715   0.0000      24.246129       659.7707 
 716   0.0000      25.566203       695.6918 
 717   0.0000      33.779360       919.1831 
 718   0.0000      45.070960      1226.4432 
 719   0.0000      45.183583      1229.5078 
 720   0.0000      84.703648      2304.9034 

                    ********************************
                    * MULLIKEN POPULATION ANALYSIS *
                    ********************************

-----------------------
MULLIKEN ATOMIC CHARGES
-----------------------
   0 Mo:    0.831280
   1 C :    0.272824
   2 C :   -0.267488
   3 H :    0.107864
   4 H :    0.103649
   5 H :    0.137368
   6 C :   -0.198958
   7 C :   -0.074422
   8 N :   -0.666715
   9 O :   -0.587860
  10 O :   -0.476194
  11 H :    0.084205
  12 H :    0.070594
  13 H :    0.089263
  14 H :    0.049325
  15 H :    0.049357
  16 H :    0.043393
  17 C :    0.102283
  18 C :    0.079168
  19 H :    0.095881
  20 H :    0.075525
  21 H :    0.166814
  22 H :    0.103320
  23 C :   -0.659891
  24 H :    0.053299
  25 H :    0.121447
  26 H :    0.071564
  27 H :    0.223105
Sum of atomic charges:   -0.0000000

--------------------------------
MULLIKEN REDUCED ORBITAL CHARGES
--------------------------------
  0 Mos       :     2.771679  s :     2.771679
      pz      :     2.272555  p :     6.408429
      px      :     2.114155
      py      :     2.021719
      dz2     :     0.754301  d :     3.769240
      dxz     :     0.924685
      dyz     :     0.738114
      dx2y2   :     0.664970
      dxy     :     0.687172
      f0      :     0.031055  f :     0.205880
      f+1     :     0.020716
      f-1     :     0.021733
      f+2     :     0.021155
      f-2     :     0.026650
      f+3     :     0.032519
      f-3     :     0.052050
      g0      :     0.001526  g :     0.013491
      g+1     :     0.001089
      g-1     :     0.001398
      g+2     :     0.001024
      g-2     :     0.000955
      g+3     :     0.001534
      g-3     :     0.001027
      g+4     :     0.002737
      g-4     :     0.002201
  1 C s       :     3.107133  s :     3.107133
      pz      :     0.993328  p :     2.688139
      px      :     0.806191
      py      :     0.888620
      dz2     :    -0.010692  d :    -0.075054
      dxz     :    -0.019469
      dyz     :    -0.026715
      dx2y2   :    -0.019976
      dxy     :     0.001798
      f0      :     0.001126  f :     0.006957
      f+1     :     0.001489
      f-1     :     0.001446
      f+2     :     0.000561
      f-2     :     0.001002
      f+3     :     0.000742
      f-3     :     0.000590
  2 C s       :     3.232003  s :     3.232003
      pz      :     1.075629  p :     2.923095
      px      :     1.035636
      py      :     0.811829
      dz2     :     0.010037  d :     0.105628
      dxz     :     0.031047
      dyz     :     0.037922
      dx2y2   :     0.016746
      dxy     :     0.009875
      f0      :     0.000506  f :     0.006762
      f+1     :     0.000389
      f-1     :     0.001286
      f+2     :     0.001320
      f-2     :     0.000834
      f+3     :     0.001234
      f-3     :     0.001194
  3 H s       :     0.853879  s :     0.853879
      pz      :     0.016023  p :     0.036322
      px      :     0.005523
      py      :     0.014775
      dz2     :     0.000561  d :     0.001935
      dxz     :     0.000361
      dyz     :     0.000349
      dx2y2   :     0.000332
      dxy     :     0.000333
  4 H s       :     0.869491  s :     0.869491
      pz      :     0.000354  p :     0.024893
      px      :     0.017092
      py      :     0.007446
      dz2     :     0.000220  d :     0.001967
      dxz     :     0.000573
      dyz     :     0.000137
      dx2y2   :     0.000353
      dxy     :     0.000685
  5 H s       :     0.828231  s :     0.828231
      pz      :     0.008287  p :     0.032419
      px      :     0.013730
      py      :     0.010402
      dz2     :     0.000545  d :     0.001982
      dxz     :     0.000335
      dyz     :     0.000516
      dx2y2   :     0.000372
      dxy     :     0.000214
  6 C s       :     3.206378  s :     3.206378
      pz      :     1.001976  p :     2.816604
      px      :     0.814217
      py      :     1.000411
      dz2     :     0.049804  d :     0.165605
      dxz     :     0.033256
      dyz     :     0.019322
      dx2y2   :     0.010274
      dxy     :     0.052949
      f0      :     0.000809  f :     0.010372
      f+1     :     0.002008
      f-1     :     0.000780
      f+2     :     0.001328
      f-2     :     0.001715
      f+3     :     0.002210
      f-3     :     0.001522
  7 C s       :     3.175585  s :     3.175585
      pz      :     1.021157  p :     2.728296
      px      :     0.961799
      py      :     0.745341
      dz2     :     0.040296  d :     0.160348
      dxz     :     0.015480
      dyz     :     0.030425
      dx2y2   :     0.038476
      dxy     :     0.035670
      f0      :     0.001426  f :     0.010193
      f+1     :     0.000685
      f-1     :     0.001143
      f+2     :     0.000988
      f-2     :     0.001352
      f+3     :     0.002009
      f-3     :     0.002591
  8 N s       :     4.044787  s :     4.044787
      pz      :     1.358719  p :     3.645182
      px      :     1.264632
      py      :     1.021830
      dz2     :    -0.002236  d :    -0.027951
      dxz     :     0.001061
      dyz     :     0.009885
      dx2y2   :    -0.031965
      dxy     :    -0.004697
      f0      :     0.000470  f :     0.004697
      f+1     :     0.000169
      f-1     :     0.000668
      f+2     :     0.000565
      f-2     :     0.000590
      f+3     :     0.001091
      f-3     :     0.001144
  9 O s       :     3.813772  s :     3.813772
      pz      :     1.775188  p :     4.759201
      px      :     1.585536
      py      :     1.398476
      dz2     :     0.003194  d :     0.013400
      dxz     :     0.007748
      dyz     :     0.004947
      dx2y2   :     0.006107
      dxy     :    -0.008597
      f0      :     0.000159  f :     0.001488
      f+1     :     0.000144
      f-1     :     0.000194
      f+2     :     0.000105
      f-2     :     0.000176
      f+3     :     0.000418
      f-3     :     0.000293
 10 O s       :     3.789346  s :     3.789346
      pz      :     1.691075  p :     4.689184
      px      :     1.421526
      py      :     1.576583
      dz2     :     0.005102  d :    -0.003863
      dxz     :     0.000505
      dyz     :     0.007057
      dx2y2   :    -0.001289
      dxy     :    -0.015238
      f0      :     0.000183  f :     0.001527
      f+1     :     0.000186
      f-1     :     0.000113
      f+2     :     0.000204
      f-2     :     0.000288
      f+3     :     0.000226
      f-3     :     0.000327
 11 H s       :     0.874846  s :     0.874846
      pz      :     0.019520  p :     0.039044
      px      :     0.007118
      py      :     0.012407
      dz2     :     0.000522  d :     0.001904
      dxz     :     0.000590
      dyz     :     0.000554
      dx2y2   :     0.000061
      dxy     :     0.000176
 12 H s       :     0.890730  s :     0.890730
      pz      :     0.010667  p :     0.036760
      px      :     0.006934
      py      :     0.019159
      dz2     :     0.000476  d :     0.001916
      dxz     :     0.000217
      dyz     :     0.000338
      dx2y2   :     0.000376
      dxy     :     0.000510
 13 H s       :     0.865218  s :     0.865218
      pz      :     0.002736  p :     0.043530
      px      :     0.015563
      py      :     0.025230
      dz2     :     0.000107  d :     0.001988
      dxz     :     0.000373
      dyz     :     0.000353
      dx2y2   :     0.000779
      dxy     :     0.000377
 14 H s       :     0.913549  s :     0.913549
      pz      :     0.008411  p :     0.035236
      px      :     0.018288
      py      :     0.008537
      dz2     :     0.000497  d :     0.001889
      dxz     :     0.000356
      dyz     :     0.000154
      dx2y2   :     0.000287
      dxy     :     0.000595
 15 H s       :     0.906214  s :     0.906214
      pz      :     0.019758  p :     0.042531
      px      :     0.014419
      py      :     0.008354
      dz2     :     0.000480  d :     0.001898
      dxz     :     0.000612
      dyz     :     0.000650
      dx2y2   :     0.000034
      dxy     :     0.000122
 16 H s       :     0.946260  s :     0.946260
      pz      :    -0.006425  p :     0.008444
      px      :     0.003966
      py      :     0.010903
      dz2     :     0.000204  d :     0.001903
      dxz     :     0.000250
      dyz     :     0.000349
      dx2y2   :     0.000735
      dxy     :     0.000364
 17 C s       :     2.956751  s :     2.956751
      pz      :     0.991845  p :     2.898653
      px      :     0.909522
      py      :     0.997285
      dz2     :    -0.003499  d :     0.038004
      dxz     :     0.020847
      dyz     :     0.009461
      dx2y2   :     0.006038
      dxy     :     0.005158
      f0      :     0.001191  f :     0.004310
      f+1     :     0.000885
      f-1     :     0.000746
      f+2     :     0.000297
      f-2     :     0.000718
      f+3     :     0.000403
      f-3     :     0.000068
 18 C s       :     2.838049  s :     2.838049
      pz      :     1.004259  p :     3.019819
      px      :     0.956055
      py      :     1.059505
      dz2     :     0.011244  d :     0.057776
      dxz     :     0.028390
      dyz     :    -0.007519
      dx2y2   :     0.006915
      dxy     :     0.018745
      f0      :     0.001101  f :     0.005188
      f+1     :     0.001284
      f-1     :     0.001128
      f+2     :     0.000328
      f-2     :     0.000799
      f+3     :     0.000365
      f-3     :     0.000183
 19 H s       :     0.847109  s :     0.847109
      pz      :     0.032023  p :     0.054989
      px      :     0.008704
      py      :     0.014262
      dz2     :     0.000486  d :     0.002021
      dxz     :     0.000243
      dyz     :     0.000573
      dx2y2   :     0.000340
      dxy     :     0.000379
 20 H s       :     0.867073  s :     0.867073
      pz      :     0.030453  p :     0.055466
      px      :     0.013265
      py      :     0.011747
      dz2     :     0.000685  d :     0.001936
      dxz     :     0.000336
      dyz     :     0.000344
      dx2y2   :     0.000315
      dxy     :     0.000256
 21 H s       :     0.773320  s :     0.773320
      pz      :     0.019655  p :     0.058019
      px      :     0.011205
      py      :     0.027160
      dz2     :     0.000296  d :     0.001847
      dxz     :     0.000195
      dyz     :     0.000503
      dx2y2   :     0.000399
      dxy     :     0.000453
 22 H s       :     0.852589  s :     0.852589
      pz      :     0.013194  p :     0.042153
      px      :     0.015197
      py      :     0.013762
      dz2     :     0.000634  d :     0.001937
      dxz     :     0.000342
      dyz     :     0.000275
      dx2y2   :     0.000370
      dxy     :     0.000315
 23 C s       :     3.253335  s :     3.253335
      pz      :     1.124230  p :     3.287636
      px      :     1.103777
      py      :     1.059628
      dz2     :     0.000144  d :     0.114810
      dxz     :     0.022030
      dyz     :     0.029837
      dx2y2   :     0.046524
      dxy     :     0.016276
      f0      :     0.000276  f :     0.004110
      f+1     :     0.000502
      f-1     :     0.000646
      f+2     :     0.000438
      f-2     :     0.001082
      f+3     :     0.000517
      f-3     :     0.000649
 24 H s       :     0.895890  s :     0.895890
      pz      :     0.026199  p :     0.048918
      px      :     0.011676
      py      :     0.011043
      dz2     :     0.000543  d :     0.001893
      dxz     :     0.000455
      dyz     :     0.000452
      dx2y2   :     0.000201
      dxy     :     0.000242
 25 H s       :     0.833023  s :     0.833023
      pz      :     0.016693  p :     0.043689
      px      :     0.015415
      py      :     0.011582
      dz2     :     0.000182  d :     0.001840
      dxz     :     0.000409
      dyz     :     0.000275
      dx2y2   :     0.000571
[...]
      dx2y2   :     0.143946
      dxy     :     0.142767
      f0      :     0.000347  f :     0.004048
      f+1     :     0.000345
      f-1     :     0.000516
      f+2     :     0.000402
      f-2     :     0.000467
      f+3     :     0.000922
      f-3     :     0.001048
 10 O s       :     3.310417  s :     3.310417
      pz      :     1.559223  p :     4.567986
      px      :     1.470790
      py      :     1.537974
      dz2     :     0.079635  d :     0.486591
      dxz     :     0.085610
      dyz     :     0.063570
      dx2y2   :     0.128370
      dxy     :     0.129406
      f0      :     0.000343  f :     0.003946
      f+1     :     0.000620
      f-1     :     0.000233
      f+2     :     0.000550
      f-2     :     0.000649
      f+3     :     0.000775
      f-3     :     0.000776
 11 H s       :     0.718637  s :     0.718637
      pz      :     0.126118  p :     0.261358
      px      :     0.056296
      py      :     0.078944
      dz2     :     0.009716  d :     0.026847
      dxz     :     0.006040
      dyz     :     0.008308
      dx2y2   :     0.001059
      dxy     :     0.001724
 12 H s       :     0.717165  s :     0.717165
      pz      :     0.089100  p :     0.262295
      px      :     0.066320
      py      :     0.106874
      dz2     :     0.005359  d :     0.027008
      dxz     :     0.003662
      dyz     :     0.006542
      dx2y2   :     0.005672
      dxy     :     0.005773
 13 H s       :     0.694225  s :     0.694225
      pz      :     0.074111  p :     0.300367
      px      :     0.094072
      py      :     0.132183
      dz2     :     0.002629  d :     0.027610
      dxz     :     0.004233
      dyz     :     0.004748
      dx2y2   :     0.007471
      dxy     :     0.008529
 14 H s       :     0.716583  s :     0.716583
      pz      :     0.093888  p :     0.262999
      px      :     0.114665
      py      :     0.054447
      dz2     :     0.006090  d :     0.027037
      dxz     :     0.007676
      dyz     :     0.002084
      dx2y2   :     0.005567
      dxy     :     0.005620
 15 H s       :     0.716938  s :     0.716938
      pz      :     0.135848  p :     0.264849
      px      :     0.074820
      py      :     0.054182
      dz2     :     0.009910  d :     0.026844
      dxz     :     0.008907
      dyz     :     0.006698
      dx2y2   :     0.000488
      dxy     :     0.000841
 16 H s       :     0.709422  s :     0.709422
      pz      :     0.079999  p :     0.289111
      px      :     0.109656
      py      :     0.099455
      dz2     :     0.003332  d :     0.027021
      dxz     :     0.003476
      dyz     :     0.005231
      dx2y2   :     0.007391
      dxy     :     0.007590
 17 C s       :     2.808053  s :     2.808053
      pz      :     0.997265  p :     2.651664
      px      :     0.741614
      py      :     0.912785
      dz2     :     0.109647  d :     0.441472
      dxz     :     0.095814
      dyz     :     0.131155
      dx2y2   :     0.042694
      dxy     :     0.062162
      f0      :     0.007867  f :     0.020841
      f+1     :     0.003435
      f-1     :     0.003271
      f+2     :     0.001168
      f-2     :     0.003026
      f+3     :     0.001386
      f-3     :     0.000688
 18 C s       :     2.674069  s :     2.674069
      pz      :     0.954437  p :     2.582513
      px      :     0.773124
      py      :     0.854953
      dz2     :     0.144124  d :     0.640072
      dxz     :     0.184282
      dyz     :     0.167550
      dx2y2   :     0.060463
      dxy     :     0.083653
      f0      :     0.007422  f :     0.029523
      f+1     :     0.006508
      f-1     :     0.007069
      f+2     :     0.001787
      f-2     :     0.003952
      f+3     :     0.001395
      f-3     :     0.001390
 19 H s       :     0.736626  s :     0.736626
      pz      :     0.104941  p :     0.320289
      px      :     0.087915
      py      :     0.127433
      dz2     :     0.005001  d :     0.028387
      dxz     :     0.002929
      dyz     :     0.008515
      dx2y2   :     0.005463
      dxy     :     0.006479
 20 H s       :     0.746016  s :     0.746016
      pz      :     0.115936  p :     0.317252
      px      :     0.092882
      py      :     0.108434
      dz2     :     0.006950  d :     0.028229
      dxz     :     0.005360
      dyz     :     0.006584
      dx2y2   :     0.004331
      dxy     :     0.005004
 21 H s       :     0.696251  s :     0.696251
      pz      :     0.077886  p :     0.293653
      px      :     0.092434
      py      :     0.123332
      dz2     :     0.004161  d :     0.028574
      dxz     :     0.002143
      dyz     :     0.007614
      dx2y2   :     0.007240
      dxy     :     0.007416
 22 H s       :     0.697927  s :     0.697927
      pz      :     0.091480  p :     0.285235
      px      :     0.104070
      py      :     0.089685
      dz2     :     0.006760  d :     0.028090
      dxz     :     0.006793
      dyz     :     0.004537
      dx2y2   :     0.004613
      dxy     :     0.005387
 23 C s       :     2.641750  s :     2.641750
      pz      :     0.906991  p :     2.700171
      px      :     0.893145
      py      :     0.900035
      dz2     :     0.082528  d :     0.538711
      dxz     :     0.091502
      dyz     :     0.125996
      dx2y2   :     0.094654
      dxy     :     0.144030
      f0      :     0.003442  f :     0.031228
      f+1     :     0.004619
      f-1     :     0.004648
      f+2     :     0.003607
      f-2     :     0.005082
      f+3     :     0.004414
      f-3     :     0.005416
 24 H s       :     0.705180  s :     0.705180
      pz      :     0.112156  p :     0.282217
      px      :     0.080967
      py      :     0.089094
      dz2     :     0.008642  d :     0.028307
      dxz     :     0.006267
      dyz     :     0.007451
      dx2y2   :     0.002633
      dxy     :     0.003314
 25 H s       :     0.704355  s :     0.704355
      pz      :     0.078066  p :     0.275452
      px      :     0.107615
      py      :     0.089771
      dz2     :     0.003143  d :     0.027964
      dxz     :     0.006147
      dyz     :     0.003731
      dx2y2   :     0.007799
      dxy     :     0.007144
 26 H s       :     0.694926  s :     0.694926
      pz      :     0.103645  p :     0.294665
      px      :     0.083140
      py      :     0.107881
      dz2     :     0.006631  d :     0.028602
      dxz     :     0.004789
      dyz     :     0.006974
      dx2y2   :     0.004687
      dxy     :     0.005521
 27 H s       :     0.680363  s :     0.680363
      pz      :     0.088999  p :     0.302963
      px      :     0.104490
      py      :     0.109474
      dz2     :     0.006432  d :     0.030383
      dxz     :     0.004789
      dyz     :     0.007649
      dx2y2   :     0.005965
      dxy     :     0.005548


                      *****************************
                      * MAYER POPULATION ANALYSIS *
                      *****************************

  NA   - Mulliken gross atomic population
  ZA   - Total nuclear charge
  QA   - Mulliken gross atomic charge
  VA   - Mayer's total valence
  BVA  - Mayer's bonded valence
  FA   - Mayer's free valence

  ATOM       NA         ZA         QA         VA         BVA        FA
  0 Mo    13.1687    14.0000     0.8313     6.2734     6.2734    -0.0000
  1 C      5.7272     6.0000     0.2728     3.2940     3.2940    -0.0000
  2 C      6.2675     6.0000    -0.2675     3.6829     3.6829    -0.0000
  3 H      0.8921     1.0000     0.1079     1.0367     1.0367    -0.0000
  4 H      0.8964     1.0000     0.1036     1.0124     1.0124     0.0000
  5 H      0.8626     1.0000     0.1374     1.0059     1.0059    -0.0000
  6 C      6.1990     6.0000    -0.1990     3.9358     3.9358    -0.0000
  7 C      6.0744     6.0000    -0.0744     3.9549     3.9549    -0.0000
  8 N      7.6667     7.0000    -0.6667     1.9673     1.9673    -0.0000
  9 O      8.5879     8.0000    -0.5879     1.6017     1.6017     0.0000
 10 O      8.4762     8.0000    -0.4762     1.4126     1.4126    -0.0000
 11 H      0.9158     1.0000     0.0842     1.0515     1.0515    -0.0000
 12 H      0.9294     1.0000     0.0706     1.0400     1.0400    -0.0000
 13 H      0.9107     1.0000     0.0893     1.0568     1.0568    -0.0000
 14 H      0.9507     1.0000     0.0493     1.0473     1.0473     0.0000
 15 H      0.9506     1.0000     0.0494     1.0717     1.0717     0.0000
 16 H      0.9566     1.0000     0.0434     0.9833     0.9833    -0.0000
 17 C      5.8977     6.0000     0.1023     3.7707     3.7707    -0.0000
 18 C      5.9208     6.0000     0.0792     3.5623     3.5623    -0.0000
 19 H      0.9041     1.0000     0.0959     1.0568     1.0568    -0.0000
 20 H      0.9245     1.0000     0.0755     1.0717     1.0717    -0.0000
 21 H      0.8332     1.0000     0.1668     1.0149     1.0149    -0.0000
 22 H      0.8967     1.0000     0.1033     0.9951     0.9951    -0.0000
 23 C      6.6599     6.0000    -0.6599     4.1689     4.1689     0.0000
 24 H      0.9467     1.0000     0.0533     1.0706     1.0706     0.0000
 25 H      0.8786     1.0000     0.1214     1.0159     1.0159     0.0000
 26 H      0.9284     1.0000     0.0716     1.0331     1.0331     0.0000
 27 H      0.7769     1.0000     0.2231     0.8992     0.8992    -0.0000

  Mayer bond orders larger than 0.100000
B(  0-Mo,  1-C ) :   0.6836 B(  0-Mo,  2-C ) :   0.1147 B(  0-Mo,  8-N ) :   1.4595 
B(  0-Mo,  9-O ) :   0.7610 B(  0-Mo, 10-O ) :   0.7867 B(  0-Mo, 17-C ) :   1.6125 
B(  0-Mo, 18-C ) :   0.3069 B(  0-Mo, 23-C ) :   0.1670 B(  1-C , 10-O ) :  -0.1320 
B(  1-C , 18-C ) :   1.1649 B(  1-C , 23-C ) :   0.8887 B(  1-C , 27-H ) :   0.9252 
B(  2-C ,  3-H ) :   1.0246 B(  2-C ,  4-H ) :   0.9862 B(  2-C ,  5-H ) :   1.0015 
B(  2-C ,  8-N ) :   0.5757 B(  6-C , 10-O ) :   0.8711 B(  6-C , 11-H ) :   1.0313 
B(  6-C , 12-H ) :   1.0378 B(  6-C , 13-H ) :   0.9957 B(  7-C ,  9-O ) :   0.9030 
B(  7-C , 14-H ) :   1.0428 B(  7-C , 15-H ) :   1.0235 B(  7-C , 16-H ) :   0.9836 
B( 17-C , 18-C ) :   0.1540 B( 17-C , 19-H ) :   1.0312 B( 17-C , 20-H ) :   1.0321 
B( 18-C , 21-H ) :   0.9523 B( 18-C , 22-H ) :   1.0293 B( 23-C , 24-H ) :   1.0358 
B( 23-C , 25-H ) :   1.0286 B( 23-C , 26-H ) :   1.0320 

-------
TIMINGS
-------

Total SCF time: 0 days 0 hours 0 min 57 sec 

Total time                  ....      57.784 sec
Sum of individual times     ....      56.927 sec  ( 98.5%)

Fock matrix formation       ....      49.567 sec  ( 85.8%)
  XC integration            ....       5.837 sec  ( 11.8% of F)
    Basis function eval.    ....       1.072 sec  ( 18.4% of XC)
    Density eval.           ....       1.824 sec  ( 31.3% of XC)
    XC-Functional eval.     ....       0.074 sec  (  1.3% of XC)
    XC-Potential eval.      ....       1.850 sec  ( 31.7% of XC)
Diagonalization             ....       2.547 sec  (  4.4%)
Density matrix formation    ....       0.104 sec  (  0.2%)
Population analysis         ....       0.108 sec  (  0.2%)
Initial guess               ....       2.227 sec  (  3.9%)
Orbital Transformation      ....       0.000 sec  (  0.0%)
Orbital Orthonormalization  ....       0.000 sec  (  0.0%)
DIIS solution               ....       1.519 sec  (  2.6%)
Grid generation             ....       0.855 sec  (  1.5%)


           ************************************************************
           *        Program running with 24 parallel MPI-processes    *
           *              working on a common directory               *
           ************************************************************

------------------------------------------------------------------------------
                                ORCA  MP2 
------------------------------------------------------------------------------

Freezing NCore=20 chemical core electrons

-------------
RI-MP2 ENERGY
-------------
Dimension of the basis                    ...  721
Memory devoted to MP2                     ... 5000 MB   
Data format for buffers                   ... DOUBLE
Compression type for matrix containers    ... UNCOMPRESSED
Overall scaling of the MP2 energy         ...   2.700e-01
Calculating two index integrals           ... done (    0.024 sec)
Cholesky decomposition of V**-1           ... done (    0.298 sec)

-----------------
RI-TRANSFORMATION (AUX index driven)
-----------------

Dimension of the orbital-basis         ... 721
Dimension of the aux-basis             ... 1759
Transformation of internal/external MOs...   10-  47 to   48- 720
Number Format for Storage              ... Double (8 Byte)
Integral mode                          ... Direct

First Phase: integral generation and transformation of MO indices
  Aux angular momentum 0               ... done (    0.111 sec)
  Aux angular momentum 1               ... done (    0.238 sec)
  Aux angular momentum 2               ... done (    0.302 sec)
  Aux angular momentum 3               ... done (    0.233 sec)
  Aux angular momentum 4               ... done (    0.100 sec)
  Aux angular momentum 5               ... done (    0.124 sec)
  Aux angular momentum 6               ... done (    0.155 sec)
Closing buffer VIA ( 0.34 GB; CompressionRatio= 1.00)
  Phase 1 completed in     1.368 sec
Second Phase: sorting and transformation of aux index

IA-Transformation
Memory available                       ... 4935 MB 
Max. # MO pairs treated in a batch     ... 2    
# of internal orbitals                 ... 38
# batches for internal orbitals        ... 1
Closing buffer IAV ( 0.02 GB; CompressionRatio= 1.00)
(ia|v) transformation done in     0.252 sec

  Phase 2 completed in     0.634 sec
RI-Integral transformation completed in     2.022 sec
Opening buffers                              ... done

Starting loop over batches of integrals:

Operator 0  - window                       ... ( 10- 47)x( 48-720)
Operator 0  - Memory available             ...  5000 MB
Operator 0  - Memory needed per MO         ...   9.0 MB
Operator 0  - Number of orbitals per batch ... 2
Operator 0  - Number of batches            ... 1

OPERATOR  0   PASS   0:  MOs    10 ...   11 +   12 ...   13 +   14 ...   15 +   16 ...   17
                            +   18 ...   19 +   20 ...   21 +   22 ...   23 +   24 ...   25
                            +   26 ...   27 +   28 ...   29 +   30 ...   31 +   32 ...   33
                            +   34 ...   35 +   36 ...   37 +   38 ...   39 +   40 ...   41
                            +   42 ...   43 +   44 ...   45 +   46 ...   47
  Reading integrals       ... ok
Time spent in pair loops =     0.139 sec
Deleting buffer (Ka|jb)[aa] ...done

-----------------------------------------------
 RI-MP2 CORRELATION ENERGY:     -0.861489014 Eh
-----------------------------------------------


-------
TIMINGS
-------

Total time                :    4.928 sec
Integral trafo            :    2.036 sec ( 41.3%)
I/O of integrals          :    0.023 sec (  0.5%)
K(i,j) Operators          :    0.083 sec (  1.7%)
T(i,j) pair energies      :    0.018 sec (  0.4%)
V-calculation             :    0.024 sec (  0.5%)
V**(-1/2)                 :    0.298 sec (  6.0%)
Gamma(ia|P)               :    0.000 sec (  0.0%)
Gamma-Trafo               :    0.000 sec (  0.0%)
D(virtual)                :    0.000 sec (  0.0%)
D(internal)               :    0.000 sec (  0.0%)
W(virtual)                :    0.000 sec (  0.0%)
W(internal)               :    0.000 sec (  0.0%)
L(virtual)                :    0.000 sec (  0.0%)
L(internal)               :    0.000 sec (  0.0%)
G(D)                      :    0.000 sec (  0.0%)
G(Z)                      :    0.000 sec (  0.0%)
Z-Vector Solution         :    0.000 sec (  0.0%)
Z-Vector Solution         :    0.000 sec (  0.0%)
3-Index Derivative 
+ Separable RIJ part      :    0.000 sec (  0.0%)
2-Index Derivative 
+ Separable RIJ part      :    0.000 sec (  0.0%)
Separable Gradient (X)    :    0.000 sec (  0.0%)


---------------------------------------
MP2 TOTAL ENERGY:     -550.125577293 Eh
---------------------------------------


-------------------------------------------------------------------------------
                          DFT DISPERSION CORRECTION                            
                                                                               
                              DFTD3 V3.1  Rev 1                                
                          USING Becke-Johnson damping                          
-------------------------------------------------------------------------------
The B2PLYP functional is recognized
Active option DFTDOPT                   ...         4   

molecular C6(AA) [au] = 8613.388424 


            DFT-D V3
 parameters
 s6 scaling factor         :     0.6400 
 a1 scaling factor         :     0.3065 
 s8 scaling factor         :     0.9147 
 a2 scaling factor         :     5.0570 
 ad hoc parameters k1-k3   :    16.0000     1.3333    -4.0000 

 Edisp/kcal,au: -16.874182899489  -0.026890719259 
 E6   /kcal   :  -8.747371764 
 E8   /kcal   :  -8.126811136 
 % E8         :  48.161212807 

-------------------------   ----------------
Dispersion correction           -0.026890719
-------------------------   ----------------


-------------------------   --------------------
FINAL SINGLE POINT ENERGY      -550.152468012480
-------------------------   --------------------


                            ***************************************
                            *     ORCA property calculations      *
                            ***************************************


  WARNING: The energy has been calculated at the MP2 level but the densities
           used in the property calculations are still SCF densities
           MP2 response densities have not been calculated 
           use %mp2 Density relaxed end
           or  %mp2 Density unrelaxed end

                                    ---------------------
                                    Active property flags
                                    ---------------------
   (+) Dipole Moment


------------------------------------------------------------------------------
                       ORCA ELECTRIC PROPERTIES CALCULATION
------------------------------------------------------------------------------

Dipole Moment Calculation                       ... on
Quadrupole Moment Calculation                   ... off
Polarizability Calculation                      ... off
GBWName                                         ... TMB09_T1.gbw
Electron density file                           ... TMB09_T1.scfp
The origin for moment calculation is the CENTER OF MASS  = ( 0.043409, -0.024360  0.032073)

-------------
DIPOLE MOMENT
-------------
                                X             Y             Z
Electronic contribution:     10.53752      -2.98575      13.36609
Nuclear contribution   :    -11.80214       3.30573     -13.02417
                        -----------------------------------------
Total Dipole Moment    :     -1.26462       0.31998       0.34191
                        -----------------------------------------
Magnitude (a.u.)       :      1.34854
Magnitude (Debye)      :      3.42770



--------------------
Rotational spectrum 
--------------------
 
Rotational constants in cm-1:     0.031577     0.026703     0.018834 
Rotational constants in MHz :   946.666634   800.534327   564.625423 

 Dipole components along the rotational axes: 
x,y,z [a.u.] :     1.256241     0.358092     0.334927 
x,y,z [Debye]:     3.193111     0.910198     0.851317 

 

Timings for individual modules:

Sum of individual times         ...       67.139 sec (=   1.119 min)
GTO integral calculation        ...        3.451 sec (=   0.058 min)   5.1 %
SCF iterations                  ...       58.152 sec (=   0.969 min)  86.6 %
MP2 module                      ...        5.536 sec (=   0.092 min)   8.2 %
                             ****ORCA TERMINATED NORMALLY****
TOTAL RUN TIME: 0 days 0 hours 1 minutes 7 seconds 734 msec
