
                                 *****************
                                 * O   R   C   A *
                                 *****************

           --- An Ab Initio, DFT and Semiempirical electronic structure package ---

                  #######################################################
                  #                        -***-                        #
                  #          Department of theory and spectroscopy      #
                  #               Directorship: Frank Neese             #
                  #        Max Planck Institute fuer Kohlenforschung    #
                  #                Kaiser Wilhelm Platz 1               #
                  #                 D-45470 Muelheim/Ruhr               #
                  #                      Germany                        #
                  #                                                     #
                  #                  All rights reserved                #
                  #                        -***-                        #
                  #######################################################


                         Program Version 4.2.0 -  RELEASE  -


 With contributions from (in alphabetic order):
   Daniel Aravena         : Magnetic Suceptibility
   Michael Atanasov       : Ab Initio Ligand Field Theory (pilot matlab implementation)
   Alexander A. Auer      : GIAO ZORA, VPT2
   Ute Becker             : Parallelization
   Giovanni Bistoni       : ED, misc. LED, open-shell LED, HFLED
   Martin Brehm           : Molecular dynamics
   Dmytro Bykov           : SCF Hessian
   Vijay G. Chilkuri      : MRCI spin determinant printing, contributions to CSF-ICE
   Dipayan Datta          : RHF DLPNO-CCSD density
   Achintya Kumar Dutta   : EOM-CC, STEOM-CC
   Dmitry Ganyushin       : Spin-Orbit,Spin-Spin,Magnetic field MRCI
   Miquel Garcia          : C-PCM Hessian, Gaussian charge scheme
   Yang Guo               : DLPNO-NEVPT2, CIM, IAO-localization
   Andreas Hansen         : Spin unrestricted coupled pair/coupled cluster methods
   Benjamin Helmich-Paris : CASSCF linear response (MC-RPA)
   Lee Huntington         : MR-EOM, pCC
   Robert Izsak           : Overlap fitted RIJCOSX, COSX-SCS-MP3, EOM
   Christian Kollmar      : KDIIS, OOCD, Brueckner-CCSD(T), CCSD density
   Simone Kossmann        : Meta GGA functionals, TD-DFT gradient, OOMP2, MP2 Hessian
   Martin Krupicka        : AUTO-CI
   Lucas Lang             : DCDCAS
   Dagmar Lenk            : GEPOL surface, SMD
   Dimitrios Liakos       : Extrapolation schemes; Compound Job, initial MDCI parallelization
   Dimitrios Manganas     : Further ROCIS development; embedding schemes
   Dimitrios Pantazis     : SARC Basis sets
   Taras Petrenko         : DFT Hessian,TD-DFT gradient, ASA, ECA, R-Raman, ABS, FL, XAS/XES, NRVS
   Peter Pinski           : DLPNO-MP2, DLPNO-MP2 Gradient
   Christoph Reimann      : Effective Core Potentials
   Marius Retegan         : Local ZFS, SOC
   Christoph Riplinger    : Optimizer, TS searches, QM/MM, DLPNO-CCSD(T), (RO)-DLPNO pert. Triples
   Tobias Risthaus        : Range-separated hybrids, TD-DFT gradient, RPA, STAB
   Michael Roemelt        : Original ROCIS implementation
   Masaaki Saitow         : Open-shell DLPNO-CCSD energy and density
   Barbara Sandhoefer     : DKH picture change effects
   Avijit Sen             : IP-ROCIS
   Kantharuban Sivalingam : CASSCF convergence, NEVPT2, FIC-MRCI
   Bernardo de Souza      : ESD, SOC TD-DFT
   Georgi Stoychev        : AutoAux, RI-MP2 NMR
   Willem Van den Heuvel  : Paramagnetic NMR
   Boris Wezisla          : Elementary symmetry handling
   Frank Wennmohs         : Technical directorship


 We gratefully acknowledge several colleagues who have allowed us to
 interface, adapt or use parts of their codes:
   Stefan Grimme, W. Hujo, H. Kruse,             : VdW corrections, initial TS optimization,
                  C. Bannwarth                     DFT functionals, gCP, sTDA/sTD-DF
   Ed Valeev, F. Pavosevic, A. Kumar             : LibInt (2-el integral package), F12 methods
   Garnet Chan, S. Sharma, J. Yang, R. Olivares  : DMRG
   Ulf Ekstrom                                   : XCFun DFT Library
   Mihaly Kallay                                 : mrcc  (arbitrary order and MRCC methods)
   Andreas Klamt, Michael Diedenhofen            : otool_cosmo (COSMO solvation model)
   Jiri Pittner, Ondrej Demel                    : Mk-CCSD
   Frank Weinhold                                : gennbo (NPA and NBO analysis)
   Christopher J. Cramer and Donald G. Truhlar   : smd solvation model
   Lars Goerigk                                  : TD-DFT with DH, B97 family of functionals
   V. Asgeirsson, H. Jonsson                     : NEB implementation
   FAccTs GmbH                                   : IRC, NEB, NEB-TS, Multilevel, MM, QM/MM, CI optimization
   S Lehtola, MJT Oliveira, MAL Marques          : LibXC Library


 Your calculation uses the libint2 library for the computation of 2-el integrals
 For citations please refer to: http://libint.valeyev.net

 Your ORCA version has been built with support for libXC version: 4.2.3
 For citations please refer to: https://tddft.org/programs/libxc/

 This ORCA versions uses:
   CBLAS   interface :  Fast vector & matrix operations
   LAPACKE interface :  Fast linear algebra routines
   SCALAPACK package :  Parallel linear algebra routines


Your calculation utilizes the atom-pairwise dispersion correction
with the Becke-Johnson damping scheme (D3BJ)
Cite in your paper:
S.Grimme, S.Ehrlich, L.Goerigk, J Comput Chem, (2011), 32, 1456–1465 
S.Grimme, J.Antony, S.Ehrlich and H.Krieg, J.Chem.Phys., 132, (2010), 154104 
   

----- Orbital basis set information -----
Your calculation utilizes the basis: def2-TZVPPD
   F. Weigend and R. Ahlrichs, Phys. Chem. Chem. Phys. 7, 3297 (2005).
   D. Rappoport and F. Furche, J. Chem. Phys. 133 134105 (2010).

----- AuxC basis set information -----
Your calculation utilizes the auxiliary basis: def2-TZVPPD/C
   A. Hellweg, C. Hattig, S. Hofener and W. Klopper, Theor. Chem. Acc. 117, 587 (2007).

----- AuxJK basis set information -----
Your calculation utilizes the auxiliary basis: def2/JK
   H-Ba, Hf-Rn: F. Weigend, J. Comput. Chem. 29, 167 (2008).

cite the ECPs for Zr [Def2-ECP] as follows:
Ce-Yb(ecp-28): M. Dolg, H. Stoll, H.Preuss, J. Chem. Phys., 1989, 90, 1730-1734.
Y-Cd(ecp-28), Hf-Hg(ecp-46): D. Andrae,U. Haeussermann, M. Dolg, H. Stoll, H. Preuss, Theor. Chim. Acta, 1990, 77, 123-141.
In-Sb(ecp-28), Tl-Bi(ecp-46): B. Metz, H. Stoll, M. Dolg, J. Chem. Phys., 2000, 113, 2563-2569.
Te-Xe(ecp-28), Po-Rn(ecp-46): K. A. Peterson, D. Figgen, E. Goll, H. Stoll, M. Dolg, J. Chem. Phys., 2003, 119, 11113-11123.
Rb(ecp-28), Cs(ecp-46): T. Leininger, A. Nicklass, W. Kuechle, H. Stoll, M. Dolg, A. Bergner, Chem. Phys. Lett., 1996, 255, 274-280.
Sr(ecp-28), Ba(ecp-46): M. Kaupp, P. V. Schleyer, H. Stoll and H. Preuss, J. Chem. Phys., 1991, 94, 1360-1366.
La(ecp-46): M. Dolg, H. Stoll, A. Savin, H. Preuss, Theor. Chim. Acta, 1989, 75, 173-194.
Lu(ecp-28): X. Cao, M. Dolg, J. Chem. Phys., 2001, 115, 7348-7355.

ECP parameters for Zr [Def2-ECP] have been obtained from:
TURBOMOLE (7.0.2)

================================================================================
                                        WARNINGS
                       Please study these warnings very carefully!
================================================================================


WARNING: No MP2 level density has been requested!
         To caclulate MP2 level properties use
         %mp2 Density relaxed end
         or
         %mp2 Density unrelaxed end
         Otherwise for double-hybrid DFT only the energy is correct!

WARNING: The frozen-core approximation is turned on by default for 
         the MP2 part of double-hybrid DFT.

INFO   : the flag for use of LIBINT has been found!

================================================================================
                                       INPUT FILE
================================================================================
NAME = TMB01_R1.in
|  1> #
|  2> # TMB01_R1 ri-B2PLYP-D3BJ/Def2-TZVPPD
|  3> #
|  4> ! rijk ri-b2plyp d3bj def2-tzvppd def2/jk def2-tzvppd/c grid4 nofinalgrid
|  5> 
|  6> *xyz 0 1
|  7> Zr      -0.000671    0.112924   -0.223454 
|  8> C       -2.181938   -0.834851   -1.042825 
|  9> C       -1.643164   -1.771750   -0.135830 
| 10> C       -2.502306    0.332733   -0.316676 
| 11> H       -1.308937   -2.768103   -0.380464 
| 12> C       -1.636664   -1.184419    1.151214 
| 13> H       -2.895434    1.248967   -0.729119 
| 14> C       -2.175001    0.113493    1.036510 
| 15> H       -1.306352   -1.655857    2.064126 
| 16> H       -2.282924    0.831022    1.835850 
| 17> C        1.600796   -1.794999   -0.006343 
| 18> C        2.125532   -0.971960   -1.023204 
| 19> C        1.653632   -1.076274    1.213076 
| 20> H        2.228565   -1.232630   -2.063673 
| 21> C        2.505388    0.254502   -0.432287 
| 22> H        1.350619   -1.442345    2.182051 
| 23> C        2.228391    0.183709    0.945544 
| 24> H        2.903936    1.111956   -0.952399 
| 25> H        2.382975    0.976423    1.661482 
| 26> Cl       0.011968    2.512474    0.074703 
| 27> H       -0.001250   -0.010619   -2.053074 
| 28> H       -2.330784   -0.986753   -2.099038 
| 29> H        1.234974   -2.802168   -0.132604 
| 30> *
| 31> 
| 32> %maxcore 5000
| 33> 
| 34> %pal
| 35> nprocs = 24
| 36> end
| 37> 
| 38> 
| 39>                          ****END OF INPUT****
================================================================================

                       ****************************
                       * Single Point Calculation *
                       ****************************

---------------------------------
CARTESIAN COORDINATES (ANGSTROEM)
---------------------------------
  Zr    -0.000671    0.112924   -0.223454
  C     -2.181938   -0.834851   -1.042825
  C     -1.643164   -1.771750   -0.135830
  C     -2.502306    0.332733   -0.316676
  H     -1.308937   -2.768103   -0.380464
  C     -1.636664   -1.184419    1.151214
  H     -2.895434    1.248967   -0.729119
  C     -2.175001    0.113493    1.036510
  H     -1.306352   -1.655857    2.064126
  H     -2.282924    0.831022    1.835850
  C      1.600796   -1.794999   -0.006343
  C      2.125532   -0.971960   -1.023204
  C      1.653632   -1.076274    1.213076
  H      2.228565   -1.232630   -2.063673
  C      2.505388    0.254502   -0.432287
  H      1.350619   -1.442345    2.182051
  C      2.228391    0.183709    0.945544
  H      2.903936    1.111956   -0.952399
  H      2.382975    0.976423    1.661482
  Cl     0.011968    2.512474    0.074703
  H     -0.001250   -0.010619   -2.053074
  H     -2.330784   -0.986753   -2.099038
  H      1.234974   -2.802168   -0.132604

----------------------------
CARTESIAN COORDINATES (A.U.)
----------------------------
  NO LB      ZA    FRAG     MASS         X           Y           Z
   0 Zr   12.0000*   0    91.220   -0.001268    0.213395   -0.422267
   1 C     6.0000    0    12.011   -4.123265   -1.577640   -1.970654
   2 C     6.0000    0    12.011   -3.105130   -3.348122   -0.256682
   3 C     6.0000    0    12.011   -4.728673    0.628774   -0.598431
   4 H     1.0000    0     1.008   -2.473532   -5.230957   -0.718973
   5 C     6.0000    0    12.011   -3.092847   -2.238228    2.175479
   6 H     1.0000    0     1.008   -5.471577    2.360206   -1.377835
   7 C     6.0000    0    12.011   -4.110156    0.214471    1.958720
   8 H     1.0000    0     1.008   -2.468648   -3.129116    3.900633
   9 H     1.0000    0     1.008   -4.314101    1.570404    3.469254
  10 C     6.0000    0    12.011    3.025066   -3.392057   -0.011987
  11 C     6.0000    0    12.011    4.016673   -1.836738   -1.933575
  12 C     6.0000    0    12.011    3.124912   -2.033863    2.292381
  13 H     1.0000    0     1.008    4.211378   -2.329333   -3.899777
  14 C     6.0000    0    12.011    4.734497    0.480939   -0.816904
  15 H     1.0000    0     1.008    2.552300   -2.725637    4.123479
  16 C     6.0000    0    12.011    4.211049    0.347160    1.786819
  17 H     1.0000    0     1.008    5.487644    2.101292   -1.799773
  18 H     1.0000    0     1.008    4.503170    1.845172    3.139746
  19 Cl   17.0000    0    35.453    0.022616    4.747888    0.141168
  20 H     1.0000    0     1.008   -0.002362   -0.020067   -3.879748
  21 H     1.0000    0     1.008   -4.404543   -1.864693   -3.966607
  22 H     1.0000    0     1.008    2.333763   -5.295330   -0.250585
* core charge reduced due to ECP

--------------------------------
INTERNAL COORDINATES (ANGSTROEM)
--------------------------------
 Zr     0   0   0     0.000000000000     0.00000000     0.00000000
 C      1   0   0     2.515466559419     0.00000000     0.00000000
 C      2   1   0     1.410920653085    73.12247516     0.00000000
 C      2   1   3     1.411800418856    73.59840866   114.94503470
 H      3   2   1     1.079014727469   125.85250426   245.37267947
 C      3   2   1     1.414737506217   108.11325565    66.23793646
 H      4   2   1     1.078954862536   126.04072486   111.68690894
 C      4   2   1     1.409364073340   108.20939605   293.76875367
 H      6   3   2     1.079244237850   126.12795999   178.46472239
 H      8   4   2     1.079555313715   125.75431252   178.45751450
 C      1   2   3     2.500400750348   107.22796614    37.91257856
 C     11   1   2     1.409520258293    74.35024165   114.93379122
 C     11   1   2     1.416453305295    73.22968211   229.87141530
 H     12  11   1     1.077562243191   126.22323460   245.56044773
 C     12  11   1     1.413393971640   107.76560677    66.10921066
 H     13  11   1     1.079230005993   126.18261805   115.05657889
 C     15  12  11     1.407180603696   108.22840952     0.56700398
 H     15  12  11     1.079159099931   125.96041597   182.70881656
 H     17  15  12     1.079286300615   125.75809091   181.83498265
 Cl     1   2   3     2.418035885480   114.74596236   216.43021223
 H      1   2   3     1.833786397727    69.47288006   123.52537725
 H      2   1   3     1.077411365584   119.48808811   237.59279035
 H     11   1   2     1.078961060635   119.00971341   352.14516703

---------------------------
INTERNAL COORDINATES (A.U.)
---------------------------
 Zr     0   0   0     0.000000000000     0.00000000     0.00000000
 C      1   0   0     4.753542896339     0.00000000     0.00000000
 C      2   1   0     2.666253631024    73.12247516     0.00000000
 C      2   1   3     2.667916147392    73.59840866   114.94503470
 H      3   2   1     2.039042329383   125.85250426   245.37267947
 C      3   2   1     2.673466438137   108.11325565    66.23793646
 H      4   2   1     2.038929201055   126.04072486   111.68690894
 C      4   2   1     2.663312121600   108.20939605   293.76875367
 H      6   3   2     2.039476041149   126.12795999   178.46472239
 H      8   4   2     2.040063889341   125.75431252   178.45751450
 C      1   2   3     4.725072643208   107.22796614    37.91257856
 C     11   1   2     2.663607268387    74.35024165   114.93379122
 C     11   1   2     2.676708828496    73.22968211   229.87141530
 H     12  11   1     2.036297531884   126.22323460   245.56044773
 C     12  11   1     2.670927525735   107.76560677    66.10921066
 H     13  11   1     2.039449146836   126.18261805   115.05657889
 C     15  12  11     2.659185961952   108.22840952     0.56700398
 H     15  12  11     2.039315153799   125.96041597   182.70881656
 H     17  15  12     2.039555528256   125.75809091   181.83498265
 Cl     1   2   3     4.569425605551   114.74596236   216.43021223
 H      1   2   3     3.465354079815    69.47288006   123.52537725
 H      2   1   3     2.036012414527   119.48808811   237.59279035
 H     11   1   2     2.038940913765   119.00971341   352.14516703

---------------------
BASIS SET INFORMATION
---------------------
There are 4 groups of distinct atoms

 Group   1 Type Zr  : 7s7p5d2f1g contracted to 6s4p3d2f1g pattern {211111/4111/311/11/1}
 Group   2 Type C   : 12s6p3d1f contracted to 6s3p3d1f pattern {621111/411/111/1}
 Group   3 Type H   : 5s3p1d contracted to 3s3p1d pattern {311/111/1}
 Group   4 Type Cl  : 15s10p4d1f contracted to 6s6p4d1f pattern {732111/511111/1111/1}

Atom   0Zr   basis set group =>   1
Atom   1C    basis set group =>   2
Atom   2C    basis set group =>   2
Atom   3C    basis set group =>   2
Atom   4H    basis set group =>   3
Atom   5C    basis set group =>   2
Atom   6H    basis set group =>   3
Atom   7C    basis set group =>   2
Atom   8H    basis set group =>   3
Atom   9H    basis set group =>   3
Atom  10C    basis set group =>   2
Atom  11C    basis set group =>   2
Atom  12C    basis set group =>   2
Atom  13H    basis set group =>   3
Atom  14C    basis set group =>   2
Atom  15H    basis set group =>   3
Atom  16C    basis set group =>   2
Atom  17H    basis set group =>   3
Atom  18H    basis set group =>   3
Atom  19Cl   basis set group =>   4
Atom  20H    basis set group =>   3
Atom  21H    basis set group =>   3
Atom  22H    basis set group =>   3
---------------------------------
AUXILIARY/C BASIS SET INFORMATION
---------------------------------
There are 4 groups of distinct atoms

 Group   1 Type Zr  : 8s7p6d5f4g3h1i contracted to 8s7p6d5f4g3h1i pattern {11111111/1111111/111111/11111/1111/111/1}
 Group   2 Type C   : 9s7p6d4f1g contracted to 9s7p5d4f1g pattern {111111111/1111111/21111/1111/1}
 Group   3 Type H   : 5s4p3d1f contracted to 5s4p3d1f pattern {11111/1111/111/1}
 Group   4 Type Cl  : 12s9p8d6f2g contracted to 12s9p8d6f2g pattern {111111111111/111111111/11111111/111111/11}

Atom   0Zr   basis set group =>   1
Atom   1C    basis set group =>   2
Atom   2C    basis set group =>   2
Atom   3C    basis set group =>   2
Atom   4H    basis set group =>   3
Atom   5C    basis set group =>   2
Atom   6H    basis set group =>   3
Atom   7C    basis set group =>   2
Atom   8H    basis set group =>   3
Atom   9H    basis set group =>   3
Atom  10C    basis set group =>   2
Atom  11C    basis set group =>   2
Atom  12C    basis set group =>   2
Atom  13H    basis set group =>   3
Atom  14C    basis set group =>   2
Atom  15H    basis set group =>   3
Atom  16C    basis set group =>   2
Atom  17H    basis set group =>   3
Atom  18H    basis set group =>   3
Atom  19Cl   basis set group =>   4
Atom  20H    basis set group =>   3
Atom  21H    basis set group =>   3
Atom  22H    basis set group =>   3
----------------------------------
AUXILIARY/JK BASIS SET INFORMATION
----------------------------------
There are 4 groups of distinct atoms

 Group   1 Type Zr  : 13s12p10d9f6g3h2i contracted to 11s10p9d8f6g3h2i pattern {31111111111/3111111111/211111111/21111111/111111/111/11}
 Group   2 Type C   : 14s10p6d2f1g contracted to 10s8p5d1f1g pattern {5111111111/31111111/21111/2/1}
 Group   3 Type H   : 4s2p2d contracted to 2s2p2d pattern {31/11/11}
 Group   4 Type Cl  : 16s12p10d4f1g contracted to 13s11p9d4f1g pattern {4111111111111/21111111111/211111111/1111/1}

Atom   0Zr   basis set group =>   1
Atom   1C    basis set group =>   2
Atom   2C    basis set group =>   2
Atom   3C    basis set group =>   2
Atom   4H    basis set group =>   3
Atom   5C    basis set group =>   2
Atom   6H    basis set group =>   3
Atom   7C    basis set group =>   2
Atom   8H    basis set group =>   3
Atom   9H    basis set group =>   3
Atom  10C    basis set group =>   2
Atom  11C    basis set group =>   2
Atom  12C    basis set group =>   2
Atom  13H    basis set group =>   3
Atom  14C    basis set group =>   2
Atom  15H    basis set group =>   3
Atom  16C    basis set group =>   2
Atom  17H    basis set group =>   3
Atom  18H    basis set group =>   3
Atom  19Cl   basis set group =>   4
Atom  20H    basis set group =>   3
Atom  21H    basis set group =>   3
Atom  22H    basis set group =>   3
-------------------------
ECP PARAMETER INFORMATION
-------------------------

 Group 1, Type Zr ECP Def2-ECP (replacing 28 core electrons, lmax=3)

Atom   0Zr   ECP group =>   1



           ************************************************************
           *        Program running with 24 parallel MPI-processes    *
           *              working on a common directory               *
           ************************************************************
------------------------------------------------------------------------------
                           ORCA GTO INTEGRAL CALCULATION
                           -- RI-GTO INTEGRALS CHOSEN --
------------------------------------------------------------------------------

                         BASIS SET STATISTICS AND STARTUP INFO

Gaussian basis set:
 # of primitive gaussian shells          ...  371
 # of primitive gaussian functions       ...  877
 # of contracted shells                  ...  240
 # of contracted basis functions         ...  664
 Highest angular momentum                ...    4
 Maximum contraction depth               ...    7
Auxiliary gaussian basis set:
 # of primitive gaussian shells          ...  516
 # of primitive gaussian functions       ... 1604
 # of contracted shells                  ...  403
 # of contracted aux-basis functions     ... 1331
 Highest angular momentum                ...    6
 Maximum contraction depth               ...    5
Ratio of auxiliary to basis functions    ...  2.00
Integral package used                  ... LIBINT
 One Electron integrals                  
   ECP integrals                         ... done
 Ordering auxiliary basis shells         ... done
 Integral threshhold             Thresh  ...  1.000e-10
 Primitive cut-off               TCut    ...  1.000e-11
 Pre-screening matrix                    ... done
 Shell pair data                         ... 
 Ordering of the shell pairs             ... done (   0.005 sec) 26117 of 28920 pairs
 Determination of significant pairs      ... done (   0.000 sec)
 Creation of shell pair data             ... done (   0.003 sec)
 Storage of shell pair data              ... done (   0.010 sec)
 Shell pair data done in (   0.018 sec)
 Computing two index integrals           ... done
 Cholesky decomposition of the V-matrix  ... done


Timings:
 Total evaluation time                   ...   2.528 sec (  0.042 min)
 One electron matrix time                ...   2.029 sec (  0.034 min) = 80.3%
 Schwartz matrix evaluation time         ...   0.272 sec (  0.005 min) = 10.8%
 Two index repulsion integral time       ...   0.095 sec (  0.002 min) =  3.8%
 Cholesky decomposition of V             ...   0.082 sec (  0.001 min) =  3.3%
 Three index repulsion integral time     ...   0.000 sec (  0.000 min) =  0.0%



           ************************************************************
           *        Program running with 24 parallel MPI-processes    *
           *              working on a common directory               *
           ************************************************************
-------------------------------------------------------------------------------
                                 ORCA SCF
-------------------------------------------------------------------------------

------------
SCF SETTINGS
------------
Hamiltonian:
 Density Functional     Method          .... DFT(GTOs)
 Exchange Functional    Exchange        .... B88
   X-Alpha parameter    XAlpha          ....  0.666667
   Becke's b parameter  XBeta           ....  0.004200
 Correlation Functional Correlation     .... LYP
 LDA part of GGA corr.  LDAOpt          .... VWN-3
 Gradients option       PostSCFGGA      .... off
 Hybrid DFT is turned on
   Fraction HF Exchange ScalHFX         ....  0.530000
   Scaling of DF-GGA-X  ScalDFX         ....  0.470000
   Scaling of DF-GGA-C  ScalDFC         ....  0.730000
   Scaling of DF-LDA-C  ScalLDAC        ....  0.730000
   Perturbative correction              ....  0.270000
   Density functional embedding theory  .... OFF
 RI-approximation to the Coulomb term is turned on
   Number of auxiliary basis functions  .... 1331
   RI-JK (J+K treated both via RI)      .... on


General Settings:
 Integral files         IntName         .... TMB01_R1
 Hartree-Fock type      HFTyp           .... RHF
 Total Charge           Charge          ....    0
 Multiplicity           Mult            ....    1
 Number of Electrons    NEL             ....  100
 Basis Dimension        Dim             ....  664
 Nuclear Repulsion      ENuc            ....    842.2257055069 Eh

Convergence Acceleration:
 DIIS                   CNVDIIS         .... on
   Start iteration      DIISMaxIt       ....    12
   Startup error        DIISStart       ....  0.200000
   # of expansion vecs  DIISMaxEq       ....     5
   Bias factor          DIISBfac        ....   1.050
   Max. coefficient     DIISMaxC        ....  10.000
 Newton-Raphson         CNVNR           .... off
 SOSCF                  CNVSOSCF        .... off
 Level Shifting         CNVShift        .... on
   Level shift para.    LevelShift      ....    0.2500
   Turn off err/grad.   ShiftErr        ....    0.0010
 Zerner damping         CNVZerner       .... off
 Static damping         CNVDamp         .... on
   Fraction old density DampFac         ....    0.7000
   Max. Damping (<1)    DampMax         ....    0.9800
   Min. Damping (>=0)   DampMin         ....    0.0000
   Turn off err/grad.   DampErr         ....    0.1000
 Fernandez-Rico         CNVRico         .... off

SCF Procedure:
 Maximum # iterations   MaxIter         ....   125
 SCF integral mode      SCFMode         .... Direct
   Integral package                     .... LIBINT
 Reset frequency        DirectResetFreq ....    20
 Integral Threshold     Thresh          ....  1.000e-10 Eh
 Primitive CutOff       TCut            ....  1.000e-11 Eh

Convergence Tolerance:
 Convergence Check Mode ConvCheckMode   .... Total+1el-Energy
 Convergence forced     ConvForced      .... 0
 Energy Change          TolE            ....  1.000e-06 Eh
 1-El. energy change                    ....  1.000e-03 Eh
 DIIS Error             TolErr          ....  1.000e-06


Diagonalization of the overlap matrix:
Smallest eigenvalue                        ... 8.497e-07
Time for diagonalization                   ...    0.061 sec
Threshold for overlap eigenvalues          ... 1.000e-08
Number of eigenvalues below threshold      ... 0
Time for construction of square roots      ...    0.065 sec
Total time needed                          ...    0.128 sec

-------------------
DFT GRID GENERATION
-------------------

General Integration Accuracy     IntAcc      ...  4.670
Radial Grid Type                 RadialGrid  ... Gauss-Chebyshev
Angular Grid (max. acc.)         AngularGrid ... Lebedev-302
Angular grid pruning method      GridPruning ... 3 (G Style)
Weight generation scheme         WeightScheme... Becke
Basis function cutoff            BFCut       ...    1.0000e-10
Integration weight cutoff        WCut        ...    1.0000e-14
Grids for H and He will be reduced by one unit

# of grid points (after initial pruning)     ... 116874 (   0.0 sec)
# of grid points (after weights+screening)   ... 103126 (   0.1 sec)
nearest neighbour list constructed           ...    0.0 sec
Grid point re-assignment to atoms done       ...    0.0 sec
Grid point division into batches done        ...    0.3 sec
Reduced shell lists constructed in    0.7 sec

Total number of grid points                  ...   103126
Total number of batches                      ...     1623
Average number of points per batch           ...       63
Average number of grid points per atom       ...     4484
Average number of shells per batch           ...   186.09 (77.54%)
Average number of basis functions per batch  ...   541.57 (81.56%)
Average number of large shells per batch     ...   151.90 (81.63%)
Average number of large basis fcns per batch ...   433.23 (80.00%)
Average number of aux-shells per batch       ...   186.09 (46.18%)
Average number of aux functions per batch    ...   541.57 (40.69%)
Maximum spatial batch extension              ...   1.99,  2.06,  1.83 au
Average spatial batch extension              ...   0.05,  0.05,  0.05 au

Time for grid setup =    0.782 sec

------------------------------
INITIAL GUESS: MODEL POTENTIAL
------------------------------
Loading Hartree-Fock densities                     ... done
  calling /sw/apps/orca/orca_4_2_0_linux_x86-64_openmpi314/orca TMB01_R1_atom40.inp > TMB01_R1_atom40.out in order to generate an atomic fitting density for atom 0 (Zr with ECP) on-the-fly... 
    atom 0 (Zr), assumed electronic state with S=3: 1s2 2s2 2p6 3s2 3p6 4s2 3d10 4p6 4d2 5s2           ... done
Calculating cut-offs                               ... done
Setting up the integral package                    ... done
Initializing the effective Hamiltonian             ... done
Starting the Coulomb interaction                   ... done (   0.0 sec)
Reading the grid                                   ... done
Mapping shells                                     ... done
Starting the XC term evaluation                    ... done (   0.3 sec)
  promolecular density results
     # of electrons  =    127.994734097
     EX              =   -193.021006949
     EC              =     -1.786486985
     EX+EC           =   -194.807493934
Transforming the Hamiltonian                       ... done (   0.0 sec)
Diagonalizing the Hamiltonian                      ... done (   0.1 sec)
Back transforming the eigenvectors                 ... done (   0.0 sec)
Now organizing SCF variables                       ... done
                      ------------------
                      INITIAL GUESS DONE (   3.7 sec)
                      ------------------
--------------
SCF ITERATIONS
--------------
ITER       Energy         Delta-E        Max-DP      RMS-DP      [F,P]     Damp
  0   -891.1396041976   0.000000000000 0.87590020  0.00788383  0.9545721 0.7000
  1   -892.1390554216  -0.999451224025 0.62471609  0.00536615  0.5553928 0.7000
  2   -892.7597173150  -0.620661893349 0.38062626  0.00250882  0.2244276 0.7000
                               ***Turning on DIIS***
  3   -893.1549412101  -0.395223895118 0.51454195  0.00304673  0.1003242 0.7000
  4   -893.4272645088  -0.272323298672 1.46760115  0.00915074  0.0993041 0.0000
  5   -893.9167644898  -0.489499981033 0.14947746  0.00156595  0.0705818 0.0000
  6   -893.9431696171  -0.026405127263 0.08173959  0.00085960  0.0323021 0.0000
  7   -893.9474466059  -0.004276988850 0.02603825  0.00038405  0.0152833 0.0000
  8   -893.9486228092  -0.001176203300 0.02564158  0.00023644  0.0057246 0.0000
  9   -893.9488594905  -0.000236681289 0.01172778  0.00011155  0.0025979 0.0000
 10   -893.9488993004  -0.000039809887 0.00573663  0.00005750  0.0014814 0.0000
 11   -893.9489116046  -0.000012304214 0.01024929  0.00008011  0.0006042 0.0000
 12   -893.9489151733  -0.000003568650 0.00409747  0.00003383  0.0000666 0.0000
                 **** Energy Check signals convergence ****

               *****************************************************
               *                     SUCCESS                       *
               *           SCF CONVERGED AFTER  13 CYCLES          *
               *****************************************************


----------------
TOTAL SCF ENERGY
----------------

Total Energy       :         -893.94891522 Eh          -24325.58667 eV

Components:
Nuclear Repulsion  :          842.22570551 Eh           22918.12658 eV
Electronic Energy  :        -1736.17462072 Eh          -47243.71325 eV
One Electron Energy:        -2909.85921185 Eh          -79181.29465 eV
Two Electron Energy:         1173.68459112 Eh           31937.58140 eV

Virial components:
Potential Energy   :        -1754.50100738 Eh          -47742.39959 eV
Kinetic Energy     :          860.55209217 Eh           23416.81292 eV
Virial Ratio       :            2.03880860


DFT components:
N(Alpha)           :       50.000012280515 electrons
N(Beta)            :       50.000012280515 electrons
N(Total)           :      100.000024561030 electrons
E(X)               :      -41.845668772713 Eh       
E(C)               :       -2.526385280896 Eh       
E(XC)              :      -44.372054053609 Eh       
DFET-embed. en.    :        0.000000000000 Eh       

---------------
SCF CONVERGENCE
---------------

  Last Energy change         ...   -4.2558e-08  Tolerance :   1.0000e-06
  Last MAX-Density change    ...    4.0636e-03  Tolerance :   1.0000e-05
  Last RMS-Density change    ...    2.6578e-05  Tolerance :   1.0000e-06
  Last DIIS Error            ...    6.5048e-05  Tolerance :   1.0000e-06

             **** THE GBW FILE WAS UPDATED (TMB01_R1.gbw) ****
             **** DENSITY FILE WAS UPDATED (TMB01_R1.scfp) ****
             **** ENERGY FILE WAS UPDATED (TMB01_R1.en.tmp) ****
             **** THE GBW FILE WAS UPDATED (TMB01_R1.gbw) ****
             **** DENSITY FILE WAS UPDATED (TMB01_R1.scfp) ****
----------------
ORBITAL ENERGIES
----------------

  NO   OCC          E(Eh)            E(eV) 
   0   2.0000    -102.849508     -2798.6774 
   1   2.0000     -10.636999      -289.4475 
   2   2.0000     -10.636255      -289.4272 
   3   2.0000     -10.635721      -289.4127 
   4   2.0000     -10.635571      -289.4086 
   5   2.0000     -10.634803      -289.3877 
   6   2.0000     -10.634459      -289.3783 
   7   2.0000     -10.633334      -289.3477 
   8   2.0000     -10.632990      -289.3384 
   9   2.0000     -10.628720      -289.2222 
  10   2.0000     -10.628466      -289.2153 
  11   2.0000      -9.856581      -268.2112 
  12   2.0000      -7.493110      -203.8979 
  13   2.0000      -7.492485      -203.8809 
  14   2.0000      -7.491706      -203.8597 
  15   2.0000      -2.304875       -62.7188 
  16   2.0000      -1.382614       -37.6228 
  17   2.0000      -1.378623       -37.5142 
  18   2.0000      -1.370474       -37.2925 
  19   2.0000      -1.025908       -27.9164 
  20   2.0000      -1.014061       -27.5940 
  21   2.0000      -0.867495       -23.6057 
  22   2.0000      -0.836192       -22.7539 
  23   2.0000      -0.835407       -22.7326 
  24   2.0000      -0.834156       -22.6985 
  25   2.0000      -0.830874       -22.6092 
  26   2.0000      -0.649923       -17.6853 
  27   2.0000      -0.644880       -17.5481 
  28   2.0000      -0.641006       -17.4427 
  29   2.0000      -0.640426       -17.4269 
  30   2.0000      -0.626540       -17.0490 
  31   2.0000      -0.618998       -16.8438 
  32   2.0000      -0.490447       -13.3457 
  33   2.0000      -0.483651       -13.1608 
  34   2.0000      -0.482583       -13.1317 
  35   2.0000      -0.480523       -13.0757 
  36   2.0000      -0.478140       -13.0108 
  37   2.0000      -0.461941       -12.5701 
  38   2.0000      -0.459838       -12.5128 
  39   2.0000      -0.457547       -12.4505 
  40   2.0000      -0.456568       -12.4238 
  41   2.0000      -0.449390       -12.2285 
  42   2.0000      -0.380582       -10.3562 
  43   2.0000      -0.362205        -9.8561 
  44   2.0000      -0.352011        -9.5787 
  45   2.0000      -0.327431        -8.9099 
  46   2.0000      -0.316263        -8.6060 
  47   2.0000      -0.311005        -8.4629 
  48   2.0000      -0.294216        -8.0060 
  49   2.0000      -0.282339        -7.6828 
  50   0.0000      -0.007587        -0.2065 
  51   0.0000       0.022156         0.6029 
  52   0.0000       0.028746         0.7822 
  53   0.0000       0.037221         1.0128 
  54   0.0000       0.038572         1.0496 
  55   0.0000       0.050226         1.3667 
  56   0.0000       0.051353         1.3974 
  57   0.0000       0.058477         1.5912 
  58   0.0000       0.058671         1.5965 
  59   0.0000       0.060343         1.6420 
  60   0.0000       0.069116         1.8807 
  61   0.0000       0.069280         1.8852 
  62   0.0000       0.073314         1.9950 
  63   0.0000       0.088414         2.4059 
  64   0.0000       0.089469         2.4346 
  65   0.0000       0.097837         2.6623 
  66   0.0000       0.098795         2.6884 
  67   0.0000       0.099589         2.7100 
  68   0.0000       0.104147         2.8340 
  69   0.0000       0.106867         2.9080 
  70   0.0000       0.109112         2.9691 
  71   0.0000       0.111562         3.0358 
  72   0.0000       0.114679         3.1206 
  73   0.0000       0.121647         3.3102 
  74   0.0000       0.127203         3.4614 
  75   0.0000       0.145382         3.9560 
  76   0.0000       0.148762         4.0480 
  77   0.0000       0.154571         4.2061 
  78   0.0000       0.158167         4.3039 
  79   0.0000       0.163936         4.4609 
  80   0.0000       0.167606         4.5608 
  81   0.0000       0.173533         4.7221 
  82   0.0000       0.181117         4.9284 
  83   0.0000       0.181482         4.9384 
  84   0.0000       0.187585         5.1045 
  85   0.0000       0.200239         5.4488 
  86   0.0000       0.202310         5.5051 
  87   0.0000       0.203506         5.5377 
  88   0.0000       0.207220         5.6387 
  89   0.0000       0.211578         5.7573 
  90   0.0000       0.215608         5.8670 
  91   0.0000       0.219524         5.9736 
  92   0.0000       0.226413         6.1610 
  93   0.0000       0.230638         6.2760 
  94   0.0000       0.230813         6.2807 
  95   0.0000       0.237350         6.4586 
  96   0.0000       0.247349         6.7307 
  97   0.0000       0.249801         6.7974 
  98   0.0000       0.264621         7.2007 
  99   0.0000       0.270070         7.3490 
 100   0.0000       0.278803         7.5866 
 101   0.0000       0.280245         7.6259 
 102   0.0000       0.281071         7.6483 
 103   0.0000       0.283957         7.7269 
 104   0.0000       0.286290         7.7903 
 105   0.0000       0.288838         7.8597 
 106   0.0000       0.297580         8.0976 
 107   0.0000       0.299145         8.1401 
 108   0.0000       0.299901         8.1607 
 109   0.0000       0.302883         8.2419 
 110   0.0000       0.307894         8.3782 
 111   0.0000       0.310397         8.4463 
 112   0.0000       0.314598         8.5607 
 113   0.0000       0.317648         8.6436 
 114   0.0000       0.321038         8.7359 
 115   0.0000       0.323320         8.7980 
 116   0.0000       0.327215         8.9040 
 117   0.0000       0.328277         8.9329 
 118   0.0000       0.329202         8.9581 
 119   0.0000       0.332165         9.0387 
 120   0.0000       0.337272         9.1776 
 121   0.0000       0.339086         9.2270 
 122   0.0000       0.342205         9.3119 
 123   0.0000       0.345054         9.3894 
 124   0.0000       0.350164         9.5285 
 125   0.0000       0.352866         9.6020 
 126   0.0000       0.360124         9.7995 
 127   0.0000       0.363579         9.8935 
 128   0.0000       0.375320        10.2130 
 129   0.0000       0.378600        10.3022 
 130   0.0000       0.380817        10.3626 
 131   0.0000       0.389180        10.5901 
 132   0.0000       0.390332        10.6215 
 133   0.0000       0.399078        10.8595 
 134   0.0000       0.406994        11.0749 
 135   0.0000       0.409379        11.1398 
 136   0.0000       0.412008        11.2113 
 137   0.0000       0.413343        11.2476 
 138   0.0000       0.416562        11.3352 
 139   0.0000       0.417643        11.3647 
 140   0.0000       0.421377        11.4662 
 141   0.0000       0.423041        11.5115 
 142   0.0000       0.425518        11.5789 
 143   0.0000       0.429543        11.6885 
 144   0.0000       0.436090        11.8666 
 145   0.0000       0.438181        11.9235 
 146   0.0000       0.442080        12.0296 
 147   0.0000       0.444440        12.0938 
 148   0.0000       0.451385        12.2828 
 149   0.0000       0.453476        12.3397 
 150   0.0000       0.456667        12.4266 
 151   0.0000       0.463853        12.6221 
 152   0.0000       0.469298        12.7703 
 153   0.0000       0.471573        12.8322 
 154   0.0000       0.479318        13.0429 
 155   0.0000       0.482428        13.1275 
 156   0.0000       0.485053        13.1990 
 157   0.0000       0.488961        13.3053 
 158   0.0000       0.498925        13.5764 
 159   0.0000       0.501875        13.6567 
 160   0.0000       0.508310        13.8318 
 161   0.0000       0.513745        13.9797 
 162   0.0000       0.514851        14.0098 
 163   0.0000       0.521722        14.1968 
 164   0.0000       0.525691        14.3048 
 165   0.0000       0.534053        14.5323 
 166   0.0000       0.534726        14.5506 
 167   0.0000       0.542182        14.7535 
 168   0.0000       0.543126        14.7792 
 169   0.0000       0.551474        15.0064 
 170   0.0000       0.553532        15.0624 
 171   0.0000       0.563604        15.3364 
 172   0.0000       0.565588        15.3904 
 173   0.0000       0.571153        15.5419 
 174   0.0000       0.576536        15.6883 
 175   0.0000       0.579226        15.7615 
 176   0.0000       0.583237        15.8707 
 177   0.0000       0.584254        15.8984 
 178   0.0000       0.589282        16.0352 
 179   0.0000       0.599568        16.3151 
 180   0.0000       0.601333        16.3631 
 181   0.0000       0.616368        16.7722 
 182   0.0000       0.622739        16.9456 
 183   0.0000       0.626576        17.0500 
 184   0.0000       0.633665        17.2429 
 185   0.0000       0.637898        17.3581 
 186   0.0000       0.643458        17.5094 
 187   0.0000       0.645856        17.5746 
 188   0.0000       0.650632        17.7046 
 189   0.0000       0.654104        17.7991 
 190   0.0000       0.659897        17.9567 
 191   0.0000       0.662445        18.0261 
 192   0.0000       0.669286        18.2122 
 193   0.0000       0.672053        18.2875 
 194   0.0000       0.680122        18.5071 
 195   0.0000       0.687082        18.6964 
 196   0.0000       0.692550        18.8452 
 197   0.0000       0.693265        18.8647 
 198   0.0000       0.700893        19.0723 
 199   0.0000       0.703063        19.1313 
 200   0.0000       0.708744        19.2859 
 201   0.0000       0.710869        19.3437 
 202   0.0000       0.713410        19.4129 
 203   0.0000       0.717032        19.5114 
 204   0.0000       0.720448        19.6044 
 205   0.0000       0.726936        19.7809 
 206   0.0000       0.731603        19.9079 
 207   0.0000       0.732763        19.9395 
 208   0.0000       0.735783        20.0217 
 209   0.0000       0.737978        20.0814 
 210   0.0000       0.745491        20.2859 
 211   0.0000       0.747780        20.3481 
 212   0.0000       0.750608        20.4251 
 213   0.0000       0.756392        20.5825 
 214   0.0000       0.761022        20.7085 
 215   0.0000       0.768879        20.9222 
 216   0.0000       0.774943        21.0873 
 217   0.0000       0.784681        21.3523 
 218   0.0000       0.786103        21.3910 
 219   0.0000       0.788545        21.4574 
 220   0.0000       0.792648        21.5691 
 221   0.0000       0.795533        21.6475 
 222   0.0000       0.798854        21.7379 
 223   0.0000       0.800800        21.7909 
 224   0.0000       0.803247        21.8575 
 225   0.0000       0.806016        21.9328 
 226   0.0000       0.807195        21.9649 
 227   0.0000       0.810281        22.0489 
 228   0.0000       0.814512        22.1640 
 229   0.0000       0.817960        22.2578 
 230   0.0000       0.825352        22.4590 
 231   0.0000       0.835368        22.7315 
 232   0.0000       0.839123        22.8337 
 233   0.0000       0.847785        23.0694 
 234   0.0000       0.850703        23.1488 
 235   0.0000       0.859392        23.3852 
 236   0.0000       0.863692        23.5023 
 237   0.0000       0.865418        23.5492 
 238   0.0000       0.869585        23.6626 
 239   0.0000       0.871141        23.7050 
 240   0.0000       0.881084        23.9755 
 241   0.0000       0.891965        24.2716 
 242   0.0000       0.897589        24.4246 
 243   0.0000       0.913393        24.8547 
 244   0.0000       0.924372        25.1534 
 245   0.0000       0.927756        25.2455 
 246   0.0000       0.946244        25.7486 
 247   0.0000       0.949232        25.8299 
 248   0.0000       0.954668        25.9778 
 249   0.0000       0.964944        26.2575 
 250   0.0000       0.975424        26.5426 
 251   0.0000       0.988617        26.9016 
 252   0.0000       0.993969        27.0473 
 253   0.0000       1.009361        27.4661 
 254   0.0000       1.013241        27.5717 
 255   0.0000       1.015411        27.6308 
 256   0.0000       1.028377        27.9836 
 257   0.0000       1.034112        28.1396 
 258   0.0000       1.045689        28.4546 
 259   0.0000       1.062411        28.9097 
 260   0.0000       1.072098        29.1733 
 261   0.0000       1.074969        29.2514 
 262   0.0000       1.087606        29.5953 
 263   0.0000       1.096372        29.8338 
 264   0.0000       1.107214        30.1288 
 265   0.0000       1.118726        30.4421 
 266   0.0000       1.133533        30.8450 
 267   0.0000       1.137507        30.9531 
 268   0.0000       1.154741        31.4221 
 269   0.0000       1.156935        31.4818 
 270   0.0000       1.189499        32.3679 
 271   0.0000       1.194647        32.5080 
 272   0.0000       1.204110        32.7655 
 273   0.0000       1.211623        32.9700 
 274   0.0000       1.216398        33.0999 
 275   0.0000       1.225364        33.3438 
 276   0.0000       1.246648        33.9230 
 277   0.0000       1.250027        34.0150 
 278   0.0000       1.265457        34.4348 
 279   0.0000       1.271052        34.5871 
 280   0.0000       1.283994        34.9393 
 281   0.0000       1.294382        35.2219 
 282   0.0000       1.299992        35.3746 
 283   0.0000       1.302500        35.4428 
 284   0.0000       1.318542        35.8794 
 285   0.0000       1.330200        36.1966 
 286   0.0000       1.345389        36.6099 
 287   0.0000       1.355718        36.8910 
 288   0.0000       1.361724        37.0544 
 289   0.0000       1.373122        37.3645 
 290   0.0000       1.392282        37.8859 
 291   0.0000       1.401828        38.1457 
 292   0.0000       1.405620        38.2489 
 293   0.0000       1.413340        38.4589 
 294   0.0000       1.421024        38.6680 
 295   0.0000       1.432374        38.9769 
 296   0.0000       1.436329        39.0845 
 297   0.0000       1.448122        39.4054 
 298   0.0000       1.455130        39.5961 
 299   0.0000       1.457756        39.6676 
 300   0.0000       1.466083        39.8941 
 301   0.0000       1.469688        39.9922 
 302   0.0000       1.487115        40.4665 
 303   0.0000       1.490421        40.5564 
 304   0.0000       1.492757        40.6200 
 305   0.0000       1.505600        40.9695 
 306   0.0000       1.512834        41.1663 
 307   0.0000       1.514790        41.2195 
 308   0.0000       1.526171        41.5292 
 309   0.0000       1.528938        41.6045 
 310   0.0000       1.530436        41.6453 
 311   0.0000       1.532552        41.7029 
 312   0.0000       1.539405        41.8893 
 313   0.0000       1.546398        42.0796 
 314   0.0000       1.553881        42.2832 
 315   0.0000       1.560445        42.4619 
 316   0.0000       1.563646        42.5490 
 317   0.0000       1.572969        42.8026 
 318   0.0000       1.580931        43.0193 
 319   0.0000       1.586970        43.1836 
 320   0.0000       1.588632        43.2289 
 321   0.0000       1.596817        43.4516 
 322   0.0000       1.602967        43.6190 
 323   0.0000       1.604566        43.6625 
 324   0.0000       1.613913        43.9168 
 325   0.0000       1.618747        44.0483 
 326   0.0000       1.631612        44.3984 
 327   0.0000       1.635406        44.5017 
 328   0.0000       1.652674        44.9715 
 329   0.0000       1.669012        45.4161 
 330   0.0000       1.671930        45.4955 
 331   0.0000       1.685463        45.8638 
 332   0.0000       1.693055        46.0704 
 333   0.0000       1.718165        46.7536 
 334   0.0000       1.729385        47.0590 
 335   0.0000       1.736609        47.2555 
 336   0.0000       1.758911        47.8624 
 337   0.0000       1.763159        47.9780 
 338   0.0000       1.765061        48.0298 
 339   0.0000       1.776576        48.3431 
 340   0.0000       1.813223        49.3403 
 341   0.0000       1.850492        50.3544 
 342   0.0000       1.852775        50.4166 
 343   0.0000       1.872541        50.9544 
 344   0.0000       1.879348        51.1397 
 345   0.0000       1.917803        52.1861 
 346   0.0000       1.919116        52.2218 
 347   0.0000       1.934007        52.6270 
 348   0.0000       1.939390        52.7735 
 349   0.0000       1.941154        52.8215 
 350   0.0000       1.946723        52.9730 
 351   0.0000       1.950190        53.0674 
 352   0.0000       1.961251        53.3683 
 353   0.0000       1.962655        53.4066 
 354   0.0000       1.968695        53.5709 
 355   0.0000       1.971942        53.6593 
 356   0.0000       1.977919        53.8219 
 357   0.0000       1.984173        53.9921 
 358   0.0000       1.998144        54.3723 
 359   0.0000       2.003791        54.5259 
 360   0.0000       2.010851        54.7180 
 361   0.0000       2.015109        54.8339 
 362   0.0000       2.021672        55.0125 
 363   0.0000       2.048914        55.7538 
 364   0.0000       2.059979        56.0549 
 365   0.0000       2.077271        56.5254 
 366   0.0000       2.090202        56.8773 
 367   0.0000       2.090966        56.8981 
 368   0.0000       2.105559        57.2952 
 369   0.0000       2.114920        57.5499 
 370   0.0000       2.120869        57.7118 
 371   0.0000       2.124373        57.8071 
 372   0.0000       2.162466        58.8437 
 373   0.0000       2.167583        58.9829 
 374   0.0000       2.173541        59.1451 
 375   0.0000       2.189799        59.5875 
 376   0.0000       2.194144        59.7057 
 377   0.0000       2.199514        59.8518 
 378   0.0000       2.212510        60.2055 
 379   0.0000       2.225396        60.5561 
 380   0.0000       2.241861        61.0041 
 381   0.0000       2.258711        61.4627 
 382   0.0000       2.266099        61.6637 
 383   0.0000       2.278276        61.9950 
 384   0.0000       2.288958        62.2857 
 385   0.0000       2.300572        62.6018 
 386   0.0000       2.313320        62.9486 
 387   0.0000       2.330133        63.4062 
 388   0.0000       2.348757        63.9129 
 389   0.0000       2.356239        64.1165 
 390   0.0000       2.363115        64.3036 
 391   0.0000       2.392468        65.1024 
 392   0.0000       2.399707        65.2993 
 393   0.0000       2.452711        66.7417 
 394   0.0000       2.456747        66.8515 
 395   0.0000       2.470759        67.2328 
 396   0.0000       2.498900        67.9985 
 397   0.0000       2.515508        68.4504 
 398   0.0000       2.522691        68.6459 
 399   0.0000       2.533083        68.9287 
 400   0.0000       2.544775        69.2469 
 401   0.0000       2.557726        69.5993 
 402   0.0000       2.584386        70.3247 
 403   0.0000       2.584920        70.3393 
 404   0.0000       2.591188        70.5098 
 405   0.0000       2.608107        70.9702 
 406   0.0000       2.612816        71.0983 
 407   0.0000       2.682792        73.0025 
 408   0.0000       2.701144        73.5019 
 409   0.0000       2.719659        74.0057 
 410   0.0000       2.721846        74.0652 
 411   0.0000       2.732326        74.3504 
 412   0.0000       2.739529        74.5464 
 413   0.0000       2.760103        75.1062 
 414   0.0000       2.762556        75.1730 
 415   0.0000       2.769309        75.3567 
 416   0.0000       2.787460        75.8506 
 417   0.0000       2.791254        75.9539 
 418   0.0000       2.805381        76.3383 
 419   0.0000       2.818604        76.6981 
 420   0.0000       2.832465        77.0753 
 421   0.0000       2.842345        77.3441 
 422   0.0000       2.860666        77.8427 
 423   0.0000       2.869924        78.0946 
 424   0.0000       2.893635        78.7398 
 425   0.0000       2.916853        79.3716 
 426   0.0000       2.923941        79.5645 
 427   0.0000       2.934070        79.8401 
 428   0.0000       2.945507        80.1513 
 429   0.0000       2.964964        80.6808 
 430   0.0000       2.981552        81.1321 
 431   0.0000       2.998060        81.5814 
 432   0.0000       3.000690        81.6529 
 433   0.0000       3.007492        81.8380 
 434   0.0000       3.008861        81.8753 
 435   0.0000       3.011937        81.9590 
 436   0.0000       3.023372        82.2701 
 437   0.0000       3.027206        82.3745 
 438   0.0000       3.056064        83.1597 
 439   0.0000       3.065469        83.4156 
 440   0.0000       3.068844        83.5075 
 441   0.0000       3.084085        83.9222 
 442   0.0000       3.111829        84.6772 
 443   0.0000       3.131579        85.2146 
 444   0.0000       3.146633        85.6242 
 445   0.0000       3.178013        86.4781 
 446   0.0000       3.187944        86.7484 
 447   0.0000       3.197541        87.0095 
 448   0.0000       3.223940        87.7279 
 449   0.0000       3.240561        88.1802 
 450   0.0000       3.247282        88.3630 
 451   0.0000       3.251316        88.4728 
 452   0.0000       3.254946        88.5716 
 453   0.0000       3.272243        89.0422 
 454   0.0000       3.278548        89.2138 
 455   0.0000       3.292640        89.5973 
 456   0.0000       3.310322        90.0784 
 457   0.0000       3.318517        90.3014 
 458   0.0000       3.343520        90.9818 
 459   0.0000       3.358103        91.3786 
 460   0.0000       3.412012        92.8456 
 461   0.0000       3.428437        93.2925 
 462   0.0000       3.432716        93.4089 
 463   0.0000       3.436948        93.5241 
 464   0.0000       3.454799        94.0099 
 465   0.0000       3.462142        94.2097 
 466   0.0000       3.464525        94.2745 
 467   0.0000       3.478743        94.6614 
 468   0.0000       3.485418        94.8430 
 469   0.0000       3.497343        95.1675 
 470   0.0000       3.505047        95.3772 
 471   0.0000       3.509585        95.5007 
 472   0.0000       3.513316        95.6022 
 473   0.0000       3.521705        95.8305 
 474   0.0000       3.527896        95.9989 
 475   0.0000       3.537899        96.2711 
 476   0.0000       3.538657        96.2917 
 477   0.0000       3.545993        96.4914 
 478   0.0000       3.562164        96.9314 
 479   0.0000       3.568046        97.0915 
 480   0.0000       3.574324        97.2623 
 481   0.0000       3.579050        97.3909 
 482   0.0000       3.598784        97.9279 
 483   0.0000       3.602623        98.0324 
 484   0.0000       3.614629        98.3591 
 485   0.0000       3.618914        98.4757 
 486   0.0000       3.628635        98.7402 
 487   0.0000       3.634748        98.9065 
 488   0.0000       3.641174        99.0814 
 489   0.0000       3.656208        99.4905 
 490   0.0000       3.656875        99.5086 
 491   0.0000       3.663002        99.6753 
 492   0.0000       3.666066        99.7587 
 493   0.0000       3.670071        99.8677 
 494   0.0000       3.680706       100.1571 
 495   0.0000       3.685272       100.2813 
 496   0.0000       3.688938       100.3811 
 497   0.0000       3.701140       100.7131 
 498   0.0000       3.708424       100.9114 
 499   0.0000       3.722874       101.3045 
 500   0.0000       3.727424       101.4284 
 501   0.0000       3.735999       101.6617 
 502   0.0000       3.741953       101.8237 
 503   0.0000       3.746763       101.9546 
 504   0.0000       3.752622       102.1140 
 505   0.0000       3.770758       102.6075 
 506   0.0000       3.780682       102.8776 
 507   0.0000       3.786507       103.0361 
 508   0.0000       3.791430       103.1700 
 509   0.0000       3.795430       103.2789 
 510   0.0000       3.806215       103.5724 
 511   0.0000       3.811091       103.7051 
 512   0.0000       3.815639       103.8288 
 513   0.0000       3.825658       104.1015 
 514   0.0000       3.837484       104.4232 
 515   0.0000       3.841979       104.5456 
 516   0.0000       3.849505       104.7503 
 517   0.0000       3.857718       104.9738 
 518   0.0000       3.869782       105.3021 
 519   0.0000       3.887199       105.7761 
 520   0.0000       3.888575       105.8135 
 521   0.0000       3.893658       105.9518 
 522   0.0000       3.933078       107.0245 
 523   0.0000       3.945061       107.3506 
 524   0.0000       3.973372       108.1210 
 525   0.0000       3.990023       108.5740 
 526   0.0000       4.005557       108.9968 
 527   0.0000       4.015352       109.2633 
 528   0.0000       4.026967       109.5794 
 529   0.0000       4.030289       109.6697 
 530   0.0000       4.049144       110.1828 
 531   0.0000       4.062704       110.5518 
 532   0.0000       4.067744       110.6889 
 533   0.0000       4.075835       110.9091 
 534   0.0000       4.082341       111.0861 
 535   0.0000       4.083345       111.1135 
 536   0.0000       4.086269       111.1930 
 537   0.0000       4.102720       111.6407 
 538   0.0000       4.149098       112.9027 
 539   0.0000       4.171944       113.5244 
 540   0.0000       4.175861       113.6310 
 541   0.0000       4.195512       114.1657 
 542   0.0000       4.202335       114.3513 
 543   0.0000       4.226628       115.0124 
 544   0.0000       4.273039       116.2753 
 545   0.0000       4.273473       116.2871 
 546   0.0000       4.297054       116.9288 
 547   0.0000       4.307365       117.2094 
 548   0.0000       4.322333       117.6167 
 549   0.0000       4.330643       117.8428 
 550   0.0000       4.343939       118.2046 
 551   0.0000       4.369223       118.8926 
 552   0.0000       4.372884       118.9922 
 553   0.0000       4.375062       119.0515 
 554   0.0000       4.384049       119.2960 
 555   0.0000       4.392205       119.5180 
 556   0.0000       4.401660       119.7752 
 557   0.0000       4.412136       120.0603 
 558   0.0000       4.418205       120.2255 
 559   0.0000       4.423499       120.3695 
 560   0.0000       4.429509       120.5331 
 561   0.0000       4.434016       120.6557 
 562   0.0000       4.441766       120.8666 
 563   0.0000       4.444081       120.9296 
 564   0.0000       4.450102       121.0934 
 565   0.0000       4.451625       121.1349 
 566   0.0000       4.479265       121.8870 
 567   0.0000       4.490093       122.1817 
 568   0.0000       4.497668       122.3878 
 569   0.0000       4.509636       122.7134 
 570   0.0000       4.537530       123.4725 
 571   0.0000       4.552588       123.8822 
 572   0.0000       4.561588       124.1271 
 573   0.0000       4.583308       124.7182 
 574   0.0000       4.592813       124.9768 
 575   0.0000       4.613894       125.5504 
 576   0.0000       4.623023       125.7989 
 577   0.0000       4.631222       126.0220 
 578   0.0000       4.634387       126.1081 
 579   0.0000       4.651511       126.5740 
 580   0.0000       4.662931       126.8848 
 581   0.0000       4.672474       127.1445 
 582   0.0000       4.681124       127.3799 
 583   0.0000       4.695532       127.7719 
 584   0.0000       4.698614       127.8558 
 585   0.0000       4.718189       128.3884 
 586   0.0000       4.735030       128.8467 
 587   0.0000       4.782466       130.1375 
 588   0.0000       4.803411       130.7075 
 589   0.0000       4.891390       133.1015 
 590   0.0000       4.904261       133.4517 
 591   0.0000       4.918938       133.8511 
 592   0.0000       4.967575       135.1746 
 593   0.0000       4.974439       135.3614 
 594   0.0000       4.978352       135.4678 
 595   0.0000       4.990692       135.8036 
 596   0.0000       4.994336       135.9028 
 597   0.0000       5.018731       136.5666 
 598   0.0000       5.042074       137.2018 
 599   0.0000       5.047869       137.3595 
 600   0.0000       5.055932       137.5789 
 601   0.0000       5.073684       138.0620 
 602   0.0000       5.075070       138.0997 
 603   0.0000       5.100854       138.8013 
 604   0.0000       5.102550       138.8475 
 605   0.0000       5.116462       139.2260 
 606   0.0000       5.122333       139.3858 
 607   0.0000       5.134143       139.7071 
 608   0.0000       5.147230       140.0632 
 609   0.0000       5.402846       147.0189 
 610   0.0000       5.407499       147.1455 
 611   0.0000       5.415154       147.3538 
 612   0.0000       5.425882       147.6458 
 613   0.0000       5.428221       147.7094 
 614   0.0000       5.435830       147.9165 
 615   0.0000       5.437347       147.9577 
 616   0.0000       5.440577       148.0456 
 617   0.0000       5.485710       149.2737 
 618   0.0000       5.497390       149.5916 
 619   0.0000       5.506066       149.8277 
 620   0.0000       5.513747       150.0367 
 621   0.0000       5.527953       150.4232 
 622   0.0000       5.534407       150.5989 
 623   0.0000       5.546995       150.9414 
 624   0.0000       5.548918       150.9937 
 625   0.0000       5.551559       151.0656 
 626   0.0000       5.575447       151.7156 
 627   0.0000       5.700662       155.1229 
 628   0.0000       5.751798       156.5144 
 629   0.0000       5.900504       160.5609 
 630   0.0000       5.909451       160.8043 
 631   0.0000       5.916745       161.0028 
 632   0.0000       5.936418       161.5381 
 633   0.0000       6.139019       167.0512 
 634   0.0000       6.145945       167.2397 
 635   0.0000       6.151586       167.3932 
 636   0.0000       6.163216       167.7096 
 637   0.0000       6.166188       167.7905 
 638   0.0000       6.170756       167.9148 
 639   0.0000       6.186899       168.3541 
 640   0.0000       6.187169       168.3614 
 641   0.0000       6.784125       184.6054 
 642   0.0000       6.790833       184.7880 
 643   0.0000       8.488851       230.9934 
 644   0.0000       8.498647       231.2599 
 645   0.0000       8.554793       232.7878 
 646   0.0000       8.624082       234.6732 
 647   0.0000       8.640802       235.1282 
 648   0.0000      11.358779       309.0881 
 649   0.0000      11.445058       311.4359 
 650   0.0000      11.695275       318.2446 
 651   0.0000      21.311281       579.9094 
 652   0.0000      23.613182       642.5473 
 653   0.0000      23.656015       643.7129 
 654   0.0000      23.848934       648.9625 
 655   0.0000      23.857258       649.1890 
 656   0.0000      23.870780       649.5570 
 657   0.0000      23.885356       649.9536 
 658   0.0000      24.206745       658.6990 
 659   0.0000      24.221696       659.1058 
 660   0.0000      24.249443       659.8609 
 661   0.0000      24.271590       660.4635 
 662   0.0000      26.724926       727.2222 
 663   0.0000      71.927817      1957.2554 

                    ********************************
                    * MULLIKEN POPULATION ANALYSIS *
                    ********************************

-----------------------
MULLIKEN ATOMIC CHARGES
-----------------------
   0 Zr:    0.289162
   1 C :    0.139464
   2 C :    0.075276
   3 C :   -0.015543
   4 H :    0.056431
   5 C :   -0.058035
   6 H :    0.013857
   7 C :   -0.015564
   8 H :    0.040422
   9 H :   -0.009649
  10 C :    0.154740
  11 C :    0.068595
  12 C :   -0.101243
  13 H :   -0.001698
  14 C :   -0.044240
  15 H :    0.037412
  16 C :    0.031956
  17 H :    0.004754
  18 H :   -0.000560
  19 Cl:   -0.557079
  20 H :   -0.215923
  21 H :    0.021529
  22 H :    0.085936
Sum of atomic charges:    0.0000000

--------------------------------
MULLIKEN REDUCED ORBITAL CHARGES
--------------------------------
  0 Zrs       :     2.574173  s :     2.574173
      pz      :     2.195171  p :     6.842631
      px      :     2.431777
      py      :     2.215683
      dz2     :     0.636637  d :     1.982221
      dxz     :     0.468055
      dyz     :     0.188475
      dx2y2   :     0.400472
      dxy     :     0.288582
      f0      :     0.043493  f :     0.268447
      f+1     :     0.023592
      f-1     :     0.019359
      f+2     :     0.038551
      f-2     :     0.024440
      f+3     :     0.080910
      f-3     :     0.038103
      g0      :     0.003096  g :     0.043366
      g+1     :     0.004090
      g-1     :     0.003221
      g+2     :     0.004148
      g-2     :     0.002613
      g+3     :     0.004401
      g-3     :     0.005419
      g+4     :     0.009640
      g-4     :     0.006739
  1 C s       :     3.030672  s :     3.030672
      pz      :     0.985961  p :     2.773809
      px      :     0.926239
      py      :     0.861609
      dz2     :    -0.000376  d :     0.047854
      dxz     :    -0.014511
      dyz     :     0.030547
      dx2y2   :     0.018053
      dxy     :     0.014141
      f0      :     0.001296  f :     0.008200
      f+1     :     0.000675
      f-1     :     0.002048
      f+2     :     0.001360
      f-2     :     0.001233
      f+3     :     0.000806
      f-3     :     0.000782
  2 C s       :     3.033882  s :     3.033882
      pz      :     0.866521  p :     2.879957
      px      :     0.922511
      py      :     1.090925
      dz2     :     0.013521  d :     0.002891
      dxz     :     0.036743
      dyz     :    -0.032263
      dx2y2   :    -0.018163
      dxy     :     0.003053
      f0      :     0.001461  f :     0.007994
      f+1     :     0.000991
      f-1     :     0.001459
      f+2     :     0.001135
      f-2     :     0.001336
      f+3     :     0.000807
      f-3     :     0.000806
  3 C s       :     3.082170  s :     3.082170
      pz      :     0.928835  p :     2.888238
      px      :     1.048883
      py      :     0.910519
      dz2     :    -0.000762  d :     0.037142
      dxz     :     0.013941
      dyz     :     0.020029
      dx2y2   :     0.014790
      dxy     :    -0.010856
      f0      :     0.001316  f :     0.007994
      f+1     :     0.000891
      f-1     :     0.002082
      f+2     :     0.001049
      f-2     :     0.000925
      f+3     :     0.000897
      f-3     :     0.000834
  4 H s       :     0.894827  s :     0.894827
      pz      :     0.007003  p :     0.046699
      px      :     0.004508
      py      :     0.035187
      dz2     :     0.000204  d :     0.002043
      dxz     :     0.000108
      dyz     :     0.000652
      dx2y2   :     0.000533
      dxy     :     0.000545
  5 C s       :     3.090324  s :     3.090324
      pz      :     1.012147  p :     2.918561
      px      :     0.942322
      py      :     0.964092
      dz2     :    -0.018460  d :     0.041131
      dxz     :     0.027271
      dyz     :     0.001429
      dx2y2   :     0.003260
      dxy     :     0.027631
      f0      :     0.001644  f :     0.008019
      f+1     :     0.001366
      f-1     :     0.001294
      f+2     :     0.000907
      f-2     :     0.000980
      f+3     :     0.000837
      f-3     :     0.000991
  6 H s       :     0.911115  s :     0.911115
      pz      :     0.010180  p :     0.073029
      px      :     0.055284
      py      :     0.007565
      dz2     :     0.000350  d :     0.001999
      dxz     :     0.000205
      dyz     :     0.000443
      dx2y2   :     0.000460
      dxy     :     0.000541
  7 C s       :     3.118244  s :     3.118244
      pz      :     0.986309  p :     2.858777
      px      :     0.962384
      py      :     0.910085
      dz2     :     0.005447  d :     0.030461
      dxz     :    -0.001420
      dyz     :     0.014627
      dx2y2   :     0.016082
      dxy     :    -0.004275
      f0      :     0.001488  f :     0.008082
      f+1     :     0.001377
      f-1     :     0.001731
      f+2     :     0.000859
      f-2     :     0.000674
      f+3     :     0.000617
      f-3     :     0.001336
  8 H s       :     0.892686  s :     0.892686
      pz      :     0.028148  p :     0.064868
      px      :     0.018231
      py      :     0.018489
      dz2     :     0.000652  d :     0.002023
      dxz     :     0.000441
      dyz     :     0.000505
      dx2y2   :     0.000217
      dxy     :     0.000209
  9 H s       :     0.941620  s :     0.941620
      pz      :     0.016206  p :     0.066047
      px      :     0.040058
      py      :     0.009782
      dz2     :     0.000666  d :     0.001983
      dxz     :     0.000458
      dyz     :     0.000253
      dx2y2   :     0.000263
      dxy     :     0.000342
 10 C s       :     2.993232  s :     2.993232
      pz      :     0.845544  p :     2.853681
      px      :     0.918037
      py      :     1.090099
      dz2     :     0.010780  d :    -0.009637
      dxz     :     0.062734
      dyz     :    -0.064176
      dx2y2   :    -0.023858
      dxy     :     0.004884
      f0      :     0.001541  f :     0.007983
      f+1     :     0.000872
      f-1     :     0.001306
      f+2     :     0.001228
      f-2     :     0.001505
      f+3     :     0.000835
      f-3     :     0.000696
 11 C s       :     3.062451  s :     3.062451
      pz      :     0.970762  p :     2.807195
      px      :     0.960708
      py      :     0.875725
      dz2     :     0.002083  d :     0.053575
      dxz     :    -0.018002
      dyz     :     0.038245
      dx2y2   :     0.018638
      dxy     :     0.012611
      f0      :     0.001420  f :     0.008184
      f+1     :     0.000677
      f-1     :     0.001939
      f+2     :     0.001424
      f-2     :     0.001097
      f+3     :     0.000847
      f-3     :     0.000780
 12 C s       :     3.150351  s :     3.150351
      pz      :     1.020338  p :     2.901122
      px      :     0.964284
      py      :     0.916500
      dz2     :    -0.029495  d :     0.041753
      dxz     :     0.011060
      dyz     :     0.000555
      dx2y2   :     0.028894
      dxy     :     0.030740
      f0      :     0.001635  f :     0.008017
      f+1     :     0.001172
      f-1     :     0.001331
      f+2     :     0.000974
      f-2     :     0.001180
      f+3     :     0.000733
      f-3     :     0.000991
 13 H s       :     0.944669  s :     0.944669
      pz      :     0.014838  p :     0.055062
      px      :     0.038454
      py      :     0.001770
      dz2     :     0.000407  d :     0.001967
      dxz     :     0.000691
      dyz     :     0.000723
      dx2y2   :     0.000069
      dxy     :     0.000076
 14 C s       :     3.074097  s :     3.074097
      pz      :     0.960630  p :     2.915539
      px      :     1.048962
      py      :     0.905946
      dz2     :     0.011020  d :     0.046599
      dxz     :     0.015309
      dyz     :     0.014538
      dx2y2   :     0.014061
      dxy     :    -0.008329
      f0      :     0.001295  f :     0.008005
      f+1     :     0.001054
      f-1     :     0.002136
      f+2     :     0.000891
      f-2     :     0.000801
      f+3     :     0.000872
      f-3     :     0.000957
 15 H s       :     0.902856  s :     0.902856
      pz      :     0.026624  p :     0.057710
      px      :     0.019694
      py      :     0.011392
      dz2     :     0.000601  d :     0.002022
      dxz     :     0.000507
      dyz     :     0.000608
      dx2y2   :     0.000147
      dxy     :     0.000159
 16 C s       :     3.112832  s :     3.112832
      pz      :     0.984248  p :     2.828139
      px      :     0.946249
      py      :     0.897642
      dz2     :     0.008293  d :     0.018972
      dxz     :    -0.002248
      dyz     :     0.006197
      dx2y2   :     0.006335
      dxy     :     0.000395
      f0      :     0.001307  f :     0.008102
      f+1     :     0.001495
      f-1     :     0.001914
      f+2     :     0.000760
      f-2     :     0.000638
      f+3     :     0.000637
      f-3     :     0.001350
 17 H s       :     0.917695  s :     0.917695
      pz      :     0.012841  p :     0.075554
      px      :     0.055413
      py      :     0.007300
      dz2     :     0.000465  d :     0.001997
      dxz     :     0.000257
      dyz     :     0.000335
      dx2y2   :     0.000457
      dxy     :     0.000482
 18 H s       :     0.937177  s :     0.937177
      pz      :     0.012715  p :     0.061402
      px      :     0.038432
      py      :     0.010255
      dz2     :     0.000627  d :     0.001981
      dxz     :     0.000375
      dyz     :     0.000266
      dx2y2   :     0.000293
      dxy     :     0.000419
 19 Cls       :     6.005077  s :     6.005077
      pz      :     3.873833  p :    11.528438
      px      :     3.949959
      py      :     3.704646
      dz2     :     0.002228  d :     0.022387
      dxz     :     0.000666
      dyz     :     0.005402
      dx2y2   :     0.006602
      dxy     :     0.007489
      f0      :     0.000093  f :     0.001176
      f+1     :     0.000017
      f-1     :     0.000216
      f+2     :     0.000164
      f-2     :     0.000031
      f+3     :     0.000234
      f-3     :     0.000421
 20 H s       :     1.235164  s :     1.235164
      pz      :     0.006166  p :    -0.020161
      px      :    -0.022055
      py      :    -0.004273
      dz2     :     0.000577  d :     0.000921
      dxz     :     0.000192
      dyz     :     0.000101
      dx2y2   :     0.000026
      dxy     :     0.000025
 21 H s       :     0.928381  s :     0.928381
      pz      :     0.013084  p :     0.048125
      px      :     0.033714
      py      :     0.001326
      dz2     :     0.000371  d :     0.001966
      dxz     :     0.000709
      dyz     :     0.000783
      dx2y2   :     0.000051
      dxy     :     0.000051
 22 H s       :     0.866535  s :     0.866535
      pz      :     0.006208  p :     0.045486
      px      :     0.004460
      py      :     0.034817
      dz2     :     0.000127  d :     0.002044
      dxz     :     0.000110
      dyz     :     0.000713
      dx2y2   :     0.000570
      dxy     :     0.000524


                     *******************************
                     * LOEWDIN POPULATION ANALYSIS *
                     *******************************

----------------------
LOEWDIN ATOMIC CHARGES
----------------------
   0 Zr:    0.434950
   1 C :   -0.067106
   2 C :   -0.058089
   3 C :   -0.074948
   4 H :    0.005188
   5 C :   -0.052955
   6 H :    0.005874
   7 C :   -0.061869
   8 H :    0.006027
   9 H :    0.006773
  10 C :   -0.057456
  11 C :   -0.065666
  12 C :   -0.054490
  13 H :   -0.000012
  14 C :   -0.071124
  15 H :    0.005134
  16 C :   -0.066705
  17 H :    0.008191
  18 H :    0.004593
  19 Cl:    0.170824
  20 H :   -0.021881
  21 H :   -0.000449
  22 H :    0.005198

-------------------------------
LOEWDIN REDUCED ORBITAL CHARGES
-------------------------------
  0 Zrs       :     1.803765  s :     1.803765
      pz      :     2.112955  p :     6.302967
      px      :     2.047653
      py      :     2.142359
      dz2     :     0.789485  d :     2.574494
      dxz     :     0.465164
      dyz     :     0.261305
      dx2y2   :     0.589632
      dxy     :     0.468908
      f0      :     0.104537  f :     0.649842
      f+1     :     0.054541
      f-1     :     0.052080
      f+2     :     0.094641
      f-2     :     0.053414
      f+3     :     0.175803
      f-3     :     0.114827
      g0      :     0.024294  g :     0.233981
      g+1     :     0.021030
      g-1     :     0.017138
      g+2     :     0.021091
      g-2     :     0.012215
      g+3     :     0.023300
      g-3     :     0.027436
      g+4     :     0.051558
      g-4     :     0.035919
  1 C s       :     2.636310  s :     2.636310
      pz      :     0.926075  p :     2.577947
      px      :     0.762797
      py      :     0.889075
      dz2     :     0.203904  d :     0.804400
      dxz     :     0.109985
      dyz     :     0.174009
      dx2y2   :     0.156302
      dxy     :     0.160201
      f0      :     0.006055  f :     0.048450
      f+1     :     0.003463
      f-1     :     0.013716
      f+2     :     0.009186
      f-2     :     0.008537
      f+3     :     0.004481
      f-3     :     0.003012
  2 C s       :     2.628767  s :     2.628767
      pz      :     0.905110  p :     2.595007
      px      :     0.796931
      py      :     0.892965
      dz2     :     0.216872  d :     0.786602
      dxz     :     0.159065
      dyz     :     0.185162
      dx2y2   :     0.113163
      dxy     :     0.112340
      f0      :     0.009118  f :     0.047714
      f+1     :     0.005383
      f-1     :     0.010243
      f+2     :     0.007637
      f-2     :     0.008738
      f+3     :     0.003710
      f-3     :     0.002885
  3 C s       :     2.633543  s :     2.633543
      pz      :     0.908640  p :     2.599010
      px      :     0.778334
      py      :     0.912036
      dz2     :     0.199870  d :     0.794751
      dxz     :     0.148496
      dyz     :     0.211264
      dx2y2   :     0.116234
      dxy     :     0.118887
      f0      :     0.008327  f :     0.047644
      f+1     :     0.005237
      f-1     :     0.014035
      f+2     :     0.006422
      f-2     :     0.005607
      f+3     :     0.004360
      f-3     :     0.003657
  4 H s       :     0.700646  s :     0.700646
      pz      :     0.062474  p :     0.265031
      px      :     0.090111
      py      :     0.112446
      dz2     :     0.003401  d :     0.029136
      dxz     :     0.001272
      dyz     :     0.007749
      dx2y2   :     0.008247
      dxy     :     0.008466
  5 C s       :     2.628533  s :     2.628533
      pz      :     0.909469  p :     2.588998
      px      :     0.787618
      py      :     0.891911
      dz2     :     0.165112  d :     0.787224
      dxz     :     0.130708
      dyz     :     0.223696
      dx2y2   :     0.125308
      dxy     :     0.142400
      f0      :     0.011423  f :     0.048199
      f+1     :     0.007535
      f-1     :     0.007909
      f+2     :     0.005638
      f-2     :     0.005765
      f+3     :     0.004838
      f-3     :     0.005092
  6 H s       :     0.699764  s :     0.699764
      pz      :     0.068089  p :     0.265330
      px      :     0.088879
      py      :     0.108363
      dz2     :     0.004150  d :     0.029033
      dxz     :     0.002407
      dyz     :     0.007517
      dx2y2   :     0.007527
      dxy     :     0.007432
  7 C s       :     2.633042  s :     2.633042
      pz      :     0.913466  p :     2.588185
      px      :     0.769897
      py      :     0.904822
      dz2     :     0.157200  d :     0.792306
      dxz     :     0.135695
      dyz     :     0.245945
      dx2y2   :     0.134518
      dxy     :     0.118948
      f0      :     0.010887  f :     0.048337
      f+1     :     0.007912
      f-1     :     0.010334
      f+2     :     0.004161
      f-2     :     0.004156
      f+3     :     0.004456
      f-3     :     0.006430
  8 H s       :     0.701133  s :     0.701133
      pz      :     0.102396  p :     0.263851
      px      :     0.088307
      py      :     0.073149
      dz2     :     0.009015  d :     0.028989
      dxz     :     0.007096
      dyz     :     0.007947
      dx2y2   :     0.002388
      dxy     :     0.002543
  9 H s       :     0.700533  s :     0.700533
      pz      :     0.094091  p :     0.263886
      px      :     0.078358
      py      :     0.091437
      dz2     :     0.007545  d :     0.028808
      dxz     :     0.004817
      dyz     :     0.008729
      dx2y2   :     0.003955
      dxy     :     0.003762
 10 C s       :     2.628426  s :     2.628426
      pz      :     0.904141  p :     2.593344
      px      :     0.797521
      py      :     0.891682
      dz2     :     0.224880  d :     0.787945
      dxz     :     0.162196
      dyz     :     0.175729
      dx2y2   :     0.111565
      dxy     :     0.113575
      f0      :     0.009756  f :     0.047741
      f+1     :     0.004456
      f-1     :     0.009036
      f+2     :     0.008618
      f-2     :     0.010000
      f+3     :     0.003593
      f-3     :     0.002281
 11 C s       :     2.636242  s :     2.636242
      pz      :     0.925586  p :     2.578249
      px      :     0.764061
      py      :     0.888601
      dz2     :     0.197724  d :     0.802771
      dxz     :     0.108052
      dyz     :     0.186248
      dx2y2   :     0.149233
      dxy     :     0.161514
      f0      :     0.007335  f :     0.048405
      f+1     :     0.003911
      f-1     :     0.012296
      f+2     :     0.009355
      f-2     :     0.007685
      f+3     :     0.004755
      f-3     :     0.003068
 12 C s       :     2.628569  s :     2.628569
      pz      :     0.909530  p :     2.592993
      px      :     0.792750
      py      :     0.890713
      dz2     :     0.176423  d :     0.784874
      dxz     :     0.123344
      dyz     :     0.205647
      dx2y2   :     0.133803
      dxy     :     0.145656
      f0      :     0.010555  f :     0.048054
      f+1     :     0.006219
      f-1     :     0.008429
      f+2     :     0.006256
      f-2     :     0.007455
      f+3     :     0.004360
      f-3     :     0.004779
 13 H s       :     0.702977  s :     0.702977
      pz      :     0.118155  p :     0.268165
      px      :     0.083558
      py      :     0.066452
      dz2     :     0.011242  d :     0.028869
      dxz     :     0.007799
      dyz     :     0.008579
      dx2y2   :     0.000607
      dxy     :     0.000642
 14 C s       :     2.633796  s :     2.633796
      pz      :     0.912223  p :     2.598172
      px      :     0.778006
      py      :     0.907942
      dz2     :     0.185109  d :     0.791528
      dxz     :     0.147502
      dyz     :     0.223606
      dx2y2   :     0.116908
      dxy     :     0.118404
      f0      :     0.008376  f :     0.047627
      f+1     :     0.006348
      f-1     :     0.014336
      f+2     :     0.005247
      f-2     :     0.004247
      f+3     :     0.004671
      f-3     :     0.004401
 15 H s       :     0.701686  s :     0.701686
      pz      :     0.107860  p :     0.264160
      px      :     0.087486
      py      :     0.068814
      dz2     :     0.009810  d :     0.029021
      dxz     :     0.007805
      dyz     :     0.008038
      dx2y2   :     0.001621
      dxy     :     0.001746
 16 C s       :     2.633555  s :     2.633555
      pz      :     0.913564  p :     2.586689
      px      :     0.767456
      py      :     0.905669
      dz2     :     0.159135  d :     0.798023
      dxz     :     0.146013
      dyz     :     0.245883
      dx2y2   :     0.132543
      dxy     :     0.114449
      f0      :     0.009754  f :     0.048437
      f+1     :     0.008473
      f-1     :     0.012001
      f+2     :     0.003310
      f-2     :     0.003874
      f+3     :     0.004464
      f-3     :     0.006560
 17 H s       :     0.700193  s :     0.700193
      pz      :     0.073364  p :     0.262639
      px      :     0.087125
      py      :     0.102151
      dz2     :     0.004846  d :     0.028976
      dxz     :     0.003198
      dyz     :     0.007542
      dx2y2   :     0.006767
      dxy     :     0.006624
 18 H s       :     0.700087  s :     0.700087
      pz      :     0.087834  p :     0.266492
      px      :     0.079921
      py      :     0.098736
      dz2     :     0.006625  d :     0.028829
      dxz     :     0.003964
      dyz     :     0.008671
      dx2y2   :     0.004900
      dxy     :     0.004669
 19 Cls       :     5.602381  s :     5.602381
      pz      :     3.716388  p :    11.100123
      px      :     3.732802
      py      :     3.650933
      dz2     :     0.018356  d :     0.124998
      dxz     :     0.005911
      dyz     :     0.015397
      dx2y2   :     0.041382
      dxy     :     0.043952
      f0      :     0.000070  f :     0.001674
      f+1     :     0.000033
      f-1     :     0.000346
      f+2     :     0.000121
      f-2     :     0.000038
      f+3     :     0.000361
      f-3     :     0.000706
 20 H s       :     0.851463  s :     0.851463
      pz      :     0.083095  p :     0.164216
      px      :     0.053627
      py      :     0.027493
      dz2     :     0.004443  d :     0.006202
      dxz     :     0.001002
      dyz     :     0.000598
      dx2y2   :     0.000101
      dxy     :     0.000058
 21 H s       :     0.702828  s :     0.702828
      pz      :     0.120024  p :     0.268741
      px      :     0.085521
      py      :     0.063196
      dz2     :     0.011554  d :     0.028880
      dxz     :     0.008130
      dyz     :     0.008423
      dx2y2   :     0.000381
      dxy     :     0.000393
 22 H s       :     0.700181  s :     0.700181
      pz      :     0.060267  p :     0.265470
      px      :     0.091602
      py      :     0.113601
      dz2     :     0.003084  d :     0.029152
      dxz     :     0.001100
      dyz     :     0.007580
      dx2y2   :     0.008601
      dxy     :     0.008787


                      *****************************
                      * MAYER POPULATION ANALYSIS *
                      *****************************

  NA   - Mulliken gross atomic population
  ZA   - Total nuclear charge
  QA   - Mulliken gross atomic charge
  VA   - Mayer's total valence
  BVA  - Mayer's bonded valence
  FA   - Mayer's free valence

  ATOM       NA         ZA         QA         VA         BVA        FA
  0 Zr    11.7108    12.0000     0.2892     5.7124     5.7124     0.0000
  1 C      5.8605     6.0000     0.1395     3.6034     3.6034     0.0000
  2 C      5.9247     6.0000     0.0753     3.6381     3.6381    -0.0000
  3 C      6.0155     6.0000    -0.0155     3.7223     3.7223     0.0000
  4 H      0.9436     1.0000     0.0564     1.0082     1.0082     0.0000
  5 C      6.0580     6.0000    -0.0580     3.6839     3.6839     0.0000
  6 H      0.9861     1.0000     0.0139     1.1061     1.1061     0.0000
  7 C      6.0156     6.0000    -0.0156     3.7242     3.7242     0.0000
  8 H      0.9596     1.0000     0.0404     1.0643     1.0643     0.0000
  9 H      1.0096     1.0000    -0.0096     1.0958     1.0958     0.0000
 10 C      5.8453     6.0000     0.1547     3.4959     3.4959     0.0000
 11 C      5.9314     6.0000     0.0686     3.6569     3.6569     0.0000
 12 C      6.1012     6.0000    -0.1012     3.6921     3.6921     0.0000
 13 H      1.0017     1.0000    -0.0017     1.0499     1.0499     0.0000
 14 C      6.0442     6.0000    -0.0442     3.7811     3.7811    -0.0000
 15 H      0.9626     1.0000     0.0374     1.0455     1.0455     0.0000
 16 C      5.9680     6.0000     0.0320     3.6732     3.6732    -0.0000
 17 H      0.9952     1.0000     0.0048     1.1090     1.1090    -0.0000
 18 H      1.0006     1.0000    -0.0006     1.0842     1.0842    -0.0000
 19 Cl    17.5571    17.0000    -0.5571     0.8201     0.8201    -0.0000
 20 H      1.2159     1.0000    -0.2159     0.8437     0.8437     0.0000
 21 H      0.9785     1.0000     0.0215     1.0175     1.0175     0.0000
 22 H      0.9141     1.0000     0.0859     0.9933     0.9933     0.0000

  Mayer bond orders larger than 0.100000
B(  0-Zr,  1-C ) :   0.2675 B(  0-Zr,  2-C ) :   0.3463 B(  0-Zr,  3-C ) :   0.4328 
B(  0-Zr,  5-C ) :   0.3661 B(  0-Zr,  7-C ) :   0.3388 B(  0-Zr, 10-C ) :   0.3029 
B(  0-Zr, 11-C ) :   0.2643 B(  0-Zr, 12-C ) :   0.4103 B(  0-Zr, 14-C ) :   0.4292 
B(  0-Zr, 16-C ) :   0.3395 B(  0-Zr, 19-Cl) :   0.7849 B(  0-Zr, 20-H ) :   0.9214 
B(  1-C ,  2-C ) :   1.3159 B(  1-C ,  3-C ) :   1.2973 B(  1-C , 21-H ) :   0.9419 
B(  2-C ,  3-C ) :  -0.1123 B(  2-C ,  4-H ) :   0.9038 B(  2-C ,  5-C ) :   1.2920 
B(  2-C ,  7-C ) :  -0.1270 B(  3-C ,  5-C ) :  -0.1204 B(  3-C ,  6-H ) :   0.9420 
B(  3-C ,  7-C ) :   1.3276 B(  5-C ,  7-C ) :   1.2980 B(  5-C ,  8-H ) :   0.9414 
B(  7-C ,  9-H ) :   0.9879 B( 10-C , 11-C ) :   1.3062 B( 10-C , 12-C ) :   1.2906 
B( 10-C , 14-C ) :  -0.1146 B( 10-C , 16-C ) :  -0.1491 B( 10-C , 22-H ) :   0.8819 
B( 11-C , 13-H ) :   0.9609 B( 11-C , 14-C ) :   1.3222 B( 12-C , 14-C ) :  -0.1287 
B( 12-C , 15-H ) :   0.9583 B( 12-C , 16-C ) :   1.2511 B( 14-C , 16-C ) :   1.3584 
B( 14-C , 17-H ) :   0.9424 B( 16-C , 18-H ) :   0.9809 

-------
TIMINGS
-------

Total SCF time: 0 days 0 hours 0 min 43 sec 

Total time                  ....      43.005 sec
Sum of individual times     ....      42.369 sec  ( 98.5%)

Fock matrix formation       ....      36.178 sec  ( 84.1%)
  XC integration            ....       4.772 sec  ( 13.2% of F)
    Basis function eval.    ....       0.813 sec  ( 17.0% of XC)
    Density eval.           ....       1.481 sec  ( 31.0% of XC)
    XC-Functional eval.     ....       0.049 sec  (  1.0% of XC)
    XC-Potential eval.      ....       1.962 sec  ( 41.1% of XC)
Diagonalization             ....       1.421 sec  (  3.3%)
Density matrix formation    ....       0.100 sec  (  0.2%)
Population analysis         ....       0.089 sec  (  0.2%)
Initial guess               ....       2.910 sec  (  6.8%)
Orbital Transformation      ....       0.000 sec  (  0.0%)
Orbital Orthonormalization  ....       0.000 sec  (  0.0%)
DIIS solution               ....       0.889 sec  (  2.1%)
Grid generation             ....       0.782 sec  (  1.8%)


           ************************************************************
           *        Program running with 24 parallel MPI-processes    *
           *              working on a common directory               *
           ************************************************************

------------------------------------------------------------------------------
                                ORCA  MP2 
------------------------------------------------------------------------------

Freezing NCore=30 chemical core electrons

-------------
RI-MP2 ENERGY
-------------
Dimension of the basis                    ...  664
Memory devoted to MP2                     ... 5000 MB   
Data format for buffers                   ... DOUBLE
Compression type for matrix containers    ... UNCOMPRESSED
Overall scaling of the MP2 energy         ...   2.700e-01
Calculating two index integrals           ... done (    0.026 sec)
Cholesky decomposition of V**-1           ... done (    0.286 sec)

-----------------
RI-TRANSFORMATION (AUX index driven)
-----------------

Dimension of the orbital-basis         ... 664
Dimension of the aux-basis             ... 1664
Transformation of internal/external MOs...   15-  49 to   50- 663
Number Format for Storage              ... Double (8 Byte)
Integral mode                          ... Direct

First Phase: integral generation and transformation of MO indices
  Aux angular momentum 0               ... done (    0.088 sec)
  Aux angular momentum 1               ... done (    0.182 sec)
  Aux angular momentum 2               ... done (    0.286 sec)
  Aux angular momentum 3               ... done (    0.223 sec)
  Aux angular momentum 4               ... done (    0.090 sec)
  Aux angular momentum 5               ... done (    0.113 sec)
  Aux angular momentum 6               ... done (    0.145 sec)
Closing buffer VIA ( 0.27 GB; CompressionRatio= 1.00)
  Phase 1 completed in     1.231 sec
Second Phase: sorting and transformation of aux index

IA-Transformation
Memory available                       ... 4944 MB 
Max. # MO pairs treated in a batch     ... 2    
# of internal orbitals                 ... 35
# batches for internal orbitals        ... 1
Closing buffer IAV ( 0.02 GB; CompressionRatio= 1.00)
(ia|v) transformation done in     0.212 sec

  Phase 2 completed in     0.535 sec
RI-Integral transformation completed in     1.777 sec
Opening buffers                              ... done

Starting loop over batches of integrals:

Operator 0  - window                       ... ( 15- 49)x( 50-663)
Operator 0  - Memory available             ...  5000 MB
Operator 0  - Memory needed per MO         ...   7.8 MB
Operator 0  - Number of orbitals per batch ... 2
Operator 0  - Number of batches            ... 1

OPERATOR  0   PASS   0:  MOs    15 ...   16 +   17 ...   18 +   19 ...   20 +   21 ...   22
                            +   23 ...   24 +   25 ...   26 +   27 ...   28 +   29 ...   30
                            +   31 ...   32 +   33 ...   34 +   35 ...   36 +   37 ...   38
                            +   39 ...   40 +   41 ...   42 +   43 ...   44 +   45 ...   46
                            +   47 ...   48 +   49 ...   49
  Reading integrals       ... ok
Time spent in pair loops =     0.186 sec
Deleting buffer (Ka|jb)[aa] ...done

-----------------------------------------------
 RI-MP2 CORRELATION ENERGY:     -0.730410248 Eh
-----------------------------------------------


-------
TIMINGS
-------

Total time                :    4.010 sec
Integral trafo            :    1.793 sec ( 44.7%)
I/O of integrals          :    0.017 sec (  0.4%)
K(i,j) Operators          :    0.123 sec (  3.1%)
T(i,j) pair energies      :    0.019 sec (  0.5%)
V-calculation             :    0.026 sec (  0.6%)
V**(-1/2)                 :    0.286 sec (  7.1%)
Gamma(ia|P)               :    0.000 sec (  0.0%)
Gamma-Trafo               :    0.000 sec (  0.0%)
D(virtual)                :    0.000 sec (  0.0%)
D(internal)               :    0.000 sec (  0.0%)
W(virtual)                :    0.000 sec (  0.0%)
W(internal)               :    0.000 sec (  0.0%)
L(virtual)                :    0.000 sec (  0.0%)
L(internal)               :    0.000 sec (  0.0%)
G(D)                      :    0.000 sec (  0.0%)
G(Z)                      :    0.000 sec (  0.0%)
Z-Vector Solution         :    0.000 sec (  0.0%)
Z-Vector Solution         :    0.000 sec (  0.0%)
3-Index Derivative 
+ Separable RIJ part      :    0.000 sec (  0.0%)
2-Index Derivative 
+ Separable RIJ part      :    0.000 sec (  0.0%)
Separable Gradient (X)    :    0.000 sec (  0.0%)


---------------------------------------
MP2 TOTAL ENERGY:     -894.679325464 Eh
---------------------------------------


-------------------------------------------------------------------------------
                          DFT DISPERSION CORRECTION                            
                                                                               
                              DFTD3 V3.1  Rev 1                                
                          USING Becke-Johnson damping                          
-------------------------------------------------------------------------------
The B2PLYP functional is recognized
Active option DFTDOPT                   ...         4   

molecular C6(AA) [au] = 8519.288746 


            DFT-D V3
 parameters
 s6 scaling factor         :     0.6400 
 a1 scaling factor         :     0.3065 
 s8 scaling factor         :     0.9147 
 a2 scaling factor         :     5.0570 
 ad hoc parameters k1-k3   :    16.0000     1.3333    -4.0000 

 Edisp/kcal,au: -18.071992997420  -0.028799550950 
 E6   /kcal   :  -8.717843903 
 E8   /kcal   :  -9.354149095 
 % E8         :  51.760473215 

-------------------------   ----------------
Dispersion correction           -0.028799551
-------------------------   ----------------


-------------------------   --------------------
FINAL SINGLE POINT ENERGY      -894.708125014718
-------------------------   --------------------


                            ***************************************
                            *     ORCA property calculations      *
                            ***************************************


  WARNING: The energy has been calculated at the MP2 level but the densities
           used in the property calculations are still SCF densities
           MP2 response densities have not been calculated 
           use %mp2 Density relaxed end
           or  %mp2 Density unrelaxed end

                                    ---------------------
                                    Active property flags
                                    ---------------------
   (+) Dipole Moment


------------------------------------------------------------------------------
                       ORCA ELECTRIC PROPERTIES CALCULATION
------------------------------------------------------------------------------

Dipole Moment Calculation                       ... on
Quadrupole Moment Calculation                   ... off
Polarizability Calculation                      ... off
GBWName                                         ... TMB01_R1.gbw
Electron density file                           ... TMB01_R1.scfp
The origin for moment calculation is the CENTER OF MASS  = ( 0.000249,  0.084418 -0.012618)

-------------
DIPOLE MOMENT
-------------
                                X             Y             Z
Electronic contribution:     -0.01705      13.01776     -12.56901
Nuclear contribution   :      0.01059     -14.41688      13.08524
                        -----------------------------------------
Total Dipole Moment    :     -0.00645      -1.39911       0.51623
                        -----------------------------------------
Magnitude (a.u.)       :      1.49132
Magnitude (Debye)      :      3.79065



--------------------
Rotational spectrum 
--------------------
 
Rotational constants in cm-1:     0.033538     0.025044     0.018059 
Rotational constants in MHz :  1005.445647   750.792016   541.402542 

 Dipole components along the rotational axes: 
x,y,z [a.u.] :    -0.006996    -1.400312     0.512959 
x,y,z [Debye]:    -0.017782    -3.559311     1.303838 

 

Timings for individual modules:

Sum of individual times         ...       50.859 sec (=   0.848 min)
GTO integral calculation        ...        2.903 sec (=   0.048 min)   5.7 %
SCF iterations                  ...       43.362 sec (=   0.723 min)  85.3 %
MP2 module                      ...        4.594 sec (=   0.077 min)   9.0 %
                             ****ORCA TERMINATED NORMALLY****
TOTAL RUN TIME: 0 days 0 hours 0 minutes 51 seconds 434 msec
