
                                 *****************
                                 * O   R   C   A *
                                 *****************

           --- An Ab Initio, DFT and Semiempirical electronic structure package ---

                  #######################################################
                  #                        -***-                        #
                  #          Department of theory and spectroscopy      #
                  #               Directorship: Frank Neese             #
                  #        Max Planck Institute fuer Kohlenforschung    #
                  #                Kaiser Wilhelm Platz 1               #
                  #                 D-45470 Muelheim/Ruhr               #
                  #                      Germany                        #
                  #                                                     #
                  #                  All rights reserved                #
                  #                        -***-                        #
                  #######################################################


                         Program Version 4.2.0 -  RELEASE  -


 With contributions from (in alphabetic order):
   Daniel Aravena         : Magnetic Suceptibility
   Michael Atanasov       : Ab Initio Ligand Field Theory (pilot matlab implementation)
   Alexander A. Auer      : GIAO ZORA, VPT2
   Ute Becker             : Parallelization
   Giovanni Bistoni       : ED, misc. LED, open-shell LED, HFLED
   Martin Brehm           : Molecular dynamics
   Dmytro Bykov           : SCF Hessian
   Vijay G. Chilkuri      : MRCI spin determinant printing, contributions to CSF-ICE
   Dipayan Datta          : RHF DLPNO-CCSD density
   Achintya Kumar Dutta   : EOM-CC, STEOM-CC
   Dmitry Ganyushin       : Spin-Orbit,Spin-Spin,Magnetic field MRCI
   Miquel Garcia          : C-PCM Hessian, Gaussian charge scheme
   Yang Guo               : DLPNO-NEVPT2, CIM, IAO-localization
   Andreas Hansen         : Spin unrestricted coupled pair/coupled cluster methods
   Benjamin Helmich-Paris : CASSCF linear response (MC-RPA)
   Lee Huntington         : MR-EOM, pCC
   Robert Izsak           : Overlap fitted RIJCOSX, COSX-SCS-MP3, EOM
   Christian Kollmar      : KDIIS, OOCD, Brueckner-CCSD(T), CCSD density
   Simone Kossmann        : Meta GGA functionals, TD-DFT gradient, OOMP2, MP2 Hessian
   Martin Krupicka        : AUTO-CI
   Lucas Lang             : DCDCAS
   Dagmar Lenk            : GEPOL surface, SMD
   Dimitrios Liakos       : Extrapolation schemes; Compound Job, initial MDCI parallelization
   Dimitrios Manganas     : Further ROCIS development; embedding schemes
   Dimitrios Pantazis     : SARC Basis sets
   Taras Petrenko         : DFT Hessian,TD-DFT gradient, ASA, ECA, R-Raman, ABS, FL, XAS/XES, NRVS
   Peter Pinski           : DLPNO-MP2, DLPNO-MP2 Gradient
   Christoph Reimann      : Effective Core Potentials
   Marius Retegan         : Local ZFS, SOC
   Christoph Riplinger    : Optimizer, TS searches, QM/MM, DLPNO-CCSD(T), (RO)-DLPNO pert. Triples
   Tobias Risthaus        : Range-separated hybrids, TD-DFT gradient, RPA, STAB
   Michael Roemelt        : Original ROCIS implementation
   Masaaki Saitow         : Open-shell DLPNO-CCSD energy and density
   Barbara Sandhoefer     : DKH picture change effects
   Avijit Sen             : IP-ROCIS
   Kantharuban Sivalingam : CASSCF convergence, NEVPT2, FIC-MRCI
   Bernardo de Souza      : ESD, SOC TD-DFT
   Georgi Stoychev        : AutoAux, RI-MP2 NMR
   Willem Van den Heuvel  : Paramagnetic NMR
   Boris Wezisla          : Elementary symmetry handling
   Frank Wennmohs         : Technical directorship


 We gratefully acknowledge several colleagues who have allowed us to
 interface, adapt or use parts of their codes:
   Stefan Grimme, W. Hujo, H. Kruse,             : VdW corrections, initial TS optimization,
                  C. Bannwarth                     DFT functionals, gCP, sTDA/sTD-DF
   Ed Valeev, F. Pavosevic, A. Kumar             : LibInt (2-el integral package), F12 methods
   Garnet Chan, S. Sharma, J. Yang, R. Olivares  : DMRG
   Ulf Ekstrom                                   : XCFun DFT Library
   Mihaly Kallay                                 : mrcc  (arbitrary order and MRCC methods)
   Andreas Klamt, Michael Diedenhofen            : otool_cosmo (COSMO solvation model)
   Jiri Pittner, Ondrej Demel                    : Mk-CCSD
   Frank Weinhold                                : gennbo (NPA and NBO analysis)
   Christopher J. Cramer and Donald G. Truhlar   : smd solvation model
   Lars Goerigk                                  : TD-DFT with DH, B97 family of functionals
   V. Asgeirsson, H. Jonsson                     : NEB implementation
   FAccTs GmbH                                   : IRC, NEB, NEB-TS, Multilevel, MM, QM/MM, CI optimization
   S Lehtola, MJT Oliveira, MAL Marques          : LibXC Library


 Your calculation uses the libint2 library for the computation of 2-el integrals
 For citations please refer to: http://libint.valeyev.net

 Your ORCA version has been built with support for libXC version: 4.2.3
 For citations please refer to: https://tddft.org/programs/libxc/

 This ORCA versions uses:
   CBLAS   interface :  Fast vector & matrix operations
   LAPACKE interface :  Fast linear algebra routines
   SCALAPACK package :  Parallel linear algebra routines


Your calculation utilizes the atom-pairwise dispersion correction
with the Becke-Johnson damping scheme (D3BJ)
Cite in your paper:
S.Grimme, S.Ehrlich, L.Goerigk, J Comput Chem, (2011), 32, 1456–1465 
S.Grimme, J.Antony, S.Ehrlich and H.Krieg, J.Chem.Phys., 132, (2010), 154104 
   

----- Orbital basis set information -----
Your calculation utilizes the basis: def2-TZVPPD
   F. Weigend and R. Ahlrichs, Phys. Chem. Chem. Phys. 7, 3297 (2005).
   D. Rappoport and F. Furche, J. Chem. Phys. 133 134105 (2010).

----- AuxC basis set information -----
Your calculation utilizes the auxiliary basis: def2-TZVPPD/C
   A. Hellweg, C. Hattig, S. Hofener and W. Klopper, Theor. Chem. Acc. 117, 587 (2007).

----- AuxJK basis set information -----
Your calculation utilizes the auxiliary basis: def2/JK
   H-Ba, Hf-Rn: F. Weigend, J. Comput. Chem. 29, 167 (2008).

cite the ECPs for Mo [Def2-ECP] as follows:
Ce-Yb(ecp-28): M. Dolg, H. Stoll, H.Preuss, J. Chem. Phys., 1989, 90, 1730-1734.
Y-Cd(ecp-28), Hf-Hg(ecp-46): D. Andrae,U. Haeussermann, M. Dolg, H. Stoll, H. Preuss, Theor. Chim. Acta, 1990, 77, 123-141.
In-Sb(ecp-28), Tl-Bi(ecp-46): B. Metz, H. Stoll, M. Dolg, J. Chem. Phys., 2000, 113, 2563-2569.
Te-Xe(ecp-28), Po-Rn(ecp-46): K. A. Peterson, D. Figgen, E. Goll, H. Stoll, M. Dolg, J. Chem. Phys., 2003, 119, 11113-11123.
Rb(ecp-28), Cs(ecp-46): T. Leininger, A. Nicklass, W. Kuechle, H. Stoll, M. Dolg, A. Bergner, Chem. Phys. Lett., 1996, 255, 274-280.
Sr(ecp-28), Ba(ecp-46): M. Kaupp, P. V. Schleyer, H. Stoll and H. Preuss, J. Chem. Phys., 1991, 94, 1360-1366.
La(ecp-46): M. Dolg, H. Stoll, A. Savin, H. Preuss, Theor. Chim. Acta, 1989, 75, 173-194.
Lu(ecp-28): X. Cao, M. Dolg, J. Chem. Phys., 2001, 115, 7348-7355.

ECP parameters for Mo [Def2-ECP] have been obtained from:
TURBOMOLE (7.0.2)

================================================================================
                                        WARNINGS
                       Please study these warnings very carefully!
================================================================================


WARNING: No MP2 level density has been requested!
         To caclulate MP2 level properties use
         %mp2 Density relaxed end
         or
         %mp2 Density unrelaxed end
         Otherwise for double-hybrid DFT only the energy is correct!

WARNING: The frozen-core approximation is turned on by default for 
         the MP2 part of double-hybrid DFT.

INFO   : the flag for use of LIBINT has been found!

================================================================================
                                       INPUT FILE
================================================================================
NAME = TMB10_C1.in
|  1> #
|  2> # TMB10_C1 ri-B2PLYP-D3BJ/Def2-TZVPPD
|  3> #
|  4> ! rijk ri-b2plyp d3bj def2-tzvppd def2/jk def2-tzvppd/c grid4 nofinalgrid
|  5> 
|  6> *xyz 0 1
|  7> Mo       0.133298    0.019814    0.066207 
|  8> C       -1.075332   -1.355629   -0.909336 
|  9> C       -2.072844    2.216315    0.675821 
| 10> H       -2.495915    2.026095    1.680930 
| 11> H       -2.910608    2.260759   -0.044542 
| 12> H       -1.592380    3.211696    0.695601 
| 13> C        3.010907   -1.316541   -0.054396 
| 14> C        1.366704    2.705574   -0.540684 
| 15> N       -1.143030    1.200231    0.316847 
| 16> O        1.491405    1.304940   -0.439122 
| 17> O        1.615447   -1.247555   -0.063202 
| 18> H        3.367194   -2.025819   -0.825669 
| 19> H        3.385726   -1.672276    0.926079 
| 20> H        3.451946   -0.322838   -0.260301 
| 21> H        2.294131    3.111318   -0.982908 
| 22> H        1.229038    3.178184    0.450904 
| 23> H        0.520365    2.998986   -1.190253 
| 24> C       -0.462062   -1.067727    1.747714 
| 25> C       -1.245054   -1.851214    0.615257 
| 26> H        0.321659   -1.674412    2.211474 
| 27> H       -1.131198   -0.604236    2.478956 
| 28> H       -0.901967   -2.892720    0.638908 
| 29> H       -2.316994   -1.775934    0.836451 
| 30> C       -2.372818   -1.072037   -1.638655 
| 31> H       -2.166926   -0.639290   -2.630957 
| 32> H       -2.958163   -1.996472   -1.801781 
| 33> H       -3.005382   -0.361002   -1.085358 
| 34> H       -0.439666   -2.067375   -1.451890 
| 35> *
| 36> 
| 37> %maxcore 5000
| 38> 
| 39> %pal
| 40> nprocs = 24
| 41> end
| 42> 
| 43> 
| 44>                          ****END OF INPUT****
================================================================================

                       ****************************
                       * Single Point Calculation *
                       ****************************

---------------------------------
CARTESIAN COORDINATES (ANGSTROEM)
---------------------------------
  Mo     0.133298    0.019814    0.066207
  C     -1.075332   -1.355629   -0.909336
  C     -2.072844    2.216315    0.675821
  H     -2.495915    2.026095    1.680930
  H     -2.910608    2.260759   -0.044542
  H     -1.592380    3.211696    0.695601
  C      3.010907   -1.316541   -0.054396
  C      1.366704    2.705574   -0.540684
  N     -1.143030    1.200231    0.316847
  O      1.491405    1.304940   -0.439122
  O      1.615447   -1.247555   -0.063202
  H      3.367194   -2.025819   -0.825669
  H      3.385726   -1.672276    0.926079
  H      3.451946   -0.322838   -0.260301
  H      2.294131    3.111318   -0.982908
  H      1.229038    3.178184    0.450904
  H      0.520365    2.998986   -1.190253
  C     -0.462062   -1.067727    1.747714
  C     -1.245054   -1.851214    0.615257
  H      0.321659   -1.674412    2.211474
  H     -1.131198   -0.604236    2.478956
  H     -0.901967   -2.892720    0.638908
  H     -2.316994   -1.775934    0.836451
  C     -2.372818   -1.072037   -1.638655
  H     -2.166926   -0.639290   -2.630957
  H     -2.958163   -1.996472   -1.801781
  H     -3.005382   -0.361002   -1.085358
  H     -0.439666   -2.067375   -1.451890

----------------------------
CARTESIAN COORDINATES (A.U.)
----------------------------
  NO LB      ZA    FRAG     MASS         X           Y           Z
   0 Mo   14.0000*   0    95.940    0.251897    0.037443    0.125113
   1 C     6.0000    0    12.011   -2.032083   -2.561768   -1.718396
   2 C     6.0000    0    12.011   -3.917107    4.188228    1.277117
   3 H     1.0000    0     1.008   -4.716596    3.828765    3.176497
   4 H     1.0000    0     1.008   -5.500252    4.272215   -0.084172
   5 H     1.0000    0     1.008   -3.009162    6.069226    1.314495
   6 C     6.0000    0    12.011    5.689790   -2.487902   -0.102794
   7 C     6.0000    0    12.011    2.582696    5.112794   -1.021745
   8 N     7.0000    0    14.007   -2.160014    2.268108    0.598754
   9 O     8.0000    0    15.999    2.818347    2.465979   -0.829820
  10 O     8.0000    0    15.999    3.052752   -2.357537   -0.119434
  11 H     1.0000    0     1.008    6.363074   -3.828243   -1.560288
  12 H     1.0000    0     1.008    6.398095   -3.160144    1.750036
  13 H     1.0000    0     1.008    6.523233   -0.610075   -0.491898
  14 H     1.0000    0     1.008    4.335279    5.879539   -1.857427
  15 H     1.0000    0     1.008    2.322545    6.005897    0.852085
  16 H     1.0000    0     1.008    0.983347    5.667262   -2.249252
  17 C     6.0000    0    12.011   -0.873171   -2.017712    3.302701
  18 C     6.0000    0    12.011   -2.352811   -3.498287    1.162667
  19 H     1.0000    0     1.008    0.607847   -3.164180    4.179080
  20 H     1.0000    0     1.008   -2.137654   -1.141841    4.684548
  21 H     1.0000    0     1.008   -1.704471   -5.466449    1.207361
  22 H     1.0000    0     1.008   -4.378484   -3.356029    1.580663
  23 C     6.0000    0    12.011   -4.483976   -2.025856   -3.096609
  24 H     1.0000    0     1.008   -4.094897   -1.208083   -4.971788
  25 H     1.0000    0     1.008   -5.590118   -3.772785   -3.404873
  26 H     1.0000    0     1.008   -5.679349   -0.682195   -2.051029
  27 H     1.0000    0     1.008   -0.830848   -3.906773   -2.743674
* core charge reduced due to ECP

--------------------------------
INTERNAL COORDINATES (ANGSTROEM)
--------------------------------
 Mo     0   0   0     0.000000000000     0.00000000     0.00000000
 C      1   0   0     2.074684088722     0.00000000     0.00000000
 C      1   2   0     3.172271803639    98.29456620     0.00000000
 H      3   1   2     1.106985465723   108.74102463    92.69266755
 H      3   1   2     1.105778748485   115.43747831   331.19027959
 H      3   1   2     1.105450242597   108.94372887   209.85488644
 C      1   2   3     3.175062727965   103.36110048   181.64823661
 C      1   2   3     3.017103548822   137.19978424   286.19854118
 N      3   1   2     1.423321152210     4.38134315   333.17452790
 O      8   1   2     1.409837147050    30.37903240   259.98599389
 O      7   1   2     1.397191907159    22.22067493   336.78326411
 H      7   1   2     1.106741951939   126.01324172    27.05109146
 H      7   1   2     1.108317598259   114.07889527   249.85517273
 H      7   1   2     1.106507081204    89.44599846   139.72946131
 H      8   1   2     1.104676921114   138.65053671   270.82316892
 H      8   1   2     1.107049638182    98.57003264   141.03839815
 H      8   1   2     1.106490031779    92.37551712    31.91418934
 C      1   2   3     2.089178007574    82.37615184    89.32498886
 C     18   1   2     1.584104544556    79.80105094   359.71691848
 H     18   1   2     1.094238837122   115.19051274   109.90954668
 H     18   1   2     1.094203708704   119.44893680   249.37436082
 H     19  18   1     1.096814846456   107.43504765   120.42979688
 H     19  18   1     1.097109487533   107.75042130   240.68232249
 C      2   1   3     1.515189937408   126.94907926    24.54720094
 H     24   2   1     1.101964037924   110.30047969    78.11799138
 H     24   2   1     1.106263499410   111.57189096   197.03914906
 H     24   2   1     1.100838569242   111.77864785   318.15131080
 H      2   1   3     1.097733335099   108.96011104   164.03607313

---------------------------
INTERNAL COORDINATES (A.U.)
---------------------------
 Mo     0   0   0     0.000000000000     0.00000000     0.00000000
 C      1   0   0     3.920584742089     0.00000000     0.00000000
 C      1   2   0     5.994724931238    98.29456620     0.00000000
 H      3   1   2     2.091899364448   108.74102463    92.69266755
 H      3   1   2     2.089618999347   115.43747831   331.19027959
 H      3   1   2     2.088998213184   108.94372887   209.85488644
 C      1   2   3     5.999999013875   103.36110048   181.64823661
 C      1   2   3     5.701499424956   137.19978424   286.19854118
 N      3   1   2     2.689687178294     4.38134315   333.17452790
 O      8   1   2     2.664206101353    30.37903240   259.98599389
 O      7   1   2     2.640310061063    22.22067493   336.78326411
 H      7   1   2     2.091439190086   126.01324172    27.05109146
 H      7   1   2     2.094416730115   114.07889527   249.85517273
 H      7   1   2     2.090995348720    89.44599846   139.72946131
 H      8   1   2     2.087536847368   138.65053671   270.82316892
 H      8   1   2     2.092020632822    98.57003264   141.03839815
 H      8   1   2     2.090963129976    92.37551712    31.91418934
 C      1   2   3     3.947974279326    82.37615184    89.32498886
 C     18   1   2     2.993523756710    79.80105094   359.71691848
 H     18   1   2     2.067811727261   115.19051274   109.90954668
 H     18   1   2     2.067745344171   119.44893680   249.37436082
 H     19  18   1     2.072679679420   107.43504765   120.42979688
 H     19  18   1     2.073236470365   107.75042130   240.68232249
 C      2   1   3     2.863294022573   126.94907926    24.54720094
 H     24   2   1     2.082410241106   110.30047969    78.11799138
 H     24   2   1     2.090535045838   111.57189096   197.03914906
 H     24   2   1     2.080283413524   111.77864785   318.15131080
 H      2   1   3     2.074415371413   108.96011104   164.03607313

---------------------
BASIS SET INFORMATION
---------------------
There are 5 groups of distinct atoms

 Group   1 Type Mo  : 7s7p5d2f1g contracted to 6s4p3d2f1g pattern {211111/4111/311/11/1}
 Group   2 Type C   : 12s6p3d1f contracted to 6s3p3d1f pattern {621111/411/111/1}
 Group   3 Type H   : 5s3p1d contracted to 3s3p1d pattern {311/111/1}
 Group   4 Type N   : 12s6p3d1f contracted to 6s3p3d1f pattern {621111/411/111/1}
 Group   5 Type O   : 12s7p3d1f contracted to 6s4p3d1f pattern {621111/4111/111/1}

Atom   0Mo   basis set group =>   1
Atom   1C    basis set group =>   2
Atom   2C    basis set group =>   2
Atom   3H    basis set group =>   3
Atom   4H    basis set group =>   3
Atom   5H    basis set group =>   3
Atom   6C    basis set group =>   2
Atom   7C    basis set group =>   2
Atom   8N    basis set group =>   4
Atom   9O    basis set group =>   5
Atom  10O    basis set group =>   5
Atom  11H    basis set group =>   3
Atom  12H    basis set group =>   3
Atom  13H    basis set group =>   3
Atom  14H    basis set group =>   3
Atom  15H    basis set group =>   3
Atom  16H    basis set group =>   3
Atom  17C    basis set group =>   2
Atom  18C    basis set group =>   2
Atom  19H    basis set group =>   3
Atom  20H    basis set group =>   3
Atom  21H    basis set group =>   3
Atom  22H    basis set group =>   3
Atom  23C    basis set group =>   2
Atom  24H    basis set group =>   3
Atom  25H    basis set group =>   3
Atom  26H    basis set group =>   3
Atom  27H    basis set group =>   3
---------------------------------
AUXILIARY/C BASIS SET INFORMATION
---------------------------------
There are 5 groups of distinct atoms

 Group   1 Type Mo  : 8s7p6d5f4g3h1i contracted to 8s7p6d5f4g3h1i pattern {11111111/1111111/111111/11111/1111/111/1}
 Group   2 Type C   : 9s7p6d4f1g contracted to 9s7p5d4f1g pattern {111111111/1111111/21111/1111/1}
 Group   3 Type H   : 5s4p3d1f contracted to 5s4p3d1f pattern {11111/1111/111/1}
 Group   4 Type N   : 9s7p6d4f1g contracted to 9s7p5d4f1g pattern {111111111/1111111/21111/1111/1}
 Group   5 Type O   : 9s7p6d4f1g contracted to 9s7p5d4f1g pattern {111111111/1111111/21111/1111/1}

Atom   0Mo   basis set group =>   1
Atom   1C    basis set group =>   2
Atom   2C    basis set group =>   2
Atom   3H    basis set group =>   3
Atom   4H    basis set group =>   3
Atom   5H    basis set group =>   3
Atom   6C    basis set group =>   2
Atom   7C    basis set group =>   2
Atom   8N    basis set group =>   4
Atom   9O    basis set group =>   5
Atom  10O    basis set group =>   5
Atom  11H    basis set group =>   3
Atom  12H    basis set group =>   3
Atom  13H    basis set group =>   3
Atom  14H    basis set group =>   3
Atom  15H    basis set group =>   3
Atom  16H    basis set group =>   3
Atom  17C    basis set group =>   2
Atom  18C    basis set group =>   2
Atom  19H    basis set group =>   3
Atom  20H    basis set group =>   3
Atom  21H    basis set group =>   3
Atom  22H    basis set group =>   3
Atom  23C    basis set group =>   2
Atom  24H    basis set group =>   3
Atom  25H    basis set group =>   3
Atom  26H    basis set group =>   3
Atom  27H    basis set group =>   3
----------------------------------
AUXILIARY/JK BASIS SET INFORMATION
----------------------------------
There are 5 groups of distinct atoms

 Group   1 Type Mo  : 13s12p10d9f6g3h2i contracted to 11s10p9d8f6g3h2i pattern {31111111111/3111111111/211111111/21111111/111111/111/11}
 Group   2 Type C   : 14s10p6d2f1g contracted to 10s8p5d1f1g pattern {5111111111/31111111/21111/2/1}
 Group   3 Type H   : 4s2p2d contracted to 2s2p2d pattern {31/11/11}
 Group   4 Type N   : 14s10p6d2f1g contracted to 10s8p4d2f1g pattern {5111111111/31111111/3111/11/1}
 Group   5 Type O   : 14s10p6d2f1g contracted to 10s8p4d2f1g pattern {5111111111/31111111/3111/11/1}

Atom   0Mo   basis set group =>   1
Atom   1C    basis set group =>   2
Atom   2C    basis set group =>   2
Atom   3H    basis set group =>   3
Atom   4H    basis set group =>   3
Atom   5H    basis set group =>   3
Atom   6C    basis set group =>   2
Atom   7C    basis set group =>   2
Atom   8N    basis set group =>   4
Atom   9O    basis set group =>   5
Atom  10O    basis set group =>   5
Atom  11H    basis set group =>   3
Atom  12H    basis set group =>   3
Atom  13H    basis set group =>   3
Atom  14H    basis set group =>   3
Atom  15H    basis set group =>   3
Atom  16H    basis set group =>   3
Atom  17C    basis set group =>   2
Atom  18C    basis set group =>   2
Atom  19H    basis set group =>   3
Atom  20H    basis set group =>   3
Atom  21H    basis set group =>   3
Atom  22H    basis set group =>   3
Atom  23C    basis set group =>   2
Atom  24H    basis set group =>   3
Atom  25H    basis set group =>   3
Atom  26H    basis set group =>   3
Atom  27H    basis set group =>   3
-------------------------
ECP PARAMETER INFORMATION
-------------------------

 Group 1, Type Mo ECP Def2-ECP (replacing 28 core electrons, lmax=3)

Atom   0Mo   ECP group =>   1



           ************************************************************
           *        Program running with 24 parallel MPI-processes    *
           *              working on a common directory               *
           ************************************************************
------------------------------------------------------------------------------
                           ORCA GTO INTEGRAL CALCULATION
                           -- RI-GTO INTEGRALS CHOSEN --
------------------------------------------------------------------------------

                         BASIS SET STATISTICS AND STARTUP INFO

Gaussian basis set:
 # of primitive gaussian shells          ...  397
 # of primitive gaussian functions       ...  925
 # of contracted shells                  ...  267
 # of contracted basis functions         ...  721
 Highest angular momentum                ...    4
 Maximum contraction depth               ...    6
Auxiliary gaussian basis set:
 # of primitive gaussian shells          ...  521
 # of primitive gaussian functions       ... 1585
 # of contracted shells                  ...  401
 # of contracted aux-basis functions     ... 1317
 Highest angular momentum                ...    6
 Maximum contraction depth               ...    5
Ratio of auxiliary to basis functions    ...  1.83
Integral package used                  ... LIBINT
 One Electron integrals                  
   ECP integrals                         ... done
 Ordering auxiliary basis shells         ... done
 Integral threshhold             Thresh  ...  1.000e-10
 Primitive cut-off               TCut    ...  1.000e-11
 Pre-screening matrix                    ... done
 Shell pair data                         ... 
 Ordering of the shell pairs             ... done (   0.005 sec) 30774 of 35778 pairs
 Determination of significant pairs      ... done (   0.000 sec)
 Creation of shell pair data             ... done (   0.003 sec)
 Storage of shell pair data              ... done (   0.008 sec)
 Shell pair data done in (   0.016 sec)
 Computing two index integrals           ... done
 Cholesky decomposition of the V-matrix  ... done


Timings:
 Total evaluation time                   ...   3.137 sec (  0.052 min)
 One electron matrix time                ...   2.640 sec (  0.044 min) = 84.2%
 Schwartz matrix evaluation time         ...   0.261 sec (  0.004 min) =  8.3%
 Two index repulsion integral time       ...   0.092 sec (  0.002 min) =  2.9%
 Cholesky decomposition of V             ...   0.099 sec (  0.002 min) =  3.1%
 Three index repulsion integral time     ...   0.000 sec (  0.000 min) =  0.0%



           ************************************************************
           *        Program running with 24 parallel MPI-processes    *
           *              working on a common directory               *
           ************************************************************
-------------------------------------------------------------------------------
                                 ORCA SCF
-------------------------------------------------------------------------------

------------
SCF SETTINGS
------------
Hamiltonian:
 Density Functional     Method          .... DFT(GTOs)
 Exchange Functional    Exchange        .... B88
   X-Alpha parameter    XAlpha          ....  0.666667
   Becke's b parameter  XBeta           ....  0.004200
 Correlation Functional Correlation     .... LYP
 LDA part of GGA corr.  LDAOpt          .... VWN-3
 Gradients option       PostSCFGGA      .... off
 Hybrid DFT is turned on
   Fraction HF Exchange ScalHFX         ....  0.530000
   Scaling of DF-GGA-X  ScalDFX         ....  0.470000
   Scaling of DF-GGA-C  ScalDFC         ....  0.730000
   Scaling of DF-LDA-C  ScalLDAC        ....  0.730000
   Perturbative correction              ....  0.270000
   Density functional embedding theory  .... OFF
 RI-approximation to the Coulomb term is turned on
   Number of auxiliary basis functions  .... 1317
   RI-JK (J+K treated both via RI)      .... on


General Settings:
 Integral files         IntName         .... TMB10_C1
 Hartree-Fock type      HFTyp           .... RHF
 Total Charge           Charge          ....    0
 Multiplicity           Mult            ....    1
 Number of Electrons    NEL             ....   96
 Basis Dimension        Dim             ....  721
 Nuclear Repulsion      ENuc            ....    780.1064985801 Eh

Convergence Acceleration:
 DIIS                   CNVDIIS         .... on
   Start iteration      DIISMaxIt       ....    12
   Startup error        DIISStart       ....  0.200000
   # of expansion vecs  DIISMaxEq       ....     5
   Bias factor          DIISBfac        ....   1.050
   Max. coefficient     DIISMaxC        ....  10.000
 Newton-Raphson         CNVNR           .... off
 SOSCF                  CNVSOSCF        .... off
 Level Shifting         CNVShift        .... on
   Level shift para.    LevelShift      ....    0.2500
   Turn off err/grad.   ShiftErr        ....    0.0010
 Zerner damping         CNVZerner       .... off
 Static damping         CNVDamp         .... on
   Fraction old density DampFac         ....    0.7000
   Max. Damping (<1)    DampMax         ....    0.9800
   Min. Damping (>=0)   DampMin         ....    0.0000
   Turn off err/grad.   DampErr         ....    0.1000
 Fernandez-Rico         CNVRico         .... off

SCF Procedure:
 Maximum # iterations   MaxIter         ....   125
 SCF integral mode      SCFMode         .... Direct
   Integral package                     .... LIBINT
 Reset frequency        DirectResetFreq ....    20
 Integral Threshold     Thresh          ....  1.000e-10 Eh
 Primitive CutOff       TCut            ....  1.000e-11 Eh

Convergence Tolerance:
 Convergence Check Mode ConvCheckMode   .... Total+1el-Energy
 Convergence forced     ConvForced      .... 0
 Energy Change          TolE            ....  1.000e-06 Eh
 1-El. energy change                    ....  1.000e-03 Eh
 DIIS Error             TolErr          ....  1.000e-06


Diagonalization of the overlap matrix:
Smallest eigenvalue                        ... 2.823e-06
Time for diagonalization                   ...    0.083 sec
Threshold for overlap eigenvalues          ... 1.000e-08
Number of eigenvalues below threshold      ... 0
Time for construction of square roots      ...    0.071 sec
Total time needed                          ...    0.156 sec

-------------------
DFT GRID GENERATION
-------------------

General Integration Accuracy     IntAcc      ...  4.670
Radial Grid Type                 RadialGrid  ... Gauss-Chebyshev
Angular Grid (max. acc.)         AngularGrid ... Lebedev-302
Angular grid pruning method      GridPruning ... 3 (G Style)
Weight generation scheme         WeightScheme... Becke
Basis function cutoff            BFCut       ...    1.0000e-10
Integration weight cutoff        WCut        ...    1.0000e-14
Grids for H and He will be reduced by one unit

# of grid points (after initial pruning)     ... 130416 (   0.0 sec)
# of grid points (after weights+screening)   ... 115893 (   0.1 sec)
nearest neighbour list constructed           ...    0.0 sec
Grid point re-assignment to atoms done       ...    0.0 sec
Grid point division into batches done        ...    0.3 sec
Reduced shell lists constructed in    0.7 sec

Total number of grid points                  ...   115893
Total number of batches                      ...     1825
Average number of points per batch           ...       63
Average number of grid points per atom       ...     4139
Average number of shells per batch           ...   193.81 (72.59%)
Average number of basis functions per batch  ...   534.53 (74.14%)
Average number of large shells per batch     ...   152.10 (78.48%)
Average number of large basis fcns per batch ...   413.54 (77.37%)
Average number of aux-shells per batch       ...   193.81 (48.33%)
Average number of aux functions per batch    ...   534.53 (40.59%)
Maximum spatial batch extension              ...   2.24,  2.25,  2.19 au
Average spatial batch extension              ...   0.05,  0.05,  0.05 au

Time for grid setup =    0.855 sec

------------------------------
INITIAL GUESS: MODEL POTENTIAL
------------------------------
Loading Hartree-Fock densities                     ... done
  calling /sw/apps/orca/orca_4_2_0_linux_x86-64_openmpi314/orca TMB10_C1_atom42.inp > TMB10_C1_atom42.out in order to generate an atomic fitting density for atom 0 (Mo with ECP) on-the-fly... 
    atom 0 (Mo), assumed electronic state with S=5: 1s2 2s2 2p6 3s2 3p6 4s2 3d10 4p6 5s2 4d4           ... done
Calculating cut-offs                               ... done
Setting up the integral package                    ... done
Initializing the effective Hamiltonian             ... done
Starting the Coulomb interaction                   ... done (   0.1 sec)
Reading the grid                                   ... done
Mapping shells                                     ... done
Starting the XC term evaluation                    ... done (   0.3 sec)
  promolecular density results
     # of electrons  =    123.992484275
     EX              =   -183.767758955
     EC              =     -1.690293597
     EX+EC           =   -185.458052552
Transforming the Hamiltonian                       ... done (   0.0 sec)
Diagonalizing the Hamiltonian                      ... done (   0.1 sec)
Back transforming the eigenvectors                 ... done (   0.0 sec)
Now organizing SCF variables                       ... done
                      ------------------
                      INITIAL GUESS DONE (   3.2 sec)
                      ------------------
--------------
SCF ITERATIONS
--------------
ITER       Energy         Delta-E        Max-DP      RMS-DP      [F,P]     Damp
  0   -548.6187833221   0.000000000000 0.86306609  0.00225195  0.3428134 0.7000
  1   -548.4640580435   0.154725278564 0.40355433  0.00144986  0.2754624 0.7000
  2   -548.6019072087  -0.137849165132 0.30910773  0.00099678  0.2091722 0.7000
                               ***Turning on DIIS***
  3   -548.8661465296  -0.264239320989 0.46500244  0.00109385  0.1434726 0.7000
  4   -549.0965550389  -0.230408509234 0.97303469  0.00232077  0.0896397 0.0000
  5   -549.2261011900  -0.129546151106 0.18721512  0.00042762  0.1091990 0.7000
  6   -549.2326120198  -0.006510829777 0.60019219  0.00138210  0.0957136 0.0000
  7   -549.2854883613  -0.052876341519 0.02053064  0.00010606  0.0200954 0.0000
  8   -549.2865352862  -0.001046924892 0.01517214  0.00009421  0.0124703 0.0000
  9   -549.2869198463  -0.000384560135 0.01195537  0.00004082  0.0066564 0.0000
 10   -549.2871010445  -0.000181198151 0.01348716  0.00003819  0.0010177 0.0000
 11   -549.2871120874  -0.000011042911 0.01178392  0.00003250  0.0003081 0.0000
 12   -549.2871156379  -0.000003550502 0.01026581  0.00003821  0.0002859 0.0000
                 **** Energy Check signals convergence ****

               *****************************************************
               *                     SUCCESS                       *
               *           SCF CONVERGED AFTER  13 CYCLES          *
               *****************************************************


----------------
TOTAL SCF ENERGY
----------------

Total Energy       :         -549.28711643 Eh          -14946.86232 eV

Components:
Nuclear Repulsion  :          780.10649858 Eh           21227.77703 eV
Electronic Energy  :        -1329.39361501 Eh          -36174.63935 eV
One Electron Energy:        -2321.27060748 Eh          -63164.98448 eV
Two Electron Energy:          991.87699247 Eh           26990.34513 eV

Virial components:
Potential Energy   :        -1051.40254852 Eh          -28610.11786 eV
Kinetic Energy     :          502.11543209 Eh           13663.25553 eV
Virial Ratio       :            2.09394590


DFT components:
N(Alpha)           :       48.000114941286 electrons
N(Beta)            :       48.000114941286 electrons
N(Total)           :       96.000229882572 electrons
E(X)               :      -34.205365897221 Eh       
E(C)               :       -2.336145260250 Eh       
E(XC)              :      -36.541511157471 Eh       
DFET-embed. en.    :        0.000000000000 Eh       

---------------
SCF CONVERGENCE
---------------

  Last Energy change         ...   -7.8891e-07  Tolerance :   1.0000e-06
  Last MAX-Density change    ...    1.7589e-03  Tolerance :   1.0000e-05
  Last RMS-Density change    ...    7.9419e-06  Tolerance :   1.0000e-06
  Last DIIS Error            ...    1.0861e-04  Tolerance :   1.0000e-06

             **** THE GBW FILE WAS UPDATED (TMB10_C1.gbw) ****
             **** DENSITY FILE WAS UPDATED (TMB10_C1.scfp) ****
             **** ENERGY FILE WAS UPDATED (TMB10_C1.en.tmp) ****
             **** THE GBW FILE WAS UPDATED (TMB10_C1.gbw) ****
             **** DENSITY FILE WAS UPDATED (TMB10_C1.scfp) ****
----------------
ORBITAL ENERGIES
----------------

  NO   OCC          E(Eh)            E(eV) 
   0   2.0000     -19.693253      -535.8806 
   1   2.0000     -19.674767      -535.3776 
   2   2.0000     -14.840698      -403.8359 
   3   2.0000     -10.651884      -289.8525 
   4   2.0000     -10.645997      -289.6923 
   5   2.0000     -10.643879      -289.6347 
   6   2.0000     -10.632981      -289.3381 
   7   2.0000     -10.631096      -289.2868 
   8   2.0000     -10.622053      -289.0408 
   9   2.0000     -10.613404      -288.8054 
  10   2.0000      -2.835939       -77.1698 
  11   2.0000      -1.776015       -48.3278 
  12   2.0000      -1.770521       -48.1783 
  13   2.0000      -1.756437       -47.7951 
  14   2.0000      -1.097644       -29.8684 
  15   2.0000      -1.085690       -29.5431 
  16   2.0000      -0.962825       -26.1998 
  17   2.0000      -0.909603       -24.7515 
  18   2.0000      -0.835982       -22.7482 
  19   2.0000      -0.749835       -20.4041 
  20   2.0000      -0.745432       -20.2842 
  21   2.0000      -0.730762       -19.8850 
  22   2.0000      -0.718335       -19.5469 
  23   2.0000      -0.648343       -17.6423 
  24   2.0000      -0.556323       -15.1383 
  25   2.0000      -0.536238       -14.5918 
  26   2.0000      -0.528277       -14.3751 
  27   2.0000      -0.515324       -14.0227 
  28   2.0000      -0.510866       -13.9014 
  29   2.0000      -0.502268       -13.6674 
  30   2.0000      -0.500633       -13.6229 
  31   2.0000      -0.491687       -13.3795 
  32   2.0000      -0.487664       -13.2700 
  33   2.0000      -0.480513       -13.0754 
  34   2.0000      -0.475742       -12.9456 
  35   2.0000      -0.461635       -12.5617 
  36   2.0000      -0.451027       -12.2731 
  37   2.0000      -0.450430       -12.2568 
  38   2.0000      -0.412832       -11.2337 
  39   2.0000      -0.404212       -10.9992 
  40   2.0000      -0.372039       -10.1237 
  41   2.0000      -0.355591        -9.6761 
  42   2.0000      -0.346738        -9.4352 
  43   2.0000      -0.325507        -8.8575 
  44   2.0000      -0.319694        -8.6993 
  45   2.0000      -0.303901        -8.2696 
  46   2.0000      -0.294568        -8.0156 
  47   2.0000      -0.286781        -7.8037 
  48   0.0000      -0.003395        -0.0924 
  49   0.0000       0.009559         0.2601 
  50   0.0000       0.016281         0.4430 
  51   0.0000       0.023362         0.6357 
  52   0.0000       0.035491         0.9658 
  53   0.0000       0.043715         1.1896 
  54   0.0000       0.046140         1.2555 
  55   0.0000       0.052016         1.4154 
  56   0.0000       0.062636         1.7044 
  57   0.0000       0.067538         1.8378 
  58   0.0000       0.068831         1.8730 
  59   0.0000       0.079269         2.1570 
  60   0.0000       0.086760         2.3609 
  61   0.0000       0.089542         2.4366 
  62   0.0000       0.099825         2.7164 
  63   0.0000       0.104672         2.8483 
  64   0.0000       0.112283         3.0554 
  65   0.0000       0.114267         3.1094 
  66   0.0000       0.118792         3.2325 
  67   0.0000       0.120404         3.2764 
  68   0.0000       0.130416         3.5488 
  69   0.0000       0.135667         3.6917 
  70   0.0000       0.144372         3.9286 
  71   0.0000       0.147081         4.0023 
  72   0.0000       0.153573         4.1789 
  73   0.0000       0.159593         4.3427 
  74   0.0000       0.162397         4.4191 
  75   0.0000       0.169265         4.6059 
  76   0.0000       0.172515         4.6944 
  77   0.0000       0.177032         4.8173 
  78   0.0000       0.181703         4.9444 
  79   0.0000       0.184140         5.0107 
  80   0.0000       0.185301         5.0423 
  81   0.0000       0.192824         5.2470 
  82   0.0000       0.198700         5.4069 
  83   0.0000       0.204435         5.5630 
  84   0.0000       0.208926         5.6852 
  85   0.0000       0.215898         5.8749 
  86   0.0000       0.220515         6.0005 
  87   0.0000       0.224111         6.0984 
  88   0.0000       0.228593         6.2203 
  89   0.0000       0.235025         6.3954 
  90   0.0000       0.237283         6.4568 
  91   0.0000       0.238906         6.5010 
  92   0.0000       0.245597         6.6830 
  93   0.0000       0.247301         6.7294 
  94   0.0000       0.252545         6.8721 
  95   0.0000       0.256073         6.9681 
  96   0.0000       0.262696         7.1483 
  97   0.0000       0.265815         7.2332 
  98   0.0000       0.269117         7.3230 
  99   0.0000       0.272674         7.4198 
 100   0.0000       0.275978         7.5098 
 101   0.0000       0.280871         7.6429 
 102   0.0000       0.290423         7.9028 
 103   0.0000       0.291796         7.9402 
 104   0.0000       0.296867         8.0782 
 105   0.0000       0.301744         8.2109 
 106   0.0000       0.305719         8.3190 
 107   0.0000       0.310660         8.4535 
 108   0.0000       0.314310         8.5528 
 109   0.0000       0.316772         8.6198 
 110   0.0000       0.321053         8.7363 
 111   0.0000       0.322514         8.7761 
 112   0.0000       0.322773         8.7831 
 113   0.0000       0.329766         8.9734 
 114   0.0000       0.330447         8.9919 
 115   0.0000       0.333331         9.0704 
 116   0.0000       0.339194         9.2299 
 117   0.0000       0.344025         9.3614 
 118   0.0000       0.345726         9.4077 
 119   0.0000       0.348133         9.4732 
 120   0.0000       0.350456         9.5364 
 121   0.0000       0.356743         9.7075 
 122   0.0000       0.360495         9.8096 
 123   0.0000       0.361157         9.8276 
 124   0.0000       0.367972        10.0130 
 125   0.0000       0.369163        10.0454 
 126   0.0000       0.374630        10.1942 
 127   0.0000       0.376555        10.2466 
 128   0.0000       0.378105        10.2888 
 129   0.0000       0.382272        10.4022 
 130   0.0000       0.385355        10.4861 
 131   0.0000       0.389294        10.5932 
 132   0.0000       0.392337        10.6760 
 133   0.0000       0.395546        10.7634 
 134   0.0000       0.402053        10.9404 
 135   0.0000       0.405445        11.0327 
 136   0.0000       0.408001        11.1023 
 137   0.0000       0.411996        11.2110 
 138   0.0000       0.416611        11.3366 
 139   0.0000       0.419753        11.4221 
 140   0.0000       0.422402        11.4941 
 141   0.0000       0.427657        11.6371 
 142   0.0000       0.430097        11.7035 
 143   0.0000       0.433051        11.7839 
 144   0.0000       0.435737        11.8570 
 145   0.0000       0.441086        12.0026 
 146   0.0000       0.446963        12.1625 
 147   0.0000       0.453758        12.3474 
 148   0.0000       0.456162        12.4128 
 149   0.0000       0.459189        12.4952 
 150   0.0000       0.465099        12.6560 
 151   0.0000       0.468708        12.7542 
 152   0.0000       0.471340        12.8258 
 153   0.0000       0.472833        12.8664 
 154   0.0000       0.478024        13.0077 
 155   0.0000       0.479635        13.0515 
 156   0.0000       0.482671        13.1341 
 157   0.0000       0.488351        13.2887 
 158   0.0000       0.492580        13.4038 
 159   0.0000       0.495844        13.4926 
 160   0.0000       0.500775        13.6268 
 161   0.0000       0.503575        13.7030 
 162   0.0000       0.506236        13.7754 
 163   0.0000       0.513261        13.9666 
 164   0.0000       0.517855        14.0916 
 165   0.0000       0.521500        14.1907 
 166   0.0000       0.525896        14.3103 
 167   0.0000       0.527949        14.3662 
 168   0.0000       0.536530        14.5997 
 169   0.0000       0.538993        14.6668 
 170   0.0000       0.543221        14.7818 
 171   0.0000       0.547182        14.8896 
 172   0.0000       0.551097        14.9961 
 173   0.0000       0.557907        15.1814 
 174   0.0000       0.564158        15.3515 
 175   0.0000       0.570068        15.5123 
 176   0.0000       0.577089        15.7034 
 177   0.0000       0.578883        15.7522 
 178   0.0000       0.583350        15.8737 
 179   0.0000       0.593397        16.1471 
 180   0.0000       0.601011        16.3544 
 181   0.0000       0.605581        16.4787 
 182   0.0000       0.611561        16.6414 
 183   0.0000       0.618371        16.8267 
 184   0.0000       0.620794        16.8927 
 185   0.0000       0.630426        17.1548 
 186   0.0000       0.633262        17.2319 
 187   0.0000       0.638610        17.3775 
 188   0.0000       0.644490        17.5375 
 189   0.0000       0.648144        17.6369 
 190   0.0000       0.650957        17.7134 
 191   0.0000       0.656820        17.8730 
 192   0.0000       0.669022        18.2050 
 193   0.0000       0.674120        18.3437 
 194   0.0000       0.678682        18.4679 
 195   0.0000       0.684525        18.6269 
 196   0.0000       0.688069        18.7233 
 197   0.0000       0.690632        18.7930 
 198   0.0000       0.702209        19.1081 
 199   0.0000       0.708068        19.2675 
 200   0.0000       0.711613        19.3640 
 201   0.0000       0.717453        19.5229 
 202   0.0000       0.718136        19.5415 
 203   0.0000       0.723494        19.6873 
 204   0.0000       0.728623        19.8268 
 205   0.0000       0.734282        19.9808 
 206   0.0000       0.735965        20.0266 
 207   0.0000       0.743984        20.2448 
 208   0.0000       0.750090        20.4110 
 209   0.0000       0.751914        20.4606 
 210   0.0000       0.754325        20.5262 
 211   0.0000       0.756263        20.5789 
 212   0.0000       0.759077        20.6555 
 213   0.0000       0.767215        20.8770 
 214   0.0000       0.774171        21.0663 
 215   0.0000       0.776014        21.1164 
 216   0.0000       0.780393        21.2356 
 217   0.0000       0.788538        21.4572 
 218   0.0000       0.795328        21.6420 
 219   0.0000       0.796842        21.6832 
 220   0.0000       0.798919        21.7397 
 221   0.0000       0.806904        21.9570 
 222   0.0000       0.810167        22.0458 
 223   0.0000       0.822335        22.3769 
 224   0.0000       0.827973        22.5303 
 225   0.0000       0.832110        22.6429 
 226   0.0000       0.847727        23.0678 
 227   0.0000       0.849688        23.1212 
 228   0.0000       0.854849        23.2616 
 229   0.0000       0.861786        23.4504 
 230   0.0000       0.863475        23.4963 
 231   0.0000       0.872057        23.7299 
 232   0.0000       0.874984        23.8095 
 233   0.0000       0.880556        23.9612 
 234   0.0000       0.884240        24.0614 
 235   0.0000       0.889655        24.2088 
 236   0.0000       0.892188        24.2777 
 237   0.0000       0.900286        24.4980 
 238   0.0000       0.905829        24.6489 
 239   0.0000       0.914435        24.8830 
 240   0.0000       0.919435        25.0191 
 241   0.0000       0.939320        25.5602 
 242   0.0000       0.943925        25.6855 
 243   0.0000       0.945587        25.7307 
 244   0.0000       0.950701        25.8699 
 245   0.0000       0.961345        26.1595 
 246   0.0000       0.969890        26.3920 
 247   0.0000       0.982956        26.7476 
 248   0.0000       1.000010        27.2117 
 249   0.0000       1.002391        27.2764 
 250   0.0000       1.014450        27.6046 
 251   0.0000       1.022838        27.8328 
 252   0.0000       1.031954        28.0809 
 253   0.0000       1.044275        28.4162 
 254   0.0000       1.051337        28.6083 
 255   0.0000       1.059050        28.8182 
 256   0.0000       1.075434        29.2641 
 257   0.0000       1.081809        29.4375 
 258   0.0000       1.092353        29.7244 
 259   0.0000       1.108326        30.1591 
 260   0.0000       1.111782        30.2531 
 261   0.0000       1.118178        30.4272 
 262   0.0000       1.125139        30.6166 
 263   0.0000       1.133515        30.8445 
 264   0.0000       1.146501        31.1979 
 265   0.0000       1.150986        31.3199 
 266   0.0000       1.156056        31.4579 
 267   0.0000       1.164150        31.6781 
 268   0.0000       1.168193        31.7882 
 269   0.0000       1.171142        31.8684 
 270   0.0000       1.183150        32.1952 
 271   0.0000       1.193792        32.4847 
 272   0.0000       1.194070        32.4923 
 273   0.0000       1.217696        33.1352 
 274   0.0000       1.224767        33.3276 
 275   0.0000       1.230212        33.4758 
 276   0.0000       1.233968        33.5780 
 277   0.0000       1.242661        33.8145 
 278   0.0000       1.245873        33.9019 
 279   0.0000       1.252572        34.0842 
 280   0.0000       1.254466        34.1358 
 281   0.0000       1.267941        34.5024 
 282   0.0000       1.277846        34.7719 
 283   0.0000       1.282409        34.8961 
 284   0.0000       1.295343        35.2481 
 285   0.0000       1.299639        35.3650 
 286   0.0000       1.308104        35.5953 
 287   0.0000       1.317535        35.8520 
 288   0.0000       1.325123        36.0584 
 289   0.0000       1.330957        36.2172 
 290   0.0000       1.339902        36.4606 
 291   0.0000       1.342600        36.5340 
 292   0.0000       1.351617        36.7794 
 293   0.0000       1.355412        36.8826 
 294   0.0000       1.366311        37.1792 
 295   0.0000       1.379193        37.5297 
 296   0.0000       1.384312        37.6690 
 297   0.0000       1.392491        37.8916 
 298   0.0000       1.405315        38.2406 
 299   0.0000       1.414752        38.4973 
 300   0.0000       1.422071        38.6965 
 301   0.0000       1.425847        38.7993 
 302   0.0000       1.431287        38.9473 
 303   0.0000       1.437431        39.1145 
 304   0.0000       1.440492        39.1978 
 305   0.0000       1.455987        39.6194 
 306   0.0000       1.464825        39.8599 
 307   0.0000       1.467590        39.9352 
 308   0.0000       1.474337        40.1188 
 309   0.0000       1.478037        40.2194 
 310   0.0000       1.486879        40.4600 
 311   0.0000       1.488370        40.5006 
 312   0.0000       1.494844        40.6768 
 313   0.0000       1.499964        40.8161 
 314   0.0000       1.522156        41.4200 
 315   0.0000       1.527054        41.5533 
 316   0.0000       1.530492        41.6468 
 317   0.0000       1.533477        41.7280 
 318   0.0000       1.536199        41.8021 
 319   0.0000       1.547786        42.1174 
 320   0.0000       1.560932        42.4751 
 321   0.0000       1.568154        42.6717 
 322   0.0000       1.572591        42.7924 
 323   0.0000       1.584942        43.1285 
 324   0.0000       1.590094        43.2687 
 325   0.0000       1.601762        43.5862 
 326   0.0000       1.606350        43.7110 
 327   0.0000       1.615207        43.9520 
 328   0.0000       1.617960        44.0269 
 329   0.0000       1.621719        44.1292 
 330   0.0000       1.631111        44.3848 
 331   0.0000       1.638806        44.5942 
 332   0.0000       1.648505        44.8581 
 333   0.0000       1.666217        45.3401 
 334   0.0000       1.676101        45.6090 
 335   0.0000       1.681725        45.7621 
 336   0.0000       1.691111        46.0175 
 337   0.0000       1.708466        46.4897 
 338   0.0000       1.711546        46.5735 
 339   0.0000       1.723689        46.9040 
 340   0.0000       1.725388        46.9502 
 341   0.0000       1.733132        47.1609 
 342   0.0000       1.748623        47.5825 
 343   0.0000       1.758372        47.8477 
 344   0.0000       1.765315        48.0367 
 345   0.0000       1.769736        48.1570 
 346   0.0000       1.773911        48.2706 
 347   0.0000       1.782250        48.4975 
 348   0.0000       1.791132        48.7392 
 349   0.0000       1.793619        48.8069 
 350   0.0000       1.806294        49.1517 
 351   0.0000       1.811829        49.3024 
 352   0.0000       1.813959        49.3603 
 353   0.0000       1.826220        49.6940 
 354   0.0000       1.836356        49.9698 
 355   0.0000       1.849775        50.3349 
 356   0.0000       1.861176        50.6452 
 357   0.0000       1.888963        51.4013 
 358   0.0000       1.889516        51.4163 
 359   0.0000       1.913012        52.0557 
 360   0.0000       1.927717        52.4558 
 361   0.0000       1.940607        52.8066 
 362   0.0000       1.981147        53.9098 
 363   0.0000       2.003812        54.5265 
 364   0.0000       2.014615        54.8205 
 365   0.0000       2.031722        55.2860 
 366   0.0000       2.034417        55.3593 
 367   0.0000       2.044156        55.6243 
 368   0.0000       2.051768        55.8314 
 369   0.0000       2.066325        56.2276 
 370   0.0000       2.081124        56.6302 
 371   0.0000       2.083511        56.6952 
 372   0.0000       2.102944        57.2240 
 373   0.0000       2.116596        57.5955 
 374   0.0000       2.119077        57.6630 
 375   0.0000       2.134246        58.0758 
 376   0.0000       2.161627        58.8209 
 377   0.0000       2.176478        59.2250 
 378   0.0000       2.188989        59.5654 
 379   0.0000       2.219571        60.3976 
 380   0.0000       2.235006        60.8176 
 381   0.0000       2.242597        61.0242 
 382   0.0000       2.259250        61.4773 
 383   0.0000       2.279658        62.0326 
 384   0.0000       2.283915        62.1485 
 385   0.0000       2.312890        62.9369 
 386   0.0000       2.347985        63.8919 
 387   0.0000       2.366039        64.3832 
 388   0.0000       2.400882        65.3313 
 389   0.0000       2.416723        65.7624 
 390   0.0000       2.441607        66.4395 
 391   0.0000       2.450224        66.6740 
 392   0.0000       2.462678        67.0129 
 393   0.0000       2.464227        67.0550 
 394   0.0000       2.495280        67.9000 
 395   0.0000       2.503768        68.1310 
 396   0.0000       2.531531        68.8865 
 397   0.0000       2.565558        69.8124 
 398   0.0000       2.584037        70.3152 
 399   0.0000       2.629555        71.5538 
 400   0.0000       2.657643        72.3181 
 401   0.0000       2.662027        72.4374 
 402   0.0000       2.673383        72.7464 
 403   0.0000       2.697235        73.3955 
 404   0.0000       2.719315        73.9963 
 405   0.0000       2.729102        74.2626 
 406   0.0000       2.732550        74.3565 
 407   0.0000       2.752585        74.9016 
 408   0.0000       2.759837        75.0990 
 409   0.0000       2.789712        75.9119 
 410   0.0000       2.817461        76.6670 
 411   0.0000       2.821272        76.7707 
 412   0.0000       2.825692        76.8910 
 413   0.0000       2.847695        77.4897 
 414   0.0000       2.855408        77.6996 
 415   0.0000       2.864155        77.9376 
 416   0.0000       2.869799        78.0912 
 417   0.0000       2.886454        78.5444 
 418   0.0000       2.900503        78.9267 
 419   0.0000       2.904544        79.0367 
 420   0.0000       2.915965        79.3474 
 421   0.0000       2.923283        79.5466 
 422   0.0000       2.925403        79.6043 
 423   0.0000       2.934743        79.8584 
 424   0.0000       2.944237        80.1168 
 425   0.0000       2.955868        80.4333 
 426   0.0000       2.959876        80.5423 
 427   0.0000       2.967013        80.7365 
 428   0.0000       2.974212        80.9324 
 429   0.0000       2.982974        81.1709 
 430   0.0000       2.992880        81.4404 
 431   0.0000       2.995381        81.5085 
 432   0.0000       3.008581        81.8676 
 433   0.0000       3.010560        81.9215 
 434   0.0000       3.013599        82.0042 
 435   0.0000       3.022227        82.2390 
 436   0.0000       3.023879        82.2839 
 437   0.0000       3.032458        82.5174 
 438   0.0000       3.045584        82.8746 
 439   0.0000       3.053898        83.1008 
 440   0.0000       3.069903        83.5363 
 441   0.0000       3.073895        83.6449 
 442   0.0000       3.088738        84.0488 
 443   0.0000       3.090192        84.0884 
 444   0.0000       3.119206        84.8779 
 445   0.0000       3.128950        85.1431 
 446   0.0000       3.138268        85.3966 
 447   0.0000       3.145822        85.6022 
 448   0.0000       3.152384        85.7807 
 449   0.0000       3.162717        86.0619 
 450   0.0000       3.172617        86.3313 
 451   0.0000       3.180635        86.5495 
 452   0.0000       3.189061        86.7788 
 453   0.0000       3.192665        86.8768 
 454   0.0000       3.199654        87.0670 
 455   0.0000       3.212843        87.4259 
 456   0.0000       3.227682        87.8297 
 457   0.0000       3.233274        87.9819 
 458   0.0000       3.245883        88.3250 
 459   0.0000       3.249355        88.4194 
 460   0.0000       3.267236        88.9060 
 461   0.0000       3.272672        89.0539 
 462   0.0000       3.286920        89.4416 
 463   0.0000       3.299564        89.7857 
 464   0.0000       3.312659        90.1420 
 465   0.0000       3.318719        90.3069 
 466   0.0000       3.326410        90.5162 
 467   0.0000       3.334229        90.7290 
 468   0.0000       3.343554        90.9827 
 469   0.0000       3.359111        91.4061 
 470   0.0000       3.362925        91.5098 
 471   0.0000       3.376355        91.8753 
 472   0.0000       3.381332        92.0107 
 473   0.0000       3.395825        92.4051 
 474   0.0000       3.397066        92.4389 
 475   0.0000       3.412944        92.8709 
 476   0.0000       3.422570        93.1329 
 477   0.0000       3.426823        93.2486 
 478   0.0000       3.439997        93.6071 
 479   0.0000       3.445598        93.7595 
 480   0.0000       3.456073        94.0445 
 481   0.0000       3.469990        94.4232 
 482   0.0000       3.472782        94.4992 
 483   0.0000       3.480711        94.7150 
 484   0.0000       3.497231        95.1645 
 485   0.0000       3.504977        95.3753 
 486   0.0000       3.512246        95.5731 
 487   0.0000       3.522038        95.8395 
 488   0.0000       3.530871        96.0799 
 489   0.0000       3.534362        96.1749 
 490   0.0000       3.544763        96.4579 
 491   0.0000       3.551611        96.6442 
 492   0.0000       3.557434        96.8027 
 493   0.0000       3.567279        97.0706 
 494   0.0000       3.573425        97.2378 
 495   0.0000       3.576617        97.3247 
 496   0.0000       3.605591        98.1131 
 497   0.0000       3.618577        98.4665 
 498   0.0000       3.621705        98.5516 
 499   0.0000       3.633183        98.8639 
 500   0.0000       3.638133        98.9986 
 501   0.0000       3.649186        99.2994 
 502   0.0000       3.663872        99.6990 
 503   0.0000       3.674579        99.9904 
 504   0.0000       3.677870       100.0799 
 505   0.0000       3.682987       100.2192 
 506   0.0000       3.693124       100.4950 
 507   0.0000       3.695392       100.5567 
 508   0.0000       3.707578       100.8883 
 509   0.0000       3.718357       101.1816 
 510   0.0000       3.730911       101.5233 
 511   0.0000       3.737068       101.6908 
 512   0.0000       3.755235       102.1851 
 513   0.0000       3.776663       102.7682 
 514   0.0000       3.793513       103.2267 
 515   0.0000       3.798916       103.3738 
 516   0.0000       3.826006       104.1109 
 517   0.0000       3.832896       104.2984 
 518   0.0000       3.838856       104.4606 
 519   0.0000       3.854221       104.8787 
 520   0.0000       3.865111       105.1750 
 521   0.0000       3.875180       105.4490 
 522   0.0000       3.880526       105.5945 
 523   0.0000       3.885105       105.7191 
 524   0.0000       3.895087       105.9907 
 525   0.0000       3.906200       106.2931 
 526   0.0000       3.912100       106.4537 
 527   0.0000       3.922794       106.7446 
 528   0.0000       3.931355       106.9776 
 529   0.0000       3.937714       107.1507 
 530   0.0000       3.955093       107.6235 
 531   0.0000       3.959716       107.7494 
 532   0.0000       3.966081       107.9226 
 533   0.0000       3.973921       108.1359 
 534   0.0000       3.984902       108.4347 
 535   0.0000       3.994947       108.7080 
 536   0.0000       4.004451       108.9666 
 537   0.0000       4.023644       109.4889 
 538   0.0000       4.028460       109.6200 
 539   0.0000       4.043289       110.0235 
 540   0.0000       4.055898       110.3666 
 541   0.0000       4.061063       110.5072 
 542   0.0000       4.067186       110.6738 
 543   0.0000       4.075409       110.8975 
 544   0.0000       4.095531       111.4451 
 545   0.0000       4.104207       111.6811 
 546   0.0000       4.118855       112.0797 
 547   0.0000       4.121225       112.1442 
 548   0.0000       4.139931       112.6533 
 549   0.0000       4.146375       112.8286 
 550   0.0000       4.164634       113.3255 
 551   0.0000       4.172265       113.5331 
 552   0.0000       4.196611       114.1956 
 553   0.0000       4.202838       114.3650 
 554   0.0000       4.214431       114.6805 
 555   0.0000       4.227344       115.0319 
 556   0.0000       4.228095       115.0523 
 557   0.0000       4.251142       115.6794 
 558   0.0000       4.255276       115.7920 
 559   0.0000       4.267606       116.1275 
 560   0.0000       4.269832       116.1880 
 561   0.0000       4.274660       116.3194 
 562   0.0000       4.285819       116.6231 
 563   0.0000       4.293675       116.8368 
 564   0.0000       4.301136       117.0399 
 565   0.0000       4.312691       117.3543 
 566   0.0000       4.322375       117.6178 
 567   0.0000       4.327266       117.7509 
 568   0.0000       4.341717       118.1441 
 569   0.0000       4.347138       118.2916 
 570   0.0000       4.347997       118.3150 
 571   0.0000       4.355560       118.5208 
 572   0.0000       4.370283       118.9215 
 573   0.0000       4.389322       119.4395 
 574   0.0000       4.399829       119.7254 
 575   0.0000       4.416178       120.1703 
 576   0.0000       4.426024       120.4382 
 577   0.0000       4.434731       120.6752 
 578   0.0000       4.442912       120.8978 
 579   0.0000       4.455143       121.2306 
 580   0.0000       4.456155       121.2581 
 581   0.0000       4.462163       121.4216 
 582   0.0000       4.473836       121.7393 
 583   0.0000       4.475917       121.7959 
 584   0.0000       4.485811       122.0651 
 585   0.0000       4.497310       122.3780 
 586   0.0000       4.509022       122.6967 
 587   0.0000       4.524816       123.1265 
 588   0.0000       4.541563       123.5822 
 589   0.0000       4.545347       123.6852 
 590   0.0000       4.553581       123.9092 
 591   0.0000       4.564349       124.2023 
 592   0.0000       4.573022       124.4383 
 593   0.0000       4.588962       124.8720 
 594   0.0000       4.606610       125.3522 
 595   0.0000       4.609275       125.4247 
 596   0.0000       4.642230       126.3215 
 597   0.0000       4.665596       126.9573 
 598   0.0000       4.679589       127.3381 
 599   0.0000       4.707030       128.0848 
 600   0.0000       4.721716       128.4844 
 601   0.0000       4.734566       128.8341 
 602   0.0000       4.748593       129.2158 
 603   0.0000       4.773200       129.8854 
 604   0.0000       4.776234       129.9679 
 605   0.0000       4.790807       130.3645 
 606   0.0000       4.798777       130.5814 
 607   0.0000       4.806260       130.7850 
 608   0.0000       4.825260       131.3020 
 609   0.0000       4.836858       131.6176 
 610   0.0000       4.846586       131.8823 
 611   0.0000       4.857283       132.1734 
 612   0.0000       4.895834       133.2224 
 613   0.0000       4.905185       133.4769 
 614   0.0000       4.948148       134.6459 
 615   0.0000       4.957042       134.8880 
 616   0.0000       4.968790       135.2077 
 617   0.0000       4.977682       135.4496 
 618   0.0000       5.008011       136.2749 
 619   0.0000       5.020806       136.6231 
 620   0.0000       5.034635       136.9994 
 621   0.0000       5.036540       137.0512 
 622   0.0000       5.053263       137.5063 
 623   0.0000       5.093351       138.5971 
 624   0.0000       5.108749       139.0161 
 625   0.0000       5.120629       139.3394 
 626   0.0000       5.125141       139.4622 
 627   0.0000       5.134667       139.7214 
 628   0.0000       5.136642       139.7751 
 629   0.0000       5.153097       140.2229 
 630   0.0000       5.155504       140.2884 
 631   0.0000       5.165323       140.5556 
 632   0.0000       5.173359       140.7743 
 633   0.0000       5.176035       140.8471 
 634   0.0000       5.181865       141.0057 
 635   0.0000       5.186379       141.1285 
 636   0.0000       5.213040       141.8540 
 637   0.0000       5.241143       142.6187 
 638   0.0000       5.257131       143.0538 
 639   0.0000       5.265346       143.2774 
 640   0.0000       5.292464       144.0153 
 641   0.0000       5.325084       144.9029 
 642   0.0000       5.342832       145.3858 
 643   0.0000       5.355628       145.7340 
 644   0.0000       5.361025       145.8809 
 645   0.0000       5.377913       146.3404 
 646   0.0000       5.380783       146.4185 
 647   0.0000       5.395155       146.8096 
 648   0.0000       5.407237       147.1384 
 649   0.0000       5.439849       148.0258 
 650   0.0000       5.456610       148.4819 
 651   0.0000       5.462235       148.6350 
 652   0.0000       5.479042       149.0923 
 653   0.0000       5.499482       149.6485 
 654   0.0000       5.504725       149.7912 
 655   0.0000       5.513692       150.0352 
 656   0.0000       5.524890       150.3399 
 657   0.0000       5.529984       150.4785 
 658   0.0000       5.545007       150.8873 
 659   0.0000       5.547321       150.9503 
 660   0.0000       5.551687       151.0691 
 661   0.0000       5.555533       151.1737 
 662   0.0000       5.577969       151.7843 
 663   0.0000       5.591468       152.1516 
 664   0.0000       5.605303       152.5280 
 665   0.0000       5.611460       152.6956 
 666   0.0000       5.634835       153.3317 
 667   0.0000       5.648866       153.7134 
 668   0.0000       5.657732       153.9547 
 669   0.0000       5.673515       154.3842 
 670   0.0000       5.682738       154.6352 
 671   0.0000       5.701577       155.1478 
 672   0.0000       5.718141       155.5985 
 673   0.0000       5.729969       155.9204 
 674   0.0000       5.753486       156.5603 
 675   0.0000       5.807518       158.0306 
 676   0.0000       5.812561       158.1678 
 677   0.0000       5.825850       158.5294 
 678   0.0000       5.828648       158.6056 
 679   0.0000       5.835689       158.7972 
 680   0.0000       5.847787       159.1264 
 681   0.0000       5.868290       159.6843 
 682   0.0000       5.882442       160.0694 
 683   0.0000       5.898447       160.5049 
 684   0.0000       5.914132       160.9317 
 685   0.0000       5.917964       161.0360 
 686   0.0000       5.946320       161.8076 
 687   0.0000       5.968198       162.4029 
 688   0.0000       6.003593       163.3661 
 689   0.0000       6.061604       164.9446 
 690   0.0000       6.095447       165.8656 
 691   0.0000       6.148551       167.3106 
 692   0.0000       6.225637       169.4082 
 693   0.0000       6.294818       171.2907 
 694   0.0000       6.377466       173.5397 
 695   0.0000       6.451490       175.5540 
 696   0.0000       6.574597       178.9039 
 697   0.0000       6.705210       182.4580 
 698   0.0000       6.845569       186.2774 
 699   0.0000       6.886195       187.3829 
 700   0.0000       6.922558       188.3724 
 701   0.0000       6.997114       190.4012 
 702   0.0000       7.035262       191.4392 
 703   0.0000       7.201226       195.9553 
 704   0.0000       7.307277       198.8411 
 705   0.0000       7.509872       204.3540 
 706   0.0000       7.620539       207.3654 
 707   0.0000       7.709704       209.7917 
 708   0.0000       7.889881       214.6946 
 709   0.0000      23.767129       646.7364 
 710   0.0000      23.986315       652.7008 
 711   0.0000      23.987302       652.7277 
 712   0.0000      24.129490       656.5968 
 713   0.0000      24.173657       657.7986 
 714   0.0000      24.179717       657.9635 
 715   0.0000      24.194394       658.3629 
 716   0.0000      25.709770       699.5984 
 717   0.0000      33.802223       919.8052 
 718   0.0000      45.098419      1227.1904 
 719   0.0000      45.250208      1231.3208 
 720   0.0000      84.748962      2306.1365 

                    ********************************
                    * MULLIKEN POPULATION ANALYSIS *
                    ********************************

-----------------------
MULLIKEN ATOMIC CHARGES
-----------------------
   0 Mo:    0.652560
   1 C :    0.760584
   2 C :   -0.272530
   3 H :    0.116579
   4 H :    0.116826
   5 H :    0.130422
   6 C :   -0.212627
   7 C :   -0.056776
   8 N :   -0.636021
   9 O :   -0.580631
  10 O :   -0.467366
  11 H :    0.059985
  12 H :    0.074467
  13 H :    0.100092
  14 H :    0.025052
  15 H :    0.049709
  16 H :    0.053741
  17 C :    0.072292
  18 C :   -0.100174
  19 H :    0.077264
  20 H :    0.035403
  21 H :    0.155911
  22 H :    0.093933
  23 C :   -0.670617
  24 H :    0.065807
  25 H :    0.114745
  26 H :    0.048584
  27 H :    0.192787
Sum of atomic charges:   -0.0000000

--------------------------------
MULLIKEN REDUCED ORBITAL CHARGES
--------------------------------
  0 Mos       :     3.191600  s :     3.191600
      pz      :     2.292111  p :     6.320510
      px      :     1.839343
      py      :     2.189057
      dz2     :     0.807677  d :     3.599523
      dxz     :     0.687575
      dyz     :     0.847072
      dx2y2   :     0.680291
      dxy     :     0.576909
      f0      :     0.022441  f :     0.221315
      f+1     :     0.018533
      f-1     :     0.024037
      f+2     :     0.008719
      f-2     :     0.052660
      f+3     :     0.050965
      f-3     :     0.043960
      g0      :     0.001150  g :     0.014492
      g+1     :     0.001222
      g-1     :     0.001351
      g+2     :     0.000573
      g-2     :     0.002206
      g+3     :     0.001303
      g-3     :     0.001418
      g+4     :     0.002442
      g-4     :     0.002827
  1 C s       :     2.770895  s :     2.770895
      pz      :     0.837611  p :     2.525901
      px      :     0.739368
      py      :     0.948922
      dz2     :    -0.031964  d :    -0.063983
      dxz     :    -0.011698
      dyz     :    -0.017519
      dx2y2   :     0.011746
      dxy     :    -0.014547
      f0      :     0.001291  f :     0.006603
      f+1     :     0.001173
      f-1     :     0.000631
      f+2     :     0.000978
      f-2     :     0.001098
      f+3     :     0.000704
      f-3     :     0.000728
  2 C s       :     3.221089  s :     3.221089
      pz      :     1.063514  p :     2.929163
      px      :     0.941030
      py      :     0.924619
      dz2     :     0.026549  d :     0.115546
      dxz     :     0.044643
      dyz     :     0.000883
      dx2y2   :     0.031652
      dxy     :     0.011819
      f0      :     0.000681  f :     0.006732
      f+1     :     0.000984
      f-1     :     0.000729
      f+2     :     0.000435
      f-2     :     0.001072
      f+3     :     0.001595
      f-3     :     0.001238
  3 H s       :     0.846516  s :     0.846516
      pz      :     0.018155  p :     0.034926
      px      :     0.009747
      py      :     0.007024
      dz2     :     0.000547  d :     0.001979
      dxz     :     0.000582
      dyz     :     0.000560
      dx2y2   :     0.000106
      dxy     :     0.000185
  4 H s       :     0.844868  s :     0.844868
      pz      :     0.013848  p :     0.036362
      px      :     0.017497
      py      :     0.005018
      dz2     :     0.000569  d :     0.001943
      dxz     :     0.000348
      dyz     :     0.000244
      dx2y2   :     0.000265
      dxy     :     0.000517
  5 H s       :     0.839757  s :     0.839757
      pz      :     0.003409  p :     0.027870
      px      :     0.005851
      py      :     0.018610
      dz2     :     0.000118  d :     0.001952
      dxz     :     0.000152
      dyz     :     0.000543
      dx2y2   :     0.000592
      dxy     :     0.000547
  6 C s       :     3.220805  s :     3.220805
      pz      :     1.054725  p :     2.807410
      px      :     0.688419
      py      :     1.064266
      dz2     :     0.021990  d :     0.173857
      dxz     :     0.066134
      dyz     :     0.013868
      dx2y2   :     0.012873
      dxy     :     0.058992
      f0      :     0.001292  f :     0.010555
      f+1     :     0.001254
      f-1     :     0.000723
      f+2     :     0.002027
      f-2     :     0.000216
      f+3     :     0.002068
      f-3     :     0.002974
  7 C s       :     3.187882  s :     3.187882
      pz      :     1.020990  p :     2.728078
      px      :     1.026798
      py      :     0.680289
      dz2     :     0.000970  d :     0.130835
      dxz     :     0.012172
      dyz     :     0.058094
      dx2y2   :     0.024813
      dxy     :     0.034786
      f0      :     0.001352  f :     0.009982
      f+1     :     0.000269
      f-1     :     0.001410
      f+2     :     0.002207
      f-2     :     0.000248
      f+3     :     0.002523
      f-3     :     0.001972
  8 N s       :     4.028067  s :     4.028067
      pz      :     1.328200  p :     3.632310
      px      :     1.134779
      py      :     1.169331
      dz2     :     0.002015  d :    -0.029087
      dxz     :     0.006711
      dyz     :     0.003812
      dx2y2   :    -0.008808
      dxy     :    -0.032818
      f0      :     0.000476  f :     0.004731
      f+1     :     0.000468
      f-1     :     0.000472
      f+2     :     0.000170
      f-2     :     0.000874
      f+3     :     0.001129
      f-3     :     0.001143
  9 O s       :     3.829978  s :     3.829978
      pz      :     1.802709  p :     4.736317
      px      :     1.683971
      py      :     1.249637
      dz2     :     0.002768  d :     0.012840
      dxz     :     0.003810
      dyz     :     0.010553
      dx2y2   :    -0.002980
      dxy     :    -0.001310
      f0      :     0.000168  f :     0.001496
      f+1     :     0.000072
      f-1     :     0.000302
      f+2     :     0.000166
      f-2     :     0.000097
      f+3     :     0.000277
      f-3     :     0.000414
 10 O s       :     3.796494  s :     3.796494
      pz      :     1.759581  p :     4.664323
      px      :     1.170957
      py      :     1.733786
      dz2     :     0.002904  d :     0.004943
      dxz     :     0.006094
      dyz     :     0.004642
      dx2y2   :    -0.010232
      dxy     :     0.001535
      f0      :     0.000166  f :     0.001605
      f+1     :     0.000319
      f-1     :     0.000057
      f+2     :     0.000168
      f-2     :     0.000067
      f+3     :     0.000496
      f-3     :     0.000332
 11 H s       :     0.902631  s :     0.902631
      pz      :     0.012735  p :     0.035489
      px      :     0.010013
      py      :     0.012742
      dz2     :     0.000573  d :     0.001895
      dxz     :     0.000317
      dyz     :     0.000301
      dx2y2   :     0.000404
      dxy     :     0.000299
 12 H s       :     0.889280  s :     0.889280
      pz      :     0.016423  p :     0.034347
      px      :     0.009711
      py      :     0.008213
      dz2     :     0.000556  d :     0.001906
      dxz     :     0.000492
      dyz     :     0.000492
      dx2y2   :     0.000241
      dxy     :     0.000125
 13 H s       :     0.862705  s :     0.862705
      pz      :     0.001680  p :     0.035246
      px      :     0.007985
      py      :     0.025581
      dz2     :     0.000167  d :     0.001956
      dxz     :     0.000100
      dyz     :     0.000527
      dx2y2   :     0.000625
      dxy     :     0.000536
 14 H s       :     0.939709  s :     0.939709
      pz      :     0.001078  p :     0.033329
      px      :     0.015460
      py      :     0.016792
      dz2     :     0.000319  d :     0.001910
      dxz     :     0.000425
      dyz     :     0.000169
      dx2y2   :     0.000562
      dxy     :     0.000434
 15 H s       :     0.921544  s :     0.921544
      pz      :     0.016461  p :     0.026846
      px      :    -0.004106
      py      :     0.014490
      dz2     :     0.000531  d :     0.001902
      dxz     :     0.000554
      dyz     :     0.000464
      dx2y2   :     0.000242
      dxy     :     0.000110
 16 H s       :     0.921427  s :     0.921427
      pz      :     0.004207  p :     0.022934
      px      :     0.006877
      py      :     0.011850
      dz2     :     0.000479  d :     0.001898
      dxz     :     0.000322
      dyz     :     0.000243
      dx2y2   :     0.000431
      dxy     :     0.000424
 17 C s       :     2.841034  s :     2.841034
      pz      :     1.047390  p :     3.069984
      px      :     1.004084
      py      :     1.018510
      dz2     :    -0.017288  d :     0.011982
      dxz     :     0.001219
      dyz     :     0.008090
      dx2y2   :     0.010702
      dxy     :     0.009259
      f0      :     0.000629  f :     0.004708
      f+1     :     0.000707
      f-1     :     0.000724
      f+2     :     0.000662
      f-2     :     0.001255
      f+3     :     0.000226
      f-3     :     0.000505
 18 C s       :     3.125704  s :     3.125704
      pz      :     0.942478  p :     2.965796
      px      :     1.064254
      py      :     0.959064
      dz2     :     0.036369  d :     0.002820
      dxz     :     0.026829
      dyz     :    -0.002266
      dx2y2   :    -0.000997
      dxy     :    -0.057115
      f0      :     0.001091  f :     0.005854
      f+1     :     0.001023
      f-1     :     0.001219
      f+2     :     0.000623
      f-2     :     0.000709
      f+3     :     0.000800
      f-3     :     0.000388
 19 H s       :     0.841462  s :     0.841462
      pz      :     0.046770  p :     0.079089
      px      :     0.012386
      py      :     0.019933
      dz2     :     0.000382  d :     0.002185
      dxz     :     0.000452
      dyz     :     0.000398
      dx2y2   :     0.000647
      dxy     :     0.000306
 20 H s       :     0.880701  s :     0.880701
      pz      :     0.046704  p :     0.081731
      px      :     0.018201
      py      :     0.016827
      dz2     :     0.000674  d :     0.002164
      dxz     :     0.000387
      dyz     :     0.000406
      dx2y2   :     0.000370
      dxy     :     0.000328
 21 H s       :     0.808083  s :     0.808083
      pz      :     0.002448  p :     0.033789
      px      :     0.016086
      py      :     0.015255
      dz2     :     0.000125  d :     0.002217
      dxz     :     0.000076
      dyz     :     0.000870
      dx2y2   :     0.000560
      dxy     :     0.000584
 22 H s       :     0.859549  s :     0.859549
      pz      :     0.007951  p :     0.044293
      px      :     0.023936
      py      :     0.012407
      dz2     :     0.000216  d :     0.002225
      dxz     :     0.000871
      dyz     :     0.000049
      dx2y2   :     0.000343
      dxy     :     0.000746
 23 C s       :     3.268997  s :     3.268997
      pz      :     1.131750  p :     3.285243
      px      :     1.027622
      py      :     1.125871
      dz2     :     0.012650  d :     0.112160
      dxz     :     0.018814
      dyz     :     0.014968
      dx2y2   :     0.008763
      dxy     :     0.056965
      f0      :     0.000442  f :     0.004217
      f+1     :     0.000706
      f-1     :     0.000424
      f+2     :     0.000558
      f-2     :     0.000851
      f+3     :     0.000699
      f-3     :     0.000537
 24 H s       :     0.878143  s :     0.878143
      pz      :     0.028411  p :     0.054199
      px      :     0.010038
      py      :     0.015751
      dz2     :     0.000520  d :     0.001851
      dxz     :     0.000602
      dyz     :     0.000477
      dx2y2   :     0.000110
      dxy     :     0.000141
 25 H s       :     0.842316  s :     0.842316
      pz      :     0.014928  p :     0.041119
      px      :     0.008510
      py      :     0.017681
      dz2     :     0.000115  d :     0.001820
      dxz     :     0.000225
      dyz     :     0.000470
      dx2y2   :     0.000627
      dxy     :     0.000382
 26 H s       :     0.919968  s :     0.919968
      pz      :     0.008839  p :     0.029527
      px      :     0.010844
      py      :     0.009844
      dz2     :     0.000440  d :     0.001921
      dxz     :     0.000293
      dyz     :     0.000292
      dx2y2   :     0.000521
      dxy     :     0.000375
[...]
      dxy     :     0.152966
      f0      :     0.000419  f :     0.003996
      f+1     :     0.000140
      f-1     :     0.000534
      f+2     :     0.000618
      f-2     :     0.000242
      f+3     :     0.001068
      f-3     :     0.000975
 10 O s       :     3.302538  s :     3.302538
      pz      :     1.586038  p :     4.563269
      px      :     1.373135
      py      :     1.604097
      dz2     :     0.054325  d :     0.491647
      dxz     :     0.137020
      dyz     :     0.021112
      dx2y2   :     0.120980
      dxy     :     0.158211
      f0      :     0.000392  f :     0.004091
      f+1     :     0.000625
      f-1     :     0.000158
      f+2     :     0.000623
      f-2     :     0.000107
      f+3     :     0.000976
      f-3     :     0.001210
 11 H s       :     0.717385  s :     0.717385
      pz      :     0.106936  p :     0.262108
      px      :     0.055169
      py      :     0.100003
      dz2     :     0.007507  d :     0.026928
      dxz     :     0.004340
      dyz     :     0.006774
      dx2y2   :     0.004510
      dxy     :     0.003796
 12 H s       :     0.717161  s :     0.717161
      pz      :     0.125806  p :     0.261972
      px      :     0.055389
      py      :     0.080777
      dz2     :     0.008758  d :     0.026778
      dxz     :     0.006664
      dyz     :     0.007770
      dx2y2   :     0.002053
      dxy     :     0.001532
 13 H s       :     0.701604  s :     0.701604
      pz      :     0.077897  p :     0.286526
      px      :     0.067777
      py      :     0.140851
      dz2     :     0.003108  d :     0.027198
      dxz     :     0.001331
      dyz     :     0.007679
      dx2y2   :     0.007259
      dxy     :     0.007820
 14 H s       :     0.714225  s :     0.714225
      pz      :     0.085756  p :     0.263861
      px      :     0.119509
      py      :     0.058597
      dz2     :     0.004515  d :     0.027205
      dxz     :     0.007424
      dyz     :     0.002176
      dx2y2   :     0.006599
      dxy     :     0.006490
 15 H s       :     0.715565  s :     0.715565
      pz      :     0.125704  p :     0.268173
      px      :     0.079373
      py      :     0.063096
      dz2     :     0.008254  d :     0.026989
      dxz     :     0.007830
      dyz     :     0.007673
      dx2y2   :     0.001878
      dxy     :     0.001353
 16 H s       :     0.712896  s :     0.712896
      pz      :     0.098831  p :     0.274625
      px      :     0.118611
      py      :     0.057183
      dz2     :     0.006384  d :     0.027168
      dxz     :     0.007328
      dyz     :     0.003036
      dx2y2   :     0.005524
      dxy     :     0.004897
 17 C s       :     2.699306  s :     2.699306
      pz      :     0.900625  p :     2.688662
      px      :     0.909257
      py      :     0.878780
      dz2     :     0.102387  d :     0.593341
      dxz     :     0.161932
      dyz     :     0.147711
      dx2y2   :     0.080091
      dxy     :     0.101220
      f0      :     0.004714  f :     0.027644
      f+1     :     0.004046
      f-1     :     0.004370
      f+2     :     0.003861
      f-2     :     0.005302
      f+3     :     0.002296
      f-3     :     0.003054
 18 C s       :     2.631980  s :     2.631980
      pz      :     0.857089  p :     2.626945
      px      :     0.893630
      py      :     0.876226
      dz2     :     0.210151  d :     0.769680
      dxz     :     0.155095
      dyz     :     0.156168
      dx2y2   :     0.159743
      dxy     :     0.088523
      f0      :     0.006445  f :     0.037889
      f+1     :     0.006691
      f-1     :     0.007410
      f+2     :     0.004428
      f-2     :     0.005651
      f+3     :     0.004894
      f-3     :     0.002370
 19 H s       :     0.713625  s :     0.713625
      pz      :     0.090787  p :     0.306161
      px      :     0.112344
      py      :     0.103030
      dz2     :     0.004237  d :     0.029951
      dxz     :     0.006449
      dyz     :     0.005160
      dx2y2   :     0.007280
      dxy     :     0.006826
 20 H s       :     0.721896  s :     0.721896
      pz      :     0.103439  p :     0.302371
      px      :     0.102586
      py      :     0.096346
      dz2     :     0.006937  d :     0.029520
      dxz     :     0.007531
      dyz     :     0.005690
      dx2y2   :     0.004462
      dxy     :     0.004900
 21 H s       :     0.681971  s :     0.681971
      pz      :     0.078499  p :     0.276351
      px      :     0.075738
      py      :     0.122114
      dz2     :     0.002997  d :     0.029820
      dxz     :     0.000798
      dyz     :     0.008792
      dx2y2   :     0.009156
      dxy     :     0.008077
 22 H s       :     0.678832  s :     0.678832
      pz      :     0.083199  p :     0.283589
      px      :     0.128406
      py      :     0.071984
      dz2     :     0.003449  d :     0.029957
      dxz     :     0.009729
      dyz     :     0.000339
      dx2y2   :     0.008230
      dxy     :     0.008211
 23 C s       :     2.647571  s :     2.647571
      pz      :     0.905876  p :     2.704906
      px      :     0.888315
      py      :     0.910715
      dz2     :     0.115435  d :     0.534974
      dxz     :     0.100532
      dyz     :     0.081376
      dx2y2   :     0.072274
      dxy     :     0.165357
      f0      :     0.003737  f :     0.031435
      f+1     :     0.004831
      f-1     :     0.004083
      f+2     :     0.004415
      f-2     :     0.004954
      f+3     :     0.005757
      f-3     :     0.003659
 24 H s       :     0.707704  s :     0.707704
      pz      :     0.119705  p :     0.277273
      px      :     0.072427
      py      :     0.085141
      dz2     :     0.009398  d :     0.028166
      dxz     :     0.007331
      dyz     :     0.008025
      dx2y2   :     0.001584
      dxy     :     0.001828
 25 H s       :     0.705469  s :     0.705469
      pz      :     0.075083  p :     0.275644
      px      :     0.085535
      py      :     0.115026
      dz2     :     0.002544  d :     0.027841
      dxz     :     0.002811
      dyz     :     0.006695
      dx2y2   :     0.008000
      dxy     :     0.007791
 26 H s       :     0.699956  s :     0.699956
      pz      :     0.095979  p :     0.297346
      px      :     0.092632
      py      :     0.108735
      dz2     :     0.005492  d :     0.028516
      dxz     :     0.004976
      dyz     :     0.005075
      dx2y2   :     0.006617
      dxy     :     0.006357
 27 H s       :     0.693441  s :     0.693441
      pz      :     0.085491  p :     0.298489
      px      :     0.103106
      py      :     0.109891
      dz2     :     0.005091  d :     0.030616
      dxz     :     0.005221
      dyz     :     0.006314
      dx2y2   :     0.007574
      dxy     :     0.006415


                      *****************************
                      * MAYER POPULATION ANALYSIS *
                      *****************************

  NA   - Mulliken gross atomic population
  ZA   - Total nuclear charge
  QA   - Mulliken gross atomic charge
  VA   - Mayer's total valence
  BVA  - Mayer's bonded valence
  FA   - Mayer's free valence

  ATOM       NA         ZA         QA         VA         BVA        FA
  0 Mo    13.3474    14.0000     0.6526     6.1126     6.1126    -0.0000
  1 C      5.2394     6.0000     0.7606     2.8992     2.8992    -0.0000
  2 C      6.2725     6.0000    -0.2725     3.6614     3.6614     0.0000
  3 H      0.8834     1.0000     0.1166     1.0230     1.0230     0.0000
  4 H      0.8832     1.0000     0.1168     1.0480     1.0480     0.0000
  5 H      0.8696     1.0000     0.1304     1.0283     1.0283     0.0000
  6 C      6.2126     6.0000    -0.2126     3.9720     3.9720    -0.0000
  7 C      6.0568     6.0000    -0.0568     3.9707     3.9707     0.0000
  8 N      7.6360     7.0000    -0.6360     1.9074     1.9074    -0.0000
  9 O      8.5806     8.0000    -0.5806     1.5591     1.5591    -0.0000
 10 O      8.4674     8.0000    -0.4674     1.4300     1.4300    -0.0000
 11 H      0.9400     1.0000     0.0600     1.0484     1.0484    -0.0000
 12 H      0.9255     1.0000     0.0745     1.0408     1.0408    -0.0000
 13 H      0.8999     1.0000     0.1001     1.0295     1.0295     0.0000
 14 H      0.9749     1.0000     0.0251     1.0352     1.0352     0.0000
 15 H      0.9503     1.0000     0.0497     1.0117     1.0117     0.0000
 16 H      0.9463     1.0000     0.0537     0.9856     0.9856     0.0000
 17 C      5.9277     6.0000     0.0723     3.6502     3.6502    -0.0000
 18 C      6.1002     6.0000    -0.1002     4.2390     4.2390    -0.0000
 19 H      0.9227     1.0000     0.0773     1.1293     1.1293    -0.0000
 20 H      0.9646     1.0000     0.0354     1.1195     1.1195    -0.0000
 21 H      0.8441     1.0000     0.1559     0.9095     0.9095    -0.0000
 22 H      0.9061     1.0000     0.0939     0.9781     0.9781    -0.0000
 23 C      6.6706     6.0000    -0.6706     3.9946     3.9946    -0.0000
 24 H      0.9342     1.0000     0.0658     1.0864     1.0864    -0.0000
 25 H      0.8853     1.0000     0.1147     1.0532     1.0532    -0.0000
 26 H      0.9514     1.0000     0.0486     1.0541     1.0541    -0.0000
 27 H      0.8072     1.0000     0.1928     0.9049     0.9049    -0.0000

  Mayer bond orders larger than 0.100000
B(  0-Mo,  1-C ) :   0.9358 B(  0-Mo,  2-C ) :   0.1261 B(  0-Mo,  8-N ) :   1.4068 
B(  0-Mo,  9-O ) :   0.8629 B(  0-Mo, 10-O ) :   0.8726 B(  0-Mo, 17-C ) :   1.0028 
B(  0-Mo, 18-C ) :   0.3319 B(  0-Mo, 19-H ) :   0.1060 B(  1-C , 10-O ) :  -0.1822 
B(  1-C , 18-C ) :   0.7932 B(  1-C , 23-C ) :   0.7457 B(  1-C , 27-H ) :   0.9551 
B(  2-C ,  3-H ) :   1.0093 B(  2-C ,  4-H ) :   1.0002 B(  2-C ,  5-H ) :   0.9980 
B(  2-C ,  8-N ) :   0.5450 B(  6-C , 10-O ) :   0.8952 B(  6-C , 11-H ) :   1.0359 
B(  6-C , 12-H ) :   1.0210 B(  6-C , 13-H ) :   1.0051 B(  7-C ,  9-O ) :   0.8784 
B(  7-C , 14-H ) :   1.0575 B(  7-C , 15-H ) :   1.0091 B(  7-C , 16-H ) :   0.9911 
B( 10-O , 17-C ) :  -0.1960 B( 17-C , 18-C ) :   0.9133 B( 17-C , 19-H ) :   0.9983 
B( 17-C , 20-H ) :   1.0359 B( 18-C , 21-H ) :   0.9911 B( 18-C , 22-H ) :   1.0668 
B( 23-C , 24-H ) :   1.0368 B( 23-C , 25-H ) :   1.0439 B( 23-C , 26-H ) :   1.0247 


-------
TIMINGS
-------

Total SCF time: 0 days 0 hours 0 min 43 sec 

Total time                  ....      43.970 sec
Sum of individual times     ....      43.261 sec  ( 98.4%)

Fock matrix formation       ....      36.789 sec  ( 83.7%)
  XC integration            ....       4.719 sec  ( 12.8% of F)
    Basis function eval.    ....       0.847 sec  ( 18.0% of XC)
    Density eval.           ....       1.520 sec  ( 32.2% of XC)
    XC-Functional eval.     ....       0.056 sec  (  1.2% of XC)
    XC-Potential eval.      ....       1.799 sec  ( 38.1% of XC)
Diagonalization             ....       1.975 sec  (  4.5%)
Density matrix formation    ....       0.075 sec  (  0.2%)
Population analysis         ....       0.104 sec  (  0.2%)
Initial guess               ....       2.393 sec  (  5.4%)
Orbital Transformation      ....       0.000 sec  (  0.0%)
Orbital Orthonormalization  ....       0.000 sec  (  0.0%)
DIIS solution               ....       1.068 sec  (  2.4%)
Grid generation             ....       0.855 sec  (  1.9%)


           ************************************************************
           *        Program running with 24 parallel MPI-processes    *
           *              working on a common directory               *
           ************************************************************

------------------------------------------------------------------------------
                                ORCA  MP2 
------------------------------------------------------------------------------

Freezing NCore=20 chemical core electrons

-------------
RI-MP2 ENERGY
-------------
Dimension of the basis                    ...  721
Memory devoted to MP2                     ... 5000 MB   
Data format for buffers                   ... DOUBLE
Compression type for matrix containers    ... UNCOMPRESSED
Overall scaling of the MP2 energy         ...   2.700e-01
Calculating two index integrals           ... done (    0.024 sec)
Cholesky decomposition of V**-1           ... done (    0.296 sec)

-----------------
RI-TRANSFORMATION (AUX index driven)
-----------------

Dimension of the orbital-basis         ... 721
Dimension of the aux-basis             ... 1759
Transformation of internal/external MOs...   10-  47 to   48- 720
Number Format for Storage              ... Double (8 Byte)
Integral mode                          ... Direct

First Phase: integral generation and transformation of MO indices
  Aux angular momentum 0               ... done (    0.109 sec)
  Aux angular momentum 1               ... done (    0.231 sec)
  Aux angular momentum 2               ... done (    0.303 sec)
  Aux angular momentum 3               ... done (    0.231 sec)
  Aux angular momentum 4               ... done (    0.098 sec)
  Aux angular momentum 5               ... done (    0.122 sec)
  Aux angular momentum 6               ... done (    0.156 sec)
Closing buffer VIA ( 0.34 GB; CompressionRatio= 1.00)
  Phase 1 completed in     1.351 sec
Second Phase: sorting and transformation of aux index

IA-Transformation
Memory available                       ... 4935 MB 
Max. # MO pairs treated in a batch     ... 2    
# of internal orbitals                 ... 38
# batches for internal orbitals        ... 1
Closing buffer IAV ( 0.02 GB; CompressionRatio= 1.00)
(ia|v) transformation done in     0.238 sec

  Phase 2 completed in     0.564 sec
RI-Integral transformation completed in     1.925 sec
Opening buffers                              ... done

Starting loop over batches of integrals:

Operator 0  - window                       ... ( 10- 47)x( 48-720)
Operator 0  - Memory available             ...  5000 MB
Operator 0  - Memory needed per MO         ...   9.0 MB
Operator 0  - Number of orbitals per batch ... 2
Operator 0  - Number of batches            ... 1

OPERATOR  0   PASS   0:  MOs    10 ...   11 +   12 ...   13 +   14 ...   15 +   16 ...   17
                            +   18 ...   19 +   20 ...   21 +   22 ...   23 +   24 ...   25
                            +   26 ...   27 +   28 ...   29 +   30 ...   31 +   32 ...   33
                            +   34 ...   35 +   36 ...   37 +   38 ...   39 +   40 ...   41
                            +   42 ...   43 +   44 ...   45 +   46 ...   47
  Reading integrals       ... ok
Time spent in pair loops =     0.128 sec
Deleting buffer (Ka|jb)[aa] ...done

-----------------------------------------------
 RI-MP2 CORRELATION ENERGY:     -0.860800534 Eh
-----------------------------------------------


-------
TIMINGS
-------

Total time                :    4.742 sec
Integral trafo            :    1.937 sec ( 40.8%)
I/O of integrals          :    0.015 sec (  0.3%)
K(i,j) Operators          :    0.078 sec (  1.6%)
T(i,j) pair energies      :    0.017 sec (  0.4%)
V-calculation             :    0.024 sec (  0.5%)
V**(-1/2)                 :    0.296 sec (  6.2%)
Gamma(ia|P)               :    0.000 sec (  0.0%)
Gamma-Trafo               :    0.000 sec (  0.0%)
D(virtual)                :    0.000 sec (  0.0%)
D(internal)               :    0.000 sec (  0.0%)
W(virtual)                :    0.000 sec (  0.0%)
W(internal)               :    0.000 sec (  0.0%)
L(virtual)                :    0.000 sec (  0.0%)
L(internal)               :    0.000 sec (  0.0%)
G(D)                      :    0.000 sec (  0.0%)
G(Z)                      :    0.000 sec (  0.0%)
Z-Vector Solution         :    0.000 sec (  0.0%)
Z-Vector Solution         :    0.000 sec (  0.0%)
3-Index Derivative 
+ Separable RIJ part      :    0.000 sec (  0.0%)
2-Index Derivative 
+ Separable RIJ part      :    0.000 sec (  0.0%)
Separable Gradient (X)    :    0.000 sec (  0.0%)


---------------------------------------
MP2 TOTAL ENERGY:     -550.147916961 Eh
---------------------------------------


-------------------------------------------------------------------------------
                          DFT DISPERSION CORRECTION                            
                                                                               
                              DFTD3 V3.1  Rev 1                                
                          USING Becke-Johnson damping                          
-------------------------------------------------------------------------------
The B2PLYP functional is recognized
Active option DFTDOPT                   ...         4   

molecular C6(AA) [au] = 8450.635888 


            DFT-D V3
 parameters
 s6 scaling factor         :     0.6400 
 a1 scaling factor         :     0.3065 
 s8 scaling factor         :     0.9147 
 a2 scaling factor         :     5.0570 
 ad hoc parameters k1-k3   :    16.0000     1.3333    -4.0000 

 Edisp/kcal,au: -16.662243020030  -0.026552971599 
 E6   /kcal   :  -8.648788384 
 E8   /kcal   :  -8.013454636 
 % E8         :  48.093492734 

-------------------------   ----------------
Dispersion correction           -0.026552972
-------------------------   ----------------


-------------------------   --------------------
FINAL SINGLE POINT ENERGY      -550.174469932791
-------------------------   --------------------


                            ***************************************
                            *     ORCA property calculations      *
                            ***************************************


  WARNING: The energy has been calculated at the MP2 level but the densities
           used in the property calculations are still SCF densities
           MP2 response densities have not been calculated 
           use %mp2 Density relaxed end
           or  %mp2 Density unrelaxed end

                                    ---------------------
                                    Active property flags
                                    ---------------------
   (+) Dipole Moment


------------------------------------------------------------------------------
                       ORCA ELECTRIC PROPERTIES CALCULATION
------------------------------------------------------------------------------

Dipole Moment Calculation                       ... on
Quadrupole Moment Calculation                   ... off
Polarizability Calculation                      ... off
GBWName                                         ... TMB10_C1.gbw
Electron density file                           ... TMB10_C1.scfp
The origin for moment calculation is the CENTER OF MASS  = ( 0.053278, -0.004064  0.008888)

-------------
DIPOLE MOMENT
-------------
                                X             Y             Z
Electronic contribution:     10.96952       0.81895       4.65134
Nuclear contribution   :    -12.16779      -0.65832      -4.35638
                        -----------------------------------------
Total Dipole Moment    :     -1.19827       0.16063       0.29496
                        -----------------------------------------
Magnitude (a.u.)       :      1.24445
Magnitude (Debye)      :      3.16315



--------------------
Rotational spectrum 
--------------------
 
Rotational constants in cm-1:     0.031161     0.027931     0.019091 
Rotational constants in MHz :   934.171856   837.337056   572.342467 

 Dipole components along the rotational axes: 
x,y,z [a.u.] :    -1.195524    -0.191378     0.287677 
x,y,z [Debye]:    -3.038780    -0.486444     0.731216 

 

Timings for individual modules:

Sum of individual times         ...       53.297 sec (=   0.888 min)
GTO integral calculation        ...        3.641 sec (=   0.061 min)   6.8 %
SCF iterations                  ...       44.320 sec (=   0.739 min)  83.2 %
MP2 module                      ...        5.336 sec (=   0.089 min)  10.0 %
                             ****ORCA TERMINATED NORMALLY****
TOTAL RUN TIME: 0 days 0 hours 0 minutes 53 seconds 883 msec
