
                                 *****************
                                 * O   R   C   A *
                                 *****************

           --- An Ab Initio, DFT and Semiempirical electronic structure package ---

                  #######################################################
                  #                        -***-                        #
                  #          Department of theory and spectroscopy      #
                  #               Directorship: Frank Neese             #
                  #        Max Planck Institute fuer Kohlenforschung    #
                  #                Kaiser Wilhelm Platz 1               #
                  #                 D-45470 Muelheim/Ruhr               #
                  #                      Germany                        #
                  #                                                     #
                  #                  All rights reserved                #
                  #                        -***-                        #
                  #######################################################


                         Program Version 4.2.0 -  RELEASE  -


 With contributions from (in alphabetic order):
   Daniel Aravena         : Magnetic Suceptibility
   Michael Atanasov       : Ab Initio Ligand Field Theory (pilot matlab implementation)
   Alexander A. Auer      : GIAO ZORA, VPT2
   Ute Becker             : Parallelization
   Giovanni Bistoni       : ED, misc. LED, open-shell LED, HFLED
   Martin Brehm           : Molecular dynamics
   Dmytro Bykov           : SCF Hessian
   Vijay G. Chilkuri      : MRCI spin determinant printing, contributions to CSF-ICE
   Dipayan Datta          : RHF DLPNO-CCSD density
   Achintya Kumar Dutta   : EOM-CC, STEOM-CC
   Dmitry Ganyushin       : Spin-Orbit,Spin-Spin,Magnetic field MRCI
   Miquel Garcia          : C-PCM Hessian, Gaussian charge scheme
   Yang Guo               : DLPNO-NEVPT2, CIM, IAO-localization
   Andreas Hansen         : Spin unrestricted coupled pair/coupled cluster methods
   Benjamin Helmich-Paris : CASSCF linear response (MC-RPA)
   Lee Huntington         : MR-EOM, pCC
   Robert Izsak           : Overlap fitted RIJCOSX, COSX-SCS-MP3, EOM
   Christian Kollmar      : KDIIS, OOCD, Brueckner-CCSD(T), CCSD density
   Simone Kossmann        : Meta GGA functionals, TD-DFT gradient, OOMP2, MP2 Hessian
   Martin Krupicka        : AUTO-CI
   Lucas Lang             : DCDCAS
   Dagmar Lenk            : GEPOL surface, SMD
   Dimitrios Liakos       : Extrapolation schemes; Compound Job, initial MDCI parallelization
   Dimitrios Manganas     : Further ROCIS development; embedding schemes
   Dimitrios Pantazis     : SARC Basis sets
   Taras Petrenko         : DFT Hessian,TD-DFT gradient, ASA, ECA, R-Raman, ABS, FL, XAS/XES, NRVS
   Peter Pinski           : DLPNO-MP2, DLPNO-MP2 Gradient
   Christoph Reimann      : Effective Core Potentials
   Marius Retegan         : Local ZFS, SOC
   Christoph Riplinger    : Optimizer, TS searches, QM/MM, DLPNO-CCSD(T), (RO)-DLPNO pert. Triples
   Tobias Risthaus        : Range-separated hybrids, TD-DFT gradient, RPA, STAB
   Michael Roemelt        : Original ROCIS implementation
   Masaaki Saitow         : Open-shell DLPNO-CCSD energy and density
   Barbara Sandhoefer     : DKH picture change effects
   Avijit Sen             : IP-ROCIS
   Kantharuban Sivalingam : CASSCF convergence, NEVPT2, FIC-MRCI
   Bernardo de Souza      : ESD, SOC TD-DFT
   Georgi Stoychev        : AutoAux, RI-MP2 NMR
   Willem Van den Heuvel  : Paramagnetic NMR
   Boris Wezisla          : Elementary symmetry handling
   Frank Wennmohs         : Technical directorship


 We gratefully acknowledge several colleagues who have allowed us to
 interface, adapt or use parts of their codes:
   Stefan Grimme, W. Hujo, H. Kruse,             : VdW corrections, initial TS optimization,
                  C. Bannwarth                     DFT functionals, gCP, sTDA/sTD-DF
   Ed Valeev, F. Pavosevic, A. Kumar             : LibInt (2-el integral package), F12 methods
   Garnet Chan, S. Sharma, J. Yang, R. Olivares  : DMRG
   Ulf Ekstrom                                   : XCFun DFT Library
   Mihaly Kallay                                 : mrcc  (arbitrary order and MRCC methods)
   Andreas Klamt, Michael Diedenhofen            : otool_cosmo (COSMO solvation model)
   Jiri Pittner, Ondrej Demel                    : Mk-CCSD
   Frank Weinhold                                : gennbo (NPA and NBO analysis)
   Christopher J. Cramer and Donald G. Truhlar   : smd solvation model
   Lars Goerigk                                  : TD-DFT with DH, B97 family of functionals
   V. Asgeirsson, H. Jonsson                     : NEB implementation
   FAccTs GmbH                                   : IRC, NEB, NEB-TS, Multilevel, MM, QM/MM, CI optimization
   S Lehtola, MJT Oliveira, MAL Marques          : LibXC Library


 Your calculation uses the libint2 library for the computation of 2-el integrals
 For citations please refer to: http://libint.valeyev.net

 Your ORCA version has been built with support for libXC version: 4.2.3
 For citations please refer to: https://tddft.org/programs/libxc/

 This ORCA versions uses:
   CBLAS   interface :  Fast vector & matrix operations
   LAPACKE interface :  Fast linear algebra routines
   SCALAPACK package :  Parallel linear algebra routines


Your calculation utilizes the atom-pairwise dispersion correction
with the Becke-Johnson damping scheme (D3BJ)
Cite in your paper:
S.Grimme, S.Ehrlich, L.Goerigk, J Comput Chem, (2011), 32, 1456–1465 
S.Grimme, J.Antony, S.Ehrlich and H.Krieg, J.Chem.Phys., 132, (2010), 154104 
   

----- Orbital basis set information -----
Your calculation utilizes the basis: def2-TZVPPD
   F. Weigend and R. Ahlrichs, Phys. Chem. Chem. Phys. 7, 3297 (2005).
   D. Rappoport and F. Furche, J. Chem. Phys. 133 134105 (2010).

----- AuxC basis set information -----
Your calculation utilizes the auxiliary basis: def2-TZVPPD/C
   A. Hellweg, C. Hattig, S. Hofener and W. Klopper, Theor. Chem. Acc. 117, 587 (2007).

----- AuxJK basis set information -----
Your calculation utilizes the auxiliary basis: def2/JK
   H-Ba, Hf-Rn: F. Weigend, J. Comput. Chem. 29, 167 (2008).

cite the ECPs for Au [Def2-ECP] as follows:
Ce-Yb(ecp-28): M. Dolg, H. Stoll, H.Preuss, J. Chem. Phys., 1989, 90, 1730-1734.
Y-Cd(ecp-28), Hf-Hg(ecp-46): D. Andrae,U. Haeussermann, M. Dolg, H. Stoll, H. Preuss, Theor. Chim. Acta, 1990, 77, 123-141.
In-Sb(ecp-28), Tl-Bi(ecp-46): B. Metz, H. Stoll, M. Dolg, J. Chem. Phys., 2000, 113, 2563-2569.
Te-Xe(ecp-28), Po-Rn(ecp-46): K. A. Peterson, D. Figgen, E. Goll, H. Stoll, M. Dolg, J. Chem. Phys., 2003, 119, 11113-11123.
Rb(ecp-28), Cs(ecp-46): T. Leininger, A. Nicklass, W. Kuechle, H. Stoll, M. Dolg, A. Bergner, Chem. Phys. Lett., 1996, 255, 274-280.
Sr(ecp-28), Ba(ecp-46): M. Kaupp, P. V. Schleyer, H. Stoll and H. Preuss, J. Chem. Phys., 1991, 94, 1360-1366.
La(ecp-46): M. Dolg, H. Stoll, A. Savin, H. Preuss, Theor. Chim. Acta, 1989, 75, 173-194.
Lu(ecp-28): X. Cao, M. Dolg, J. Chem. Phys., 2001, 115, 7348-7355.

ECP parameters for Au [Def2-ECP] have been obtained from:
TURBOMOLE (7.0.2)

================================================================================
                                        WARNINGS
                       Please study these warnings very carefully!
================================================================================


WARNING: No MP2 level density has been requested!
         To caclulate MP2 level properties use
         %mp2 Density relaxed end
         or
         %mp2 Density unrelaxed end
         Otherwise for double-hybrid DFT only the energy is correct!

WARNING: The frozen-core approximation is turned on by default for 
         the MP2 part of double-hybrid DFT.

INFO   : the flag for use of LIBINT has been found!

================================================================================
                                       INPUT FILE
================================================================================
NAME = TMB26_T1.in
|  1> #
|  2> # TMB26_T1 ri-B2PLYP-D3BJ/Def2-TZVPPD
|  3> #
|  4> ! rijk ri-b2plyp d3bj def2-tzvppd def2/jk def2-tzvppd/c grid4 nofinalgrid
|  5> 
|  6> *xyz 0 1
|  7> C       -2.466566    1.069840    0.238308 
|  8> C       -2.451721    0.070166    1.223311 
|  9> C       -3.390268   -0.966147    1.168446 
| 10> C       -4.328348   -1.022612    0.143865 
| 11> C       -4.333048   -0.013813   -0.819144 
| 12> C       -3.403006    1.027077   -0.774806 
| 13> H       -1.851874    0.172622    2.118430 
| 14> H       -5.044959   -1.827220    0.098719 
| 15> H       -3.408268    1.764270   -1.566273 
| 16> C       -1.433505    2.123552    0.250561 
| 17> C       -1.778108    3.466931    0.185146 
| 18> C       -0.064979    1.782593    0.286078 
| 19> C       -0.802488    4.453319    0.169404 
| 20> H       -2.826505    3.739000    0.161874 
| 21> C        0.907771    2.775168    0.263672 
| 22> C        0.538977    4.108677    0.211691 
| 23> H       -1.095064    5.495288    0.125305 
| 24> H        1.951961    2.493561    0.298441 
| 25> H        1.301937    4.876538    0.199556 
| 26> C        0.257789    0.377788    0.312230 
| 27> C       -0.304042   -0.722217    0.502541 
| 28> H       -0.515543   -1.762216    0.625327 
| 29> Au       2.138195   -0.491597   -0.140080 
| 30> Cl       1.419476   -1.043843   -2.240555 
| 31> Cl       4.263347   -1.139807   -0.651257 
| 32> Cl       2.780432    0.097050    1.979491 
| 33> O       -3.309425   -1.870502    2.160546 
| 34> O       -5.195970    0.025756   -1.845512 
| 35> C       -4.244039   -2.927838    2.190952 
| 36> H       -4.158173   -3.562934    1.304307 
| 37> H       -4.005337   -3.514103    3.075014 
| 38> H       -5.267556   -2.550903    2.273203 
| 39> C       -6.143948   -1.010635   -1.979012 
| 40> H       -6.717344   -0.779100   -2.873359 
| 41> H       -5.656738   -1.981777   -2.105696 
| 42> H       -6.818943   -1.047780   -1.118843 
| 43> *
| 44> 
| 45> %maxcore 5000
| 46> 
| 47> %pal
| 48> nprocs = 24
| 49> end
| 50> 
| 51> 
| 52>                          ****END OF INPUT****
================================================================================

                       ****************************
                       * Single Point Calculation *
                       ****************************

---------------------------------
CARTESIAN COORDINATES (ANGSTROEM)
---------------------------------
  C     -2.466566    1.069840    0.238308
  C     -2.451721    0.070166    1.223311
  C     -3.390268   -0.966147    1.168446
  C     -4.328348   -1.022612    0.143865
  C     -4.333048   -0.013813   -0.819144
  C     -3.403006    1.027077   -0.774806
  H     -1.851874    0.172622    2.118430
  H     -5.044959   -1.827220    0.098719
  H     -3.408268    1.764270   -1.566273
  C     -1.433505    2.123552    0.250561
  C     -1.778108    3.466931    0.185146
  C     -0.064979    1.782593    0.286078
  C     -0.802488    4.453319    0.169404
  H     -2.826505    3.739000    0.161874
  C      0.907771    2.775168    0.263672
  C      0.538977    4.108677    0.211691
  H     -1.095064    5.495288    0.125305
  H      1.951961    2.493561    0.298441
  H      1.301937    4.876538    0.199556
  C      0.257789    0.377788    0.312230
  C     -0.304042   -0.722217    0.502541
  H     -0.515543   -1.762216    0.625327
  Au     2.138195   -0.491597   -0.140080
  Cl     1.419476   -1.043843   -2.240555
  Cl     4.263347   -1.139807   -0.651257
  Cl     2.780432    0.097050    1.979491
  O     -3.309425   -1.870502    2.160546
  O     -5.195970    0.025756   -1.845512
  C     -4.244039   -2.927838    2.190952
  H     -4.158173   -3.562934    1.304307
  H     -4.005337   -3.514103    3.075014
  H     -5.267556   -2.550903    2.273203
  C     -6.143948   -1.010635   -1.979012
  H     -6.717344   -0.779100   -2.873359
  H     -5.656738   -1.981777   -2.105696
  H     -6.818943   -1.047780   -1.118843

----------------------------
CARTESIAN COORDINATES (A.U.)
----------------------------
  NO LB      ZA    FRAG     MASS         X           Y           Z
   0 C     6.0000    0    12.011   -4.661134    2.021705    0.450337
   1 C     6.0000    0    12.011   -4.633081    0.132595    2.311723
   2 C     6.0000    0    12.011   -6.406678   -1.825753    2.208043
   3 C     6.0000    0    12.011   -8.179392   -1.932457    0.271865
   4 C     6.0000    0    12.011   -8.188274   -0.026103   -1.547958
   5 C     6.0000    0    12.011   -6.430749    1.940894   -1.464171
   6 H     1.0000    0     1.008   -3.499535    0.326208    4.003253
   7 H     1.0000    0     1.008   -9.533591   -3.452945    0.186552
   8 H     1.0000    0     1.008   -6.440693    3.333987   -2.959827
   9 C     6.0000    0    12.011   -2.708932    4.012932    0.473492
  10 C     6.0000    0    12.011   -3.360137    6.551550    0.349875
  11 C     6.0000    0    12.011   -0.122793    3.368613    0.540609
  12 C     6.0000    0    12.011   -1.516483    8.415553    0.320127
  13 H     1.0000    0     1.008   -5.341320    7.065686    0.305898
  14 C     6.0000    0    12.011    1.715439    5.244307    0.498268
  15 C     6.0000    0    12.011    1.018519    7.764274    0.400038
  16 H     1.0000    0     1.008   -2.069371   10.384589    0.236792
  17 H     1.0000    0     1.008    3.688672    4.712147    0.563972
  18 H     1.0000    0     1.008    2.460304    9.215321    0.377106
  19 C     6.0000    0    12.011    0.487151    0.713916    0.590029
  20 C     6.0000    0    12.011   -0.574556   -1.364792    0.949665
  21 H     1.0000    0     1.008   -0.974235   -3.330106    1.181697
  22 Au   19.0000*   0   196.966    4.040603   -0.928984   -0.264713
  23 Cl   17.0000    0    35.453    2.682421   -1.972577   -4.234035
  24 Cl   17.0000    0    35.453    8.056558   -2.153923   -1.230697
  25 Cl   17.0000    0    35.453    5.254255    0.183398    3.740696
  26 O     8.0000    0    15.999   -6.253907   -3.534737    4.082840
  27 O     8.0000    0    15.999   -9.818960    0.048672   -3.487512
  28 C     6.0000    0    12.011   -8.020071   -5.532812    4.140299
  29 H     1.0000    0     1.008   -7.857808   -6.732969    2.464783
  30 H     1.0000    0     1.008   -7.568990   -6.640692    5.810934
  31 H     1.0000    0     1.008   -9.954238   -4.820508    4.295731
  32 C     6.0000    0    12.011  -11.610379   -1.909823   -3.739791
  33 H     1.0000    0     1.008  -12.693941   -1.472286   -5.429862
  34 H     1.0000    0     1.008  -10.689686   -3.745016   -3.979189
  35 H     1.0000    0     1.008  -12.885935   -1.980017   -2.114307
* core charge reduced due to ECP

--------------------------------
INTERNAL COORDINATES (ANGSTROEM)
--------------------------------
 C      0   0   0     0.000000000000     0.00000000     0.00000000
 C      1   0   0     1.403495418699     0.00000000     0.00000000
 C      2   1   0     1.399223096366   119.53276541     0.00000000
 C      3   2   1     1.390305221232   120.76777659     0.56713879
 C      4   3   2     1.394662628194   118.80014319   358.93459087
 C      1   2   3     1.380271177981   120.01607272     0.04553466
 H      2   1   3     1.082382409089   121.25436088   191.05034674
 H      4   3   2     1.078407863612   120.63163333   179.44066236
 H      6   1   2     1.081619720596   121.28402772   182.47566261
 C      1   2   3     1.475694461829   119.69375609   183.30369211
 C     10   1   2     1.388415459247   121.11384380   230.91568236
 C     10   1   2     1.410807538131   120.44503768    52.96440711
 C     11  10   1     1.387459362110   120.92255539   181.32770406
 H     11  10   1     1.083374079602   118.95894645     2.27522628
 C     12  10   1     1.389945942100   120.39002405   178.37843777
 C     15  12  10     1.384542268000   120.13101964     0.26294049
 H     13  11  10     1.083164269415   119.63149452   180.44392688
 H     15  12  10     1.082055517018   119.27423663   179.58505439
 H     16  15  12     1.082527475469   119.72681922   179.69168713
 C     12  10   1     1.441644962171   116.94507399   359.86318017
 C     20  12  10     1.249753315381   139.44639220   346.60866294
 H     21  20  12     1.068366507711   164.43034754   181.85624842
 Au    20  12  10     2.120457813577   126.45525862   162.73040331
 Cl    23  20  12     2.287690510341    90.92954707   260.07627184
 Cl    23  20  12     2.279857265825   172.31347705     4.99329977
 Cl    23  20  12     2.291627124735    86.89985098    80.05931556
 O      3   2   1     1.344862805893   115.39103503   180.65748207
 O      5   4   3     1.341503393685   123.49012071   180.08533394
 C     27   3   2     1.411519490028   118.67273687   178.48125308
 H     29  27   3     1.094010628466   111.43387399    62.42051528
 H     29  27   3     1.087313623051   106.02436184   181.11673557
 H     29  27   3     1.093815464562   111.28839058   299.83453901
 C     28   5   4     1.410883001303   118.87688996   359.19689575
 H     33  28   5     1.087312275958   106.00599203   180.72169578
 H     33  28   5     1.093864344478   111.33665789   299.35132433
 H     33  28   5     1.094024090051   111.41366289    62.05808211

---------------------------
INTERNAL COORDINATES (A.U.)
---------------------------
 C      0   0   0     0.000000000000     0.00000000     0.00000000
 C      1   0   0     2.652221971555     0.00000000     0.00000000
 C      2   1   0     2.644148452388   119.53276541     0.00000000
 C      3   2   1     2.627296110690   120.76777659     0.56713879
 C      4   3   2     2.635530416502   118.80014319   358.93459087
 C      1   2   3     2.608334516929   120.01607272     0.04553466
 H      2   1   3     2.045406325353   121.25436088   191.05034674
 H      4   3   2     2.037895522894   120.63163333   179.44066236
 H      6   1   2     2.043965052975   121.28402772   182.47566261
 C      1   2   3     2.788658390202   119.69375609   183.30369211
 C     10   1   2     2.623724978079   121.11384380   230.91568236
 C     10   1   2     2.666039874738   120.44503768    52.96440711
 C     11  10   1     2.621918216334   120.92255539   181.32770406
 H     11  10   1     2.047280311037   118.95894645     2.27522628
 C     12  10   1     2.626617171525   120.39002405   178.37843777
 C     15  12  10     2.616405707358   120.13101964     0.26294049
 H     13  11  10     2.046883827244   119.63149452   180.44392688
 H     15  12  10     2.044788588863   119.27423663   179.58505439
 H     16  15  12     2.045680461082   119.72681922   179.69168713
 C     12  10   1     2.724314160850   116.94507399   359.86318017
 C     20  12  10     2.361691501031   139.44639220   346.60866294
 H     21  20  12     2.018920110227   164.43034754   181.85624842
 Au    20  12  10     4.007084546195   126.45525862   162.73040331
 Cl    23  20  12     4.323108543714    90.92954707   260.07627184
 Cl    23  20  12     4.308305856839   172.31347705     4.99329977
 Cl    23  20  12     4.330547666814    86.89985098    80.05931556
 O      3   2   1     2.541422390834   115.39103503   180.65748207
 O      5   4   3     2.535074021791   123.49012071   180.08533394
 C     27   3   2     2.667385268845   118.67273687   178.48125308
 H     29  27   3     2.067380475400   111.43387399    62.42051528
 H     29  27   3     2.054724969249   106.02436184   181.11673557
 H     29  27   3     2.067011669070   111.28839058   299.83453901
 C     28   5   4     2.666182479467   118.87688996   359.19689575
 H     33  28   5     2.054722423612   106.00599203   180.72169578
 H     33  28   5     2.067104038724   111.33665789   299.35132433
 H     33  28   5     2.067405914108   111.41366289    62.05808211

---------------------
BASIS SET INFORMATION
---------------------
There are 5 groups of distinct atoms

 Group   1 Type C   : 12s6p3d1f contracted to 6s3p3d1f pattern {621111/411/111/1}
 Group   2 Type H   : 5s3p1d contracted to 3s3p1d pattern {311/111/1}
 Group   3 Type Au  : 8s8p6d2f1g contracted to 6s5p3d2f1g pattern {311111/41111/411/11/1}
 Group   4 Type Cl  : 15s10p4d1f contracted to 6s6p4d1f pattern {732111/511111/1111/1}
 Group   5 Type O   : 12s7p3d1f contracted to 6s4p3d1f pattern {621111/4111/111/1}

Atom   0C    basis set group =>   1
Atom   1C    basis set group =>   1
Atom   2C    basis set group =>   1
Atom   3C    basis set group =>   1
Atom   4C    basis set group =>   1
Atom   5C    basis set group =>   1
Atom   6H    basis set group =>   2
Atom   7H    basis set group =>   2
Atom   8H    basis set group =>   2
Atom   9C    basis set group =>   1
Atom  10C    basis set group =>   1
Atom  11C    basis set group =>   1
Atom  12C    basis set group =>   1
Atom  13H    basis set group =>   2
Atom  14C    basis set group =>   1
Atom  15C    basis set group =>   1
Atom  16H    basis set group =>   2
Atom  17H    basis set group =>   2
Atom  18H    basis set group =>   2
Atom  19C    basis set group =>   1
Atom  20C    basis set group =>   1
Atom  21H    basis set group =>   2
Atom  22Au   basis set group =>   3
Atom  23Cl   basis set group =>   4
Atom  24Cl   basis set group =>   4
Atom  25Cl   basis set group =>   4
Atom  26O    basis set group =>   5
Atom  27O    basis set group =>   5
Atom  28C    basis set group =>   1
Atom  29H    basis set group =>   2
Atom  30H    basis set group =>   2
Atom  31H    basis set group =>   2
Atom  32C    basis set group =>   1
Atom  33H    basis set group =>   2
Atom  34H    basis set group =>   2
Atom  35H    basis set group =>   2
---------------------------------
AUXILIARY/C BASIS SET INFORMATION
---------------------------------
There are 5 groups of distinct atoms

 Group   1 Type C   : 9s7p6d4f1g contracted to 9s7p5d4f1g pattern {111111111/1111111/21111/1111/1}
 Group   2 Type H   : 5s4p3d1f contracted to 5s4p3d1f pattern {11111/1111/111/1}
 Group   3 Type Au  : 9s9p8d5f4g3h1i contracted to 9s9p8d5f4g3h1i pattern {111111111/111111111/11111111/11111/1111/111/1}
 Group   4 Type Cl  : 12s9p8d6f2g contracted to 12s9p8d6f2g pattern {111111111111/111111111/11111111/111111/11}
 Group   5 Type O   : 9s7p6d4f1g contracted to 9s7p5d4f1g pattern {111111111/1111111/21111/1111/1}

Atom   0C    basis set group =>   1
Atom   1C    basis set group =>   1
Atom   2C    basis set group =>   1
Atom   3C    basis set group =>   1
Atom   4C    basis set group =>   1
Atom   5C    basis set group =>   1
Atom   6H    basis set group =>   2
Atom   7H    basis set group =>   2
Atom   8H    basis set group =>   2
Atom   9C    basis set group =>   1
Atom  10C    basis set group =>   1
Atom  11C    basis set group =>   1
Atom  12C    basis set group =>   1
Atom  13H    basis set group =>   2
Atom  14C    basis set group =>   1
Atom  15C    basis set group =>   1
Atom  16H    basis set group =>   2
Atom  17H    basis set group =>   2
Atom  18H    basis set group =>   2
Atom  19C    basis set group =>   1
Atom  20C    basis set group =>   1
Atom  21H    basis set group =>   2
Atom  22Au   basis set group =>   3
Atom  23Cl   basis set group =>   4
Atom  24Cl   basis set group =>   4
Atom  25Cl   basis set group =>   4
Atom  26O    basis set group =>   5
Atom  27O    basis set group =>   5
Atom  28C    basis set group =>   1
Atom  29H    basis set group =>   2
Atom  30H    basis set group =>   2
Atom  31H    basis set group =>   2
Atom  32C    basis set group =>   1
Atom  33H    basis set group =>   2
Atom  34H    basis set group =>   2
Atom  35H    basis set group =>   2
----------------------------------
AUXILIARY/JK BASIS SET INFORMATION
----------------------------------
There are 5 groups of distinct atoms

 Group   1 Type C   : 14s10p6d2f1g contracted to 10s8p5d1f1g pattern {5111111111/31111111/21111/2/1}
 Group   2 Type H   : 4s2p2d contracted to 2s2p2d pattern {31/11/11}
 Group   3 Type Au  : 13s12p11d9f5g3h2i contracted to 13s11p10d8f4g3h2i pattern {1111111111111/21111111111/2111111111/21111111/2111/111/11}
 Group   4 Type Cl  : 16s12p10d4f1g contracted to 13s11p9d4f1g pattern {4111111111111/21111111111/211111111/1111/1}
 Group   5 Type O   : 14s10p6d2f1g contracted to 10s8p4d2f1g pattern {5111111111/31111111/3111/11/1}

Atom   0C    basis set group =>   1
Atom   1C    basis set group =>   1
Atom   2C    basis set group =>   1
Atom   3C    basis set group =>   1
Atom   4C    basis set group =>   1
Atom   5C    basis set group =>   1
Atom   6H    basis set group =>   2
Atom   7H    basis set group =>   2
Atom   8H    basis set group =>   2
Atom   9C    basis set group =>   1
Atom  10C    basis set group =>   1
Atom  11C    basis set group =>   1
Atom  12C    basis set group =>   1
Atom  13H    basis set group =>   2
Atom  14C    basis set group =>   1
Atom  15C    basis set group =>   1
Atom  16H    basis set group =>   2
Atom  17H    basis set group =>   2
Atom  18H    basis set group =>   2
Atom  19C    basis set group =>   1
Atom  20C    basis set group =>   1
Atom  21H    basis set group =>   2
Atom  22Au   basis set group =>   3
Atom  23Cl   basis set group =>   4
Atom  24Cl   basis set group =>   4
Atom  25Cl   basis set group =>   4
Atom  26O    basis set group =>   5
Atom  27O    basis set group =>   5
Atom  28C    basis set group =>   1
Atom  29H    basis set group =>   2
Atom  30H    basis set group =>   2
Atom  31H    basis set group =>   2
Atom  32C    basis set group =>   1
Atom  33H    basis set group =>   2
Atom  34H    basis set group =>   2
Atom  35H    basis set group =>   2
-------------------------
ECP PARAMETER INFORMATION
-------------------------

 Group 1, Type Au ECP Def2-ECP (replacing 60 core electrons, lmax=3)

Atom  22Au   ECP group =>   1



           ************************************************************
           *        Program running with 24 parallel MPI-processes    *
           *              working on a common directory               *
           ************************************************************
------------------------------------------------------------------------------
                           ORCA GTO INTEGRAL CALCULATION
                           -- RI-GTO INTEGRALS CHOSEN --
------------------------------------------------------------------------------

                         BASIS SET STATISTICS AND STARTUP INFO

Gaussian basis set:
 # of primitive gaussian shells          ...  639
 # of primitive gaussian functions       ... 1509
 # of contracted shells                  ...  402
 # of contracted basis functions         ... 1122
 Highest angular momentum                ...    4
 Maximum contraction depth               ...    7
Auxiliary gaussian basis set:
 # of primitive gaussian shells          ...  890
 # of primitive gaussian functions       ... 2714
 # of contracted shells                  ...  699
 # of contracted aux-basis functions     ... 2237
 Highest angular momentum                ...    6
 Maximum contraction depth               ...    5
Ratio of auxiliary to basis functions    ...  1.99
Integral package used                  ... LIBINT
 One Electron integrals                  
   ECP integrals                         ... done
 Ordering auxiliary basis shells         ... done
 Integral threshhold             Thresh  ...  1.000e-10
 Primitive cut-off               TCut    ...  1.000e-11
 Pre-screening matrix                    ... done
 Shell pair data                         ... 
 Ordering of the shell pairs             ... done (   0.012 sec) 60912 of 81003 pairs
 Determination of significant pairs      ... done (   0.000 sec)
 Creation of shell pair data             ... done (   0.006 sec)
 Storage of shell pair data              ... done (   0.041 sec)
 Shell pair data done in (   0.059 sec)
 Computing two index integrals           ... done
 Cholesky decomposition of the V-matrix  ... done


Timings:
 Total evaluation time                   ...   4.464 sec (  0.074 min)
 One electron matrix time                ...   3.307 sec (  0.055 min) = 74.1%
 Schwartz matrix evaluation time         ...   0.636 sec (  0.011 min) = 14.3%
 Two index repulsion integral time       ...   0.196 sec (  0.003 min) =  4.4%
 Cholesky decomposition of V             ...   0.239 sec (  0.004 min) =  5.3%
 Three index repulsion integral time     ...   0.000 sec (  0.000 min) =  0.0%



           ************************************************************
           *        Program running with 24 parallel MPI-processes    *
           *              working on a common directory               *
           ************************************************************
-------------------------------------------------------------------------------
                                 ORCA SCF
-------------------------------------------------------------------------------

------------
SCF SETTINGS
------------
Hamiltonian:
 Density Functional     Method          .... DFT(GTOs)
 Exchange Functional    Exchange        .... B88
   X-Alpha parameter    XAlpha          ....  0.666667
   Becke's b parameter  XBeta           ....  0.004200
 Correlation Functional Correlation     .... LYP
 LDA part of GGA corr.  LDAOpt          .... VWN-3
 Gradients option       PostSCFGGA      .... off
 Hybrid DFT is turned on
   Fraction HF Exchange ScalHFX         ....  0.530000
   Scaling of DF-GGA-X  ScalDFX         ....  0.470000
   Scaling of DF-GGA-C  ScalDFC         ....  0.730000
   Scaling of DF-LDA-C  ScalLDAC        ....  0.730000
   Perturbative correction              ....  0.270000
   Density functional embedding theory  .... OFF
 RI-approximation to the Coulomb term is turned on
   Number of auxiliary basis functions  .... 2237
   RI-JK (J+K treated both via RI)      .... on


General Settings:
 Integral files         IntName         .... TMB26_T1
 Hartree-Fock type      HFTyp           .... RHF
 Total Charge           Charge          ....    0
 Multiplicity           Mult            ....    1
 Number of Electrons    NEL             ....  196
 Basis Dimension        Dim             .... 1122
 Nuclear Repulsion      ENuc            ....   2410.1440826510 Eh

Convergence Acceleration:
 DIIS                   CNVDIIS         .... on
   Start iteration      DIISMaxIt       ....    12
   Startup error        DIISStart       ....  0.200000
   # of expansion vecs  DIISMaxEq       ....     5
   Bias factor          DIISBfac        ....   1.050
   Max. coefficient     DIISMaxC        ....  10.000
 Newton-Raphson         CNVNR           .... off
 SOSCF                  CNVSOSCF        .... off
 Level Shifting         CNVShift        .... on
   Level shift para.    LevelShift      ....    0.2500
   Turn off err/grad.   ShiftErr        ....    0.0010
 Zerner damping         CNVZerner       .... off
 Static damping         CNVDamp         .... on
   Fraction old density DampFac         ....    0.7000
   Max. Damping (<1)    DampMax         ....    0.9800
   Min. Damping (>=0)   DampMin         ....    0.0000
   Turn off err/grad.   DampErr         ....    0.1000
 Fernandez-Rico         CNVRico         .... off

SCF Procedure:
 Maximum # iterations   MaxIter         ....   125
 SCF integral mode      SCFMode         .... Direct
   Integral package                     .... LIBINT
 Reset frequency        DirectResetFreq ....    20
 Integral Threshold     Thresh          ....  1.000e-10 Eh
 Primitive CutOff       TCut            ....  1.000e-11 Eh

Convergence Tolerance:
 Convergence Check Mode ConvCheckMode   .... Total+1el-Energy
 Convergence forced     ConvForced      .... 0
 Energy Change          TolE            ....  1.000e-06 Eh
 1-El. energy change                    ....  1.000e-03 Eh
 DIIS Error             TolErr          ....  1.000e-06


Diagonalization of the overlap matrix:
Smallest eigenvalue                        ... 1.773e-07
Time for diagonalization                   ...    0.197 sec
Threshold for overlap eigenvalues          ... 1.000e-08
Number of eigenvalues below threshold      ... 0
Time for construction of square roots      ...    0.165 sec
Total time needed                          ...    0.366 sec

-------------------
DFT GRID GENERATION
-------------------

General Integration Accuracy     IntAcc      ...  4.670
Radial Grid Type                 RadialGrid  ... Gauss-Chebyshev
Angular Grid (max. acc.)         AngularGrid ... Lebedev-302
Angular grid pruning method      GridPruning ... 3 (G Style)
Weight generation scheme         WeightScheme... Becke
Basis function cutoff            BFCut       ...    1.0000e-10
Integration weight cutoff        WCut        ...    1.0000e-14
Grids for H and He will be reduced by one unit

# of grid points (after initial pruning)     ... 191198 (   0.0 sec)
# of grid points (after weights+screening)   ... 168125 (   0.2 sec)
nearest neighbour list constructed           ...    0.0 sec
Grid point re-assignment to atoms done       ...    0.0 sec
Grid point division into batches done        ...    0.6 sec
Reduced shell lists constructed in    1.4 sec

Total number of grid points                  ...   168125
Total number of batches                      ...     2644
Average number of points per batch           ...       63
Average number of grid points per atom       ...     4670
Average number of shells per batch           ...   238.61 (59.36%)
Average number of basis functions per batch  ...   664.21 (59.20%)
Average number of large shells per batch     ...   184.10 (77.16%)
Average number of large basis fcns per batch ...   508.37 (76.54%)
Average number of aux-shells per batch       ...   238.61 (34.14%)
Average number of aux functions per batch    ...   664.21 (29.69%)
Maximum spatial batch extension              ...   4.34,  2.55,  4.13 au
Average spatial batch extension              ...   0.05,  0.05,  0.05 au

Time for grid setup =    1.621 sec

------------------------------
INITIAL GUESS: MODEL POTENTIAL
------------------------------
Loading Hartree-Fock densities                     ... done
  calling /sw/apps/orca/orca_4_2_0_linux_x86-64_openmpi314/orca TMB26_T1_atom79.inp > TMB26_T1_atom79.out in order to generate an atomic fitting density for atom 22 (Au with ECP) on-the-fly... 
    atom 22 (Au), assumed electronic state with S=2: 1s2 2s2 2p6 3s2 3p6 4s2 3d10 4p6 5s2 4d10 5p6 6s1 4f14 5d10           ... done
Calculating cut-offs                               ... done
Setting up the integral package                    ... done
Initializing the effective Hamiltonian             ... done
Starting the Coulomb interaction                   ... done (   0.2 sec)
Reading the grid                                   ... done
Mapping shells                                     ... done
Starting the XC term evaluation                    ... done (   0.6 sec)
  promolecular density results
     # of electrons  =    255.994112152
     EX              =   -552.856650929
     EC              =     -3.814597929
     EX+EC           =   -556.671248858
Transforming the Hamiltonian                       ... done (   0.1 sec)
Diagonalizing the Hamiltonian                      ... done (   0.2 sec)
Back transforming the eigenvectors                 ... done (   0.1 sec)
Now organizing SCF variables                       ... done
                      ------------------
                      INITIAL GUESS DONE (   3.9 sec)
                      ------------------
--------------
SCF ITERATIONS
--------------
ITER       Energy         Delta-E        Max-DP      RMS-DP      [F,P]     Damp
  0  -2282.0980845090   0.000000000000 4.83771371  0.01050434  0.5264429 0.7000
  1  -2281.9808568177   0.117227691284 3.83818089  0.00815911  0.3913832 0.7000
  2  -2282.1179571627  -0.137100345008 2.99656013  0.00589263  0.2771417 0.7000
                               ***Turning on DIIS***
  3  -2282.3126849270  -0.194727764309 2.08040331  0.00405053  0.1928629 0.7000
  4  -2282.4717393613  -0.159054434313 1.33928905  0.00269084  0.1322059 0.7000
  5  -2282.5750736205  -0.103334259238 2.86886222  0.00582087  0.0899596 0.0000
  6  -2282.6505487097  -0.075475089112 0.12114588  0.00070373  0.0121276 0.0000
  7  -2282.6515933765  -0.001044666883 0.23014664  0.00074727  0.0017333 0.0000
  8  -2282.6516423074  -0.000048930915 0.14041537  0.00050465  0.0019885 0.0000
  9  -2282.6516630531  -0.000020745687 0.36776158  0.00130122  0.0003100 0.0000
 10  -2282.6516703418  -0.000007288615 0.39289903  0.00109341  0.0002481 0.0000
 11  -2282.6516712486  -0.000000906803 0.14028452  0.00062019  0.0001042 0.0000
 12  -2282.6516715327  -0.000000284120 0.19070174  0.00055589  0.0000613 0.0000
                 **** Energy Check signals convergence ****

               *****************************************************
               *                     SUCCESS                       *
               *           SCF CONVERGED AFTER  13 CYCLES          *
               *****************************************************


----------------
TOTAL SCF ENERGY
----------------

Total Energy       :        -2282.65167154 Eh          -62114.10980 eV

Components:
Nuclear Repulsion  :         2410.14408265 Eh           65583.35468 eV
Electronic Energy  :        -4692.79575419 Eh         -127697.46449 eV
One Electron Energy:        -7984.71657750 Eh         -217275.18413 eV
Two Electron Energy:         3291.92082331 Eh           89577.71965 eV

Virial components:
Potential Energy   :        -4471.75919107 Eh         -121682.75382 eV
Kinetic Energy     :         2189.10751952 Eh           59568.64402 eV
Virial Ratio       :            2.04273164


DFT components:
N(Alpha)           :       97.999859486387 electrons
N(Beta)            :       97.999859486387 electrons
N(Total)           :      195.999718972773 electrons
E(X)               :      -93.782603850839 Eh       
E(C)               :       -5.207701861846 Eh       
E(XC)              :      -98.990305712685 Eh       
DFET-embed. en.    :        0.000000000000 Eh       

---------------
SCF CONVERGENCE
---------------

  Last Energy change         ...   -8.1086e-09  Tolerance :   1.0000e-06
  Last MAX-Density change    ...    1.9879e-01  Tolerance :   1.0000e-05
  Last RMS-Density change    ...    8.3439e-04  Tolerance :   1.0000e-06
  Last DIIS Error            ...    1.9461e-05  Tolerance :   1.0000e-06

             **** THE GBW FILE WAS UPDATED (TMB26_T1.gbw) ****
             **** DENSITY FILE WAS UPDATED (TMB26_T1.scfp) ****
             **** ENERGY FILE WAS UPDATED (TMB26_T1.en.tmp) ****
             **** THE GBW FILE WAS UPDATED (TMB26_T1.gbw) ****
             **** DENSITY FILE WAS UPDATED (TMB26_T1.scfp) ****
----------------
ORBITAL ENERGIES
----------------

  NO   OCC          E(Eh)            E(eV) 
   0   2.0000    -102.869124     -2799.2112 
   1   2.0000    -102.868664     -2799.1986 
   2   2.0000    -102.860238     -2798.9694 
   3   2.0000     -19.792959      -538.5938 
   4   2.0000     -19.789793      -538.5076 
   5   2.0000     -10.723248      -291.7944 
   6   2.0000     -10.722341      -291.7697 
   7   2.0000     -10.715102      -291.5728 
   8   2.0000     -10.697715      -291.0996 
   9   2.0000     -10.695185      -291.0308 
  10   2.0000     -10.692506      -290.9579 
  11   2.0000     -10.673245      -290.4338 
  12   2.0000     -10.669476      -290.3312 
  13   2.0000     -10.665429      -290.2211 
  14   2.0000     -10.649004      -289.7741 
  15   2.0000     -10.648312      -289.7553 
  16   2.0000     -10.646800      -289.7142 
  17   2.0000     -10.646670      -289.7106 
  18   2.0000     -10.643922      -289.6358 
  19   2.0000     -10.642904      -289.6081 
  20   2.0000     -10.636230      -289.4265 
  21   2.0000      -9.874032      -268.6861 
  22   2.0000      -9.873514      -268.6720 
  23   2.0000      -9.865020      -268.4408 
  24   2.0000      -7.512974      -204.4384 
  25   2.0000      -7.512493      -204.4253 
  26   2.0000      -7.508457      -204.3155 
  27   2.0000      -7.508103      -204.3059 
  28   2.0000      -7.507945      -204.3016 
  29   2.0000      -7.507527      -204.2902 
  30   2.0000      -7.504148      -204.1983 
  31   2.0000      -7.499363      -204.0681 
  32   2.0000      -7.498875      -204.0548 
  33   2.0000      -4.507955      -122.6677 
  34   2.0000      -2.624920       -71.4277 
  35   2.0000      -2.623235       -71.3818 
  36   2.0000      -2.605732       -70.9056 
  37   2.0000      -1.256026       -34.1782 
  38   2.0000      -1.252902       -34.0932 
  39   2.0000      -1.041621       -28.3439 
  40   2.0000      -1.007853       -27.4251 
  41   2.0000      -0.967057       -26.3150 
  42   2.0000      -0.928662       -25.2702 
  43   2.0000      -0.911362       -24.7994 
  44   2.0000      -0.896514       -24.3954 
  45   2.0000      -0.888836       -24.1864 
  46   2.0000      -0.876761       -23.8579 
  47   2.0000      -0.872898       -23.7528 
  48   2.0000      -0.871485       -23.7143 
  49   2.0000      -0.855910       -23.2905 
  50   2.0000      -0.818189       -22.2641 
  51   2.0000      -0.762706       -20.7543 
  52   2.0000      -0.748721       -20.3737 
  53   2.0000      -0.727871       -19.8064 
  54   2.0000      -0.704086       -19.1591 
  55   2.0000      -0.679468       -18.4893 
  56   2.0000      -0.659946       -17.9580 
  57   2.0000      -0.627959       -17.0876 
  58   2.0000      -0.623898       -16.9771 
  59   2.0000      -0.601046       -16.3553 
  60   2.0000      -0.595324       -16.1996 
  61   2.0000      -0.588817       -16.0225 
  62   2.0000      -0.580737       -15.8027 
  63   2.0000      -0.579256       -15.7624 
  64   2.0000      -0.573568       -15.6076 
  65   2.0000      -0.547694       -14.9035 
  66   2.0000      -0.536604       -14.6017 
  67   2.0000      -0.532359       -14.4862 
  68   2.0000      -0.530276       -14.4295 
  69   2.0000      -0.524411       -14.2699 
  70   2.0000      -0.514774       -14.0077 
  71   2.0000      -0.510404       -13.8888 
  72   2.0000      -0.493285       -13.4230 
  73   2.0000      -0.490253       -13.3405 
  74   2.0000      -0.483442       -13.1551 
  75   2.0000      -0.482971       -13.1423 
  76   2.0000      -0.477928       -13.0051 
  77   2.0000      -0.468941       -12.7605 
  78   2.0000      -0.452118       -12.3028 
  79   2.0000      -0.449948       -12.2437 
  80   2.0000      -0.445888       -12.1332 
  81   2.0000      -0.436254       -11.8711 
  82   2.0000      -0.433685       -11.8012 
  83   2.0000      -0.423809       -11.5324 
  84   2.0000      -0.408050       -11.1036 
  85   2.0000      -0.399236       -10.8638 
  86   2.0000      -0.386569       -10.5191 
  87   2.0000      -0.368875       -10.0376 
  88   2.0000      -0.360336        -9.8052 
  89   2.0000      -0.340317        -9.2605 
  90   2.0000      -0.333895        -9.0858 
  91   2.0000      -0.330757        -9.0004 
  92   2.0000      -0.326328        -8.8798 
  93   2.0000      -0.325261        -8.8508 
  94   2.0000      -0.315750        -8.5920 
  95   2.0000      -0.310873        -8.4593 
  96   2.0000      -0.297423        -8.0933 
  97   2.0000      -0.283277        -7.7084 
  98   0.0000      -0.089055        -2.4233 
  99   0.0000      -0.034101        -0.9279 
 100   0.0000      -0.012200        -0.3320 
 101   0.0000       0.002781         0.0757 
 102   0.0000       0.005031         0.1369 
 103   0.0000       0.021262         0.5786 
 104   0.0000       0.023920         0.6509 
 105   0.0000       0.030255         0.8233 
 106   0.0000       0.033635         0.9153 
 107   0.0000       0.036677         0.9980 
 108   0.0000       0.040646         1.1060 
 109   0.0000       0.044429         1.2090 
 110   0.0000       0.050233         1.3669 
 111   0.0000       0.053546         1.4571 
 112   0.0000       0.055482         1.5097 
 113   0.0000       0.062849         1.7102 
 114   0.0000       0.064032         1.7424 
 115   0.0000       0.070161         1.9092 
 116   0.0000       0.073437         1.9983 
 117   0.0000       0.078224         2.1286 
 118   0.0000       0.082106         2.2342 
 119   0.0000       0.085081         2.3152 
 120   0.0000       0.090027         2.4498 
 121   0.0000       0.090877         2.4729 
 122   0.0000       0.092994         2.5305 
 123   0.0000       0.096719         2.6319 
 124   0.0000       0.099969         2.7203 
 125   0.0000       0.103713         2.8222 
 126   0.0000       0.106364         2.8943 
 127   0.0000       0.110845         3.0162 
 128   0.0000       0.115339         3.1385 
 129   0.0000       0.122234         3.3262 
 130   0.0000       0.124139         3.3780 
 131   0.0000       0.125226         3.4076 
 132   0.0000       0.127217         3.4618 
 133   0.0000       0.129624         3.5272 
 134   0.0000       0.134544         3.6611 
 135   0.0000       0.136370         3.7108 
 136   0.0000       0.142428         3.8757 
 137   0.0000       0.146445         3.9850 
 138   0.0000       0.149267         4.0618 
 139   0.0000       0.153676         4.1817 
 140   0.0000       0.158963         4.3256 
 141   0.0000       0.160860         4.3772 
 142   0.0000       0.165091         4.4924 
 143   0.0000       0.169608         4.6153 
 144   0.0000       0.172834         4.7031 
 145   0.0000       0.174680         4.7533 
 146   0.0000       0.178164         4.8481 
 147   0.0000       0.180875         4.9218 
 148   0.0000       0.184851         5.0301 
 149   0.0000       0.185892         5.0584 
 150   0.0000       0.190129         5.1737 
 151   0.0000       0.194851         5.3022 
 152   0.0000       0.196944         5.3591 
 153   0.0000       0.199996         5.4422 
 154   0.0000       0.202793         5.5183 
 155   0.0000       0.204983         5.5779 
 156   0.0000       0.210181         5.7193 
 157   0.0000       0.215413         5.8617 
 158   0.0000       0.217785         5.9262 
 159   0.0000       0.219678         5.9777 
 160   0.0000       0.220904         6.0111 
 161   0.0000       0.228113         6.2073 
 162   0.0000       0.229529         6.2458 
 163   0.0000       0.232059         6.3147 
 164   0.0000       0.237601         6.4654 
 165   0.0000       0.239373         6.5137 
 166   0.0000       0.241231         6.5642 
 167   0.0000       0.244208         6.6452 
 168   0.0000       0.247297         6.7293 
 169   0.0000       0.251236         6.8365 
 170   0.0000       0.253342         6.8938 
 171   0.0000       0.254960         6.9378 
 172   0.0000       0.258043         7.0217 
 173   0.0000       0.262343         7.1387 
 174   0.0000       0.262767         7.1502 
 175   0.0000       0.265591         7.2271 
 176   0.0000       0.268447         7.3048 
 177   0.0000       0.269304         7.3281 
 178   0.0000       0.273171         7.4334 
 179   0.0000       0.276535         7.5249 
 180   0.0000       0.277589         7.5536 
 181   0.0000       0.279819         7.6143 
 182   0.0000       0.281939         7.6719 
 183   0.0000       0.286173         7.7872 
 184   0.0000       0.287563         7.8250 
 185   0.0000       0.289565         7.8795 
 186   0.0000       0.289702         7.8832 
 187   0.0000       0.291587         7.9345 
 188   0.0000       0.294891         8.0244 
 189   0.0000       0.296470         8.0674 
 190   0.0000       0.299593         8.1524 
 191   0.0000       0.301959         8.2167 
 192   0.0000       0.304905         8.2969 
 193   0.0000       0.308302         8.3893 
 194   0.0000       0.310537         8.4501 
 195   0.0000       0.310976         8.4621 
 196   0.0000       0.317221         8.6320 
 197   0.0000       0.317735         8.6460 
 198   0.0000       0.318674         8.6716 
 199   0.0000       0.321026         8.7356 
 200   0.0000       0.322271         8.7694 
 201   0.0000       0.322971         8.7885 
 202   0.0000       0.327315         8.9067 
 203   0.0000       0.328508         8.9392 
 204   0.0000       0.328793         8.9469 
 205   0.0000       0.330972         9.0062 
 206   0.0000       0.332264         9.0414 
 207   0.0000       0.334824         9.1110 
 208   0.0000       0.339117         9.2278 
 209   0.0000       0.343137         9.3372 
 210   0.0000       0.344148         9.3648 
 211   0.0000       0.346618         9.4320 
 212   0.0000       0.348139         9.4734 
 213   0.0000       0.350874         9.5478 
 214   0.0000       0.352813         9.6005 
 215   0.0000       0.354898         9.6573 
 216   0.0000       0.355720         9.6796 
 217   0.0000       0.360872         9.8198 
 218   0.0000       0.362064         9.8523 
 219   0.0000       0.365118         9.9354 
 220   0.0000       0.365885         9.9562 
 221   0.0000       0.367363         9.9964 
 222   0.0000       0.369770        10.0620 
 223   0.0000       0.371677        10.1138 
 224   0.0000       0.373723        10.1695 
 225   0.0000       0.375864        10.2278 
 226   0.0000       0.380891        10.3646 
 227   0.0000       0.382182        10.3997 
 228   0.0000       0.383910        10.4467 
 229   0.0000       0.387888        10.5550 
 230   0.0000       0.389159        10.5895 
 231   0.0000       0.389774        10.6063 
 232   0.0000       0.391963        10.6659 
 233   0.0000       0.396531        10.7902 
 234   0.0000       0.399817        10.8796 
 235   0.0000       0.401324        10.9206 
 236   0.0000       0.404532        11.0079 
 237   0.0000       0.406179        11.0527 
 238   0.0000       0.407714        11.0945 
 239   0.0000       0.411219        11.1898 
 240   0.0000       0.415294        11.3007 
 241   0.0000       0.419094        11.4041 
 242   0.0000       0.422135        11.4869 
 243   0.0000       0.423130        11.5139 
 244   0.0000       0.430971        11.7273 
 245   0.0000       0.433334        11.7916 
 246   0.0000       0.435943        11.8626 
 247   0.0000       0.439206        11.9514 
 248   0.0000       0.440201        11.9785 
 249   0.0000       0.444448        12.0940 
 250   0.0000       0.448368        12.2007 
 251   0.0000       0.453079        12.3289 
 252   0.0000       0.454444        12.3661 
 253   0.0000       0.458259        12.4699 
 254   0.0000       0.459746        12.5103 
 255   0.0000       0.463157        12.6031 
 256   0.0000       0.466856        12.7038 
 257   0.0000       0.469387        12.7727 
 258   0.0000       0.470767        12.8102 
 259   0.0000       0.476425        12.9642 
 260   0.0000       0.479239        13.0408 
 261   0.0000       0.482827        13.1384 
 262   0.0000       0.488339        13.2884 
 263   0.0000       0.489617        13.3232 
 264   0.0000       0.493395        13.4260 
 265   0.0000       0.496455        13.5092 
 266   0.0000       0.497797        13.5457 
 267   0.0000       0.501819        13.6552 
 268   0.0000       0.505327        13.7506 
 269   0.0000       0.512562        13.9475 
 270   0.0000       0.515001        14.0139 
 271   0.0000       0.516188        14.0462 
 272   0.0000       0.520573        14.1655 
 273   0.0000       0.521693        14.1960 
 274   0.0000       0.522403        14.2153 
 275   0.0000       0.528238        14.3741 
 276   0.0000       0.532155        14.4807 
 277   0.0000       0.533798        14.5254 
 278   0.0000       0.539495        14.6804 
 279   0.0000       0.541647        14.7390 
 280   0.0000       0.544879        14.8269 
 281   0.0000       0.550114        14.9694 
 282   0.0000       0.552832        15.0433 
 283   0.0000       0.555253        15.1092 
 284   0.0000       0.556369        15.1396 
 285   0.0000       0.564437        15.3591 
 286   0.0000       0.568302        15.4643 
 287   0.0000       0.570195        15.5158 
 288   0.0000       0.573589        15.6082 
 289   0.0000       0.578165        15.7327 
 290   0.0000       0.581390        15.8204 
 291   0.0000       0.585029        15.9195 
 292   0.0000       0.586526        15.9602 
 293   0.0000       0.587921        15.9982 
 294   0.0000       0.597049        16.2465 
 295   0.0000       0.599020        16.3002 
 296   0.0000       0.600852        16.3500 
 297   0.0000       0.605308        16.4713 
 298   0.0000       0.606580        16.5059 
 299   0.0000       0.609383        16.5821 
 300   0.0000       0.613065        16.6823 
 301   0.0000       0.615410        16.7461 
 302   0.0000       0.619710        16.8632 
 303   0.0000       0.621793        16.9198 
 304   0.0000       0.624961        17.0060 
 305   0.0000       0.630005        17.1433 
 306   0.0000       0.635899        17.3037 
 307   0.0000       0.638747        17.3812 
 308   0.0000       0.640318        17.4239 
 309   0.0000       0.641608        17.4590 
 310   0.0000       0.645005        17.5515 
 311   0.0000       0.651259        17.7217 
 312   0.0000       0.654286        17.8040 
 313   0.0000       0.657484        17.8911 
 314   0.0000       0.660836        17.9822 
 315   0.0000       0.663909        18.0659 
 316   0.0000       0.668565        18.1926 
 317   0.0000       0.669153        18.2086 
 318   0.0000       0.672464        18.2987 
 319   0.0000       0.675442        18.3797 
 320   0.0000       0.676376        18.4051 
 321   0.0000       0.681752        18.5514 
 322   0.0000       0.683398        18.5962 
 323   0.0000       0.684681        18.6311 
 324   0.0000       0.688307        18.7298 
 325   0.0000       0.691720        18.8227 
 326   0.0000       0.693208        18.8631 
 327   0.0000       0.698775        19.0146 
 328   0.0000       0.699970        19.0472 
 329   0.0000       0.703445        19.1417 
 330   0.0000       0.706569        19.2267 
 331   0.0000       0.707505        19.2522 
 332   0.0000       0.708084        19.2679 
 333   0.0000       0.709085        19.2952 
 334   0.0000       0.712352        19.3841 
 335   0.0000       0.713486        19.4149 
 336   0.0000       0.716527        19.4977 
 337   0.0000       0.719494        19.5784 
 338   0.0000       0.723320        19.6825 
 339   0.0000       0.726810        19.7775 
 340   0.0000       0.727462        19.7952 
 341   0.0000       0.728931        19.8352 
 342   0.0000       0.732192        19.9240 
 343   0.0000       0.734375        19.9833 
 344   0.0000       0.737626        20.0718 
 345   0.0000       0.739214        20.1150 
 346   0.0000       0.742094        20.1934 
 347   0.0000       0.743078        20.2202 
 348   0.0000       0.743411        20.2292 
 349   0.0000       0.746079        20.3018 
 350   0.0000       0.750012        20.4089 
 351   0.0000       0.752040        20.4640 
 352   0.0000       0.755560        20.5598 
 353   0.0000       0.757114        20.6021 
 354   0.0000       0.759833        20.6761 
 355   0.0000       0.763136        20.7660 
 356   0.0000       0.764731        20.8094 
 357   0.0000       0.767955        20.8971 
 358   0.0000       0.769894        20.9499 
 359   0.0000       0.775545        21.1037 
 360   0.0000       0.779346        21.2071 
 361   0.0000       0.780271        21.2323 
 362   0.0000       0.782281        21.2869 
 363   0.0000       0.783358        21.3163 
 364   0.0000       0.791031        21.5250 
 365   0.0000       0.793100        21.5814 
 366   0.0000       0.794135        21.6095 
 367   0.0000       0.799129        21.7454 
 368   0.0000       0.802731        21.8434 
 369   0.0000       0.803322        21.8595 
 370   0.0000       0.809043        22.0152 
 371   0.0000       0.809956        22.0400 
 372   0.0000       0.813998        22.1500 
 373   0.0000       0.816731        22.2244 
 374   0.0000       0.820793        22.3349 
 375   0.0000       0.824058        22.4238 
 376   0.0000       0.825677        22.4678 
 377   0.0000       0.832742        22.6601 
 378   0.0000       0.833391        22.6777 
 379   0.0000       0.838286        22.8109 
 380   0.0000       0.842779        22.9332 
 381   0.0000       0.845895        23.0180 
 382   0.0000       0.848254        23.0822 
 383   0.0000       0.851299        23.1650 
 384   0.0000       0.856628        23.3100 
 385   0.0000       0.863574        23.4991 
 386   0.0000       0.864108        23.5136 
 387   0.0000       0.866933        23.5905 
 388   0.0000       0.870241        23.6805 
 389   0.0000       0.874780        23.8040 
 390   0.0000       0.876629        23.8543 
 391   0.0000       0.880004        23.9461 
 392   0.0000       0.882182        24.0054 
 393   0.0000       0.885191        24.0873 
 394   0.0000       0.889498        24.2045 
 395   0.0000       0.895792        24.3757 
 396   0.0000       0.899353        24.4726 
 397   0.0000       0.903299        24.5800 
 398   0.0000       0.905556        24.6414 
 399   0.0000       0.907702        24.6998 
 400   0.0000       0.911114        24.7927 
 401   0.0000       0.918968        25.0064 
 402   0.0000       0.921972        25.0881 
 403   0.0000       0.923622        25.1330 
 404   0.0000       0.927561        25.2402 
 405   0.0000       0.936001        25.4699 
 406   0.0000       0.938489        25.5376 
 407   0.0000       0.941363        25.6158 
 408   0.0000       0.947618        25.7860 
 409   0.0000       0.950104        25.8536 
 410   0.0000       0.956902        26.0386 
 411   0.0000       0.959344        26.1051 
 412   0.0000       0.962570        26.1929 
 413   0.0000       0.966880        26.3102 
 414   0.0000       0.973101        26.4794 
 415   0.0000       0.979322        26.6487 
 416   0.0000       0.983355        26.7584 
 417   0.0000       0.987618        26.8744 
 418   0.0000       0.991295        26.9745 
 419   0.0000       0.996732        27.1225 
 420   0.0000       0.998341        27.1662 
 421   0.0000       1.001451        27.2509 
 422   0.0000       1.004569        27.3357 
 423   0.0000       1.009699        27.4753 
 424   0.0000       1.014640        27.6098 
 425   0.0000       1.019036        27.7294 
 426   0.0000       1.028816        27.9955 
 427   0.0000       1.036988        28.2179 
 428   0.0000       1.040228        28.3060 
 429   0.0000       1.045025        28.4366 
 430   0.0000       1.047924        28.5155 
 431   0.0000       1.054328        28.6897 
 432   0.0000       1.058103        28.7924 
 433   0.0000       1.068262        29.0689 
 434   0.0000       1.070323        29.1250 
 435   0.0000       1.071124        29.1468 
 436   0.0000       1.077749        29.3270 
 437   0.0000       1.080812        29.4104 
 438   0.0000       1.084632        29.5143 
 439   0.0000       1.090811        29.6825 
 440   0.0000       1.096612        29.8403 
 441   0.0000       1.103372        30.0243 
 442   0.0000       1.105758        30.0892 
 443   0.0000       1.110690        30.2234 
 444   0.0000       1.123362        30.5682 
 445   0.0000       1.133821        30.8528 
 446   0.0000       1.135652        30.9027 
 447   0.0000       1.143077        31.1047 
 448   0.0000       1.144255        31.1368 
 449   0.0000       1.150652        31.3108 
 450   0.0000       1.155206        31.4347 
 451   0.0000       1.156316        31.4650 
 452   0.0000       1.160252        31.5721 
 453   0.0000       1.164129        31.6776 
 454   0.0000       1.174759        31.9668 
 455   0.0000       1.178258        32.0620 
 456   0.0000       1.180143        32.1133 
 457   0.0000       1.183445        32.2032 
 458   0.0000       1.186172        32.2774 
 459   0.0000       1.203083        32.7376 
 460   0.0000       1.207372        32.8543 
 461   0.0000       1.209835        32.9213 
 462   0.0000       1.210880        32.9497 
 463   0.0000       1.223293        33.2875 
 464   0.0000       1.226421        33.3726 
 465   0.0000       1.228001        33.4156 
 466   0.0000       1.232393        33.5351 
 467   0.0000       1.243213        33.8295 
 468   0.0000       1.247639        33.9500 
 469   0.0000       1.255173        34.1550 
 470   0.0000       1.256793        34.1991 
 471   0.0000       1.260538        34.3010 
 472   0.0000       1.272710        34.6322 
 473   0.0000       1.274106        34.6702 
 474   0.0000       1.277791        34.7705 
 475   0.0000       1.285878        34.9905 
 476   0.0000       1.287215        35.0269 
 477   0.0000       1.292667        35.1753 
 478   0.0000       1.294589        35.2275 
 479   0.0000       1.303604        35.4729 
 480   0.0000       1.306970        35.5645 
 481   0.0000       1.317043        35.8386 
 482   0.0000       1.320548        35.9339 
 483   0.0000       1.331598        36.2346 
 484   0.0000       1.339242        36.4426 
 485   0.0000       1.347181        36.6587 
 486   0.0000       1.349945        36.7339 
 487   0.0000       1.354114        36.8473 
 488   0.0000       1.361547        37.0496 
 489   0.0000       1.367217        37.2039 
 490   0.0000       1.370069        37.2815 
 491   0.0000       1.373520        37.3754 
 492   0.0000       1.383873        37.6571 
 493   0.0000       1.385369        37.6978 
 494   0.0000       1.398325        38.0504 
 495   0.0000       1.402578        38.1661 
 496   0.0000       1.408149        38.3177 
 497   0.0000       1.416921        38.5564 
 498   0.0000       1.420600        38.6565 
 499   0.0000       1.426319        38.8121 
 500   0.0000       1.432446        38.9788 
 501   0.0000       1.438428        39.1416 
 502   0.0000       1.440652        39.2021 
 503   0.0000       1.449759        39.4499 
 504   0.0000       1.462097        39.7857 
 505   0.0000       1.471839        40.0508 
 506   0.0000       1.476729        40.1838 
 507   0.0000       1.479148        40.2497 
 508   0.0000       1.488874        40.5143 
 509   0.0000       1.493052        40.6280 
 510   0.0000       1.501044        40.8455 
 511   0.0000       1.505420        40.9646 
 512   0.0000       1.507922        41.0327 
 513   0.0000       1.512081        41.1458 
 514   0.0000       1.513343        41.1802 
 515   0.0000       1.517342        41.2890 
 516   0.0000       1.527163        41.5562 
 517   0.0000       1.533225        41.7212 
 518   0.0000       1.543347        41.9966 
 519   0.0000       1.545467        42.0543 
 520   0.0000       1.555423        42.3252 
 521   0.0000       1.562617        42.5210 
 522   0.0000       1.566638        42.6304 
 523   0.0000       1.572335        42.7854 
 524   0.0000       1.577144        42.9163 
 525   0.0000       1.580147        42.9980 
 526   0.0000       1.592211        43.3263 
 527   0.0000       1.599958        43.5371 
 528   0.0000       1.602469        43.6054 
 529   0.0000       1.604118        43.6503 
 530   0.0000       1.614647        43.9368 
 531   0.0000       1.616377        43.9838 
 532   0.0000       1.626052        44.2471 
 533   0.0000       1.632857        44.4323 
 534   0.0000       1.637838        44.5678 
 535   0.0000       1.644770        44.7565 
 536   0.0000       1.649063        44.8733 
 537   0.0000       1.654280        45.0153 
 538   0.0000       1.658261        45.1236 
 539   0.0000       1.662275        45.2328 
 540   0.0000       1.672811        45.5195 
 541   0.0000       1.678379        45.6710 
 542   0.0000       1.683473        45.8096 
 543   0.0000       1.686047        45.8797 
 544   0.0000       1.697606        46.1942 
 545   0.0000       1.700572        46.2749 
 546   0.0000       1.707410        46.4610 
 547   0.0000       1.721066        46.8326 
 548   0.0000       1.723444        46.8973 
 549   0.0000       1.733467        47.1700 
 550   0.0000       1.742602        47.4186 
 551   0.0000       1.748521        47.5797 
 552   0.0000       1.756897        47.8076 
 553   0.0000       1.760322        47.9008 
 554   0.0000       1.766096        48.0579 
 555   0.0000       1.776203        48.3329 
 556   0.0000       1.781609        48.4800 
 557   0.0000       1.792924        48.7880 
 558   0.0000       1.794757        48.8378 
 559   0.0000       1.798478        48.9391 
 560   0.0000       1.808612        49.2148 
 561   0.0000       1.813323        49.3430 
 562   0.0000       1.821079        49.5541 
 563   0.0000       1.833705        49.8977 
 564   0.0000       1.839986        50.0686 
 565   0.0000       1.846910        50.2570 
 566   0.0000       1.852730        50.4154 
 567   0.0000       1.873088        50.9693 
 568   0.0000       1.883218        51.2450 
 569   0.0000       1.885448        51.3056 
 570   0.0000       1.894604        51.5548 
 571   0.0000       1.906164        51.8694 
 572   0.0000       1.908234        51.9257 
 573   0.0000       1.919084        52.2209 
 574   0.0000       1.921996        52.3002 
 575   0.0000       1.929029        52.4915 
 576   0.0000       1.930492        52.5314 
 577   0.0000       1.936182        52.6862 
 578   0.0000       1.948765        53.0286 
 579   0.0000       1.953501        53.1575 
 580   0.0000       1.957695        53.2716 
 581   0.0000       1.964952        53.4691 
 582   0.0000       1.977820        53.8192 
 583   0.0000       1.983379        53.9705 
 584   0.0000       1.997076        54.3432 
 585   0.0000       2.006137        54.5898 
 586   0.0000       2.011657        54.7400 
 587   0.0000       2.018865        54.9361 
 588   0.0000       2.027467        55.1702 
 589   0.0000       2.029112        55.2149 
 590   0.0000       2.040270        55.5186 
 591   0.0000       2.052666        55.8559 
 592   0.0000       2.053526        55.8793 
 593   0.0000       2.061137        56.0864 
 594   0.0000       2.063734        56.1571 
 595   0.0000       2.095955        57.0338 
 596   0.0000       2.098244        57.0961 
 597   0.0000       2.101955        57.1971 
 598   0.0000       2.107863        57.3579 
 599   0.0000       2.113933        57.5230 
 600   0.0000       2.116846        57.6023 
 601   0.0000       2.123848        57.7928 
 602   0.0000       2.128869        57.9295 
 603   0.0000       2.141816        58.2818 
 604   0.0000       2.145404        58.3794 
 605   0.0000       2.152074        58.5609 
 606   0.0000       2.153622        58.6030 
 607   0.0000       2.161038        58.8048 
 608   0.0000       2.166535        58.9544 
 609   0.0000       2.166749        58.9602 
 610   0.0000       2.173798        59.1521 
 611   0.0000       2.177072        59.2411 
 612   0.0000       2.182069        59.3771 
 613   0.0000       2.185097        59.4595 
 614   0.0000       2.195910        59.7537 
 615   0.0000       2.198936        59.8361 
 616   0.0000       2.206506        60.0421 
 617   0.0000       2.209530        60.1244 
 618   0.0000       2.214108        60.2490 
 619   0.0000       2.221181        60.4414 
 620   0.0000       2.223440        60.5029 
 621   0.0000       2.228820        60.6493 
 622   0.0000       2.235614        60.8342 
 623   0.0000       2.250721        61.2452 
 624   0.0000       2.254544        61.3493 
 625   0.0000       2.258809        61.4653 
 626   0.0000       2.269619        61.7595 
 627   0.0000       2.272496        61.8378 
 628   0.0000       2.277949        61.9862 
 629   0.0000       2.279633        62.0320 
 630   0.0000       2.280775        62.0631 
 631   0.0000       2.284123        62.1541 
 632   0.0000       2.291629        62.3584 
 633   0.0000       2.298067        62.5336 
 634   0.0000       2.301521        62.6276 
 635   0.0000       2.306128        62.7529 
 636   0.0000       2.311880        62.9095 
 637   0.0000       2.317688        63.0675 
 638   0.0000       2.324966        63.2655 
 639   0.0000       2.333470        63.4970 
 640   0.0000       2.337086        63.5953 
 641   0.0000       2.345473        63.8236 
 642   0.0000       2.355383        64.0932 
 643   0.0000       2.357429        64.1489 
 644   0.0000       2.368959        64.4627 
 645   0.0000       2.373597        64.5889 
 646   0.0000       2.378918        64.7336 
 647   0.0000       2.392582        65.1055 
 648   0.0000       2.395720        65.1909 
 649   0.0000       2.402393        65.3724 
 650   0.0000       2.408053        65.5264 
 651   0.0000       2.412606        65.6504 
 652   0.0000       2.417452        65.7822 
 653   0.0000       2.425593        66.0037 
 654   0.0000       2.431695        66.1698 
 655   0.0000       2.432595        66.1943 
 656   0.0000       2.440484        66.4089 
 657   0.0000       2.453900        66.7740 
 658   0.0000       2.458967        66.9119 
 659   0.0000       2.462335        67.0035 
 660   0.0000       2.481769        67.5324 
 661   0.0000       2.490966        67.7826 
 662   0.0000       2.501566        68.0711 
 663   0.0000       2.514852        68.4326 
 664   0.0000       2.520518        68.5868 
 665   0.0000       2.535666        68.9990 
 666   0.0000       2.537299        69.0434 
 667   0.0000       2.551804        69.4381 
 668   0.0000       2.559852        69.6571 
 669   0.0000       2.566747        69.8447 
 670   0.0000       2.573429        70.0266 
 671   0.0000       2.580512        70.2193 
 672   0.0000       2.585193        70.3467 
 673   0.0000       2.608239        70.9738 
 674   0.0000       2.615736        71.1778 
 675   0.0000       2.624752        71.4231 
 676   0.0000       2.633131        71.6511 
 677   0.0000       2.634958        71.7009 
 678   0.0000       2.640295        71.8461 
 679   0.0000       2.649796        72.1046 
 680   0.0000       2.659077        72.3572 
 681   0.0000       2.666046        72.5468 
 682   0.0000       2.675563        72.8058 
 683   0.0000       2.683378        73.0184 
 684   0.0000       2.695252        73.3415 
 685   0.0000       2.707175        73.6660 
 686   0.0000       2.713962        73.8506 
 687   0.0000       2.719640        74.0052 
 688   0.0000       2.721196        74.0475 
 689   0.0000       2.734601        74.4123 
 690   0.0000       2.740087        74.5616 
 691   0.0000       2.745577        74.7109 
 692   0.0000       2.763408        75.1962 
 693   0.0000       2.764695        75.2312 
 694   0.0000       2.779642        75.6379 
 695   0.0000       2.785891        75.8079 
 696   0.0000       2.796634        76.1003 
 697   0.0000       2.820951        76.7620 
 698   0.0000       2.824906        76.8696 
 699   0.0000       2.832146        77.0666 
 700   0.0000       2.841295        77.3156 
 701   0.0000       2.850795        77.5741 
 702   0.0000       2.856116        77.7189 
 703   0.0000       2.870026        78.0974 
 704   0.0000       2.873579        78.1941 
 705   0.0000       2.886392        78.5427 
 706   0.0000       2.889886        78.6378 
 707   0.0000       2.897192        78.8366 
 708   0.0000       2.899149        78.8899 
 709   0.0000       2.907474        79.1164 
 710   0.0000       2.911078        79.2145 
 711   0.0000       2.919680        79.4485 
 712   0.0000       2.929853        79.7253 
 713   0.0000       2.934621        79.8551 
 714   0.0000       2.942202        80.0614 
 715   0.0000       2.959911        80.5433 
 716   0.0000       2.972679        80.8907 
 717   0.0000       2.974200        80.9321 
 718   0.0000       2.979524        81.0770 
 719   0.0000       2.992185        81.4215 
 720   0.0000       2.997416        81.5638 
 721   0.0000       3.005527        81.7845 
 722   0.0000       3.015128        82.0458 
 723   0.0000       3.025821        82.3368 
 724   0.0000       3.029432        82.4350 
 725   0.0000       3.032905        82.5295 
 726   0.0000       3.035209        82.5922 
 727   0.0000       3.044471        82.8443 
 728   0.0000       3.054569        83.1191 
 729   0.0000       3.056815        83.1802 
 730   0.0000       3.061354        83.3037 
 731   0.0000       3.080187        83.8161 
 732   0.0000       3.087630        84.0187 
 733   0.0000       3.092330        84.1466 
 734   0.0000       3.105252        84.4982 
 735   0.0000       3.116408        84.8018 
 736   0.0000       3.120544        84.9143 
 737   0.0000       3.131317        85.2075 
 738   0.0000       3.135340        85.3170 
 739   0.0000       3.139861        85.4400 
 740   0.0000       3.150225        85.7220 
 741   0.0000       3.154224        85.8308 
 742   0.0000       3.169603        86.2493 
 743   0.0000       3.175405        86.4072 
 744   0.0000       3.188265        86.7571 
 745   0.0000       3.191007        86.8317 
 746   0.0000       3.195610        86.9570 
 747   0.0000       3.197181        86.9997 
 748   0.0000       3.206271        87.2471 
 749   0.0000       3.220483        87.6338 
 750   0.0000       3.223158        87.7066 
 751   0.0000       3.231279        87.9276 
 752   0.0000       3.235259        88.0359 
 753   0.0000       3.243152        88.2507 
 754   0.0000       3.244858        88.2971 
 755   0.0000       3.249725        88.4295 
 756   0.0000       3.261933        88.7617 
 757   0.0000       3.264421        88.8294 
 758   0.0000       3.267733        88.9195 
 759   0.0000       3.281756        89.3011 
 760   0.0000       3.285591        89.4055 
 761   0.0000       3.294964        89.6605 
 762   0.0000       3.296361        89.6985 
 763   0.0000       3.301798        89.8465 
 764   0.0000       3.308402        90.0262 
 765   0.0000       3.310886        90.0938 
 766   0.0000       3.321332        90.3780 
 767   0.0000       3.323996        90.4505 
 768   0.0000       3.330191        90.6191 
 769   0.0000       3.344690        91.0136 
 770   0.0000       3.355484        91.3074 
 771   0.0000       3.360208        91.4359 
 772   0.0000       3.361964        91.4837 
 773   0.0000       3.365802        91.5881 
 774   0.0000       3.375459        91.8509 
 775   0.0000       3.386329        92.1467 
 776   0.0000       3.392680        92.3195 
 777   0.0000       3.396385        92.4203 
 778   0.0000       3.401897        92.5703 
 779   0.0000       3.406476        92.6949 
 780   0.0000       3.415930        92.9522 
 781   0.0000       3.421745        93.1104 
 782   0.0000       3.427797        93.2751 
 783   0.0000       3.429307        93.3162 
 784   0.0000       3.434728        93.4637 
 785   0.0000       3.438857        93.5761 
 786   0.0000       3.445740        93.7633 
 787   0.0000       3.448216        93.8307 
 788   0.0000       3.461341        94.1879 
 789   0.0000       3.465577        94.3031 
 790   0.0000       3.476780        94.6080 
 791   0.0000       3.483745        94.7975 
 792   0.0000       3.489188        94.9456 
 793   0.0000       3.491281        95.0026 
 794   0.0000       3.493564        95.0647 
 795   0.0000       3.500303        95.2481 
 796   0.0000       3.507448        95.4425 
 797   0.0000       3.511180        95.5441 
 798   0.0000       3.517257        95.7094 
 799   0.0000       3.521504        95.8250 
 800   0.0000       3.527786        95.9959 
 801   0.0000       3.539438        96.3130 
 802   0.0000       3.543186        96.4150 
 803   0.0000       3.547442        96.5308 
 804   0.0000       3.561409        96.9109 
 805   0.0000       3.568049        97.0916 
 806   0.0000       3.569574        97.1330 
 807   0.0000       3.580749        97.4371 
 808   0.0000       3.587691        97.6260 
 809   0.0000       3.587995        97.6343 
 810   0.0000       3.597619        97.8962 
 811   0.0000       3.605313        98.1056 
 812   0.0000       3.607834        98.1742 
 813   0.0000       3.612045        98.2887 
 814   0.0000       3.616123        98.3997 
 815   0.0000       3.627421        98.7071 
 816   0.0000       3.630279        98.7849 
 817   0.0000       3.636905        98.9652 
 818   0.0000       3.654033        99.4313 
 819   0.0000       3.657741        99.5322 
 820   0.0000       3.658798        99.5610 
 821   0.0000       3.670978        99.8924 
 822   0.0000       3.673952        99.9733 
 823   0.0000       3.683903       100.2441 
 824   0.0000       3.687099       100.3311 
 825   0.0000       3.690663       100.4280 
 826   0.0000       3.697346       100.6099 
 827   0.0000       3.705348       100.8277 
 828   0.0000       3.709624       100.9440 
 829   0.0000       3.718443       101.1840 
 830   0.0000       3.721272       101.2610 
 831   0.0000       3.734206       101.6129 
 832   0.0000       3.738480       101.7292 
 833   0.0000       3.747879       101.9850 
 834   0.0000       3.751868       102.0935 
 835   0.0000       3.758153       102.2645 
 836   0.0000       3.770751       102.6074 
 837   0.0000       3.777432       102.7892 
 838   0.0000       3.785894       103.0194 
 839   0.0000       3.790358       103.1409 
 840   0.0000       3.791730       103.1782 
 841   0.0000       3.809010       103.6484 
 842   0.0000       3.816302       103.8469 
 843   0.0000       3.825458       104.0960 
 844   0.0000       3.845116       104.6309 
 845   0.0000       3.852587       104.8342 
 846   0.0000       3.855569       104.9154 
 847   0.0000       3.859716       105.0282 
 848   0.0000       3.872085       105.3648 
 849   0.0000       3.879941       105.5786 
 850   0.0000       3.886472       105.7563 
 851   0.0000       3.891090       105.8819 
 852   0.0000       3.894769       105.9820 
 853   0.0000       3.903797       106.2277 
 854   0.0000       3.912557       106.4661 
 855   0.0000       3.922291       106.7310 
 856   0.0000       3.930490       106.9541 
 857   0.0000       3.935346       107.0862 
 858   0.0000       3.942427       107.2789 
 859   0.0000       3.948947       107.4563 
 860   0.0000       3.954577       107.6095 
 861   0.0000       3.964994       107.8930 
 862   0.0000       3.967759       107.9682 
 863   0.0000       3.975004       108.1654 
 864   0.0000       3.980661       108.3193 
 865   0.0000       3.993320       108.6638 
 866   0.0000       3.994812       108.7044 
 867   0.0000       4.002930       108.9253 
 868   0.0000       4.005659       108.9995 
 869   0.0000       4.015180       109.2586 
 870   0.0000       4.018525       109.3496 
 871   0.0000       4.028277       109.6150 
 872   0.0000       4.036854       109.8484 
 873   0.0000       4.042371       109.9985 
 874   0.0000       4.051043       110.2345 
 875   0.0000       4.063405       110.5709 
 876   0.0000       4.072334       110.8138 
 877   0.0000       4.080002       111.0225 
 878   0.0000       4.087300       111.2211 
 879   0.0000       4.105377       111.7130 
 880   0.0000       4.123065       112.1943 
 881   0.0000       4.124975       112.2463 
 882   0.0000       4.130973       112.4095 
 883   0.0000       4.135190       112.5242 
 884   0.0000       4.141642       112.6998 
 885   0.0000       4.143226       112.7429 
 886   0.0000       4.150402       112.9382 
 887   0.0000       4.160424       113.2109 
 888   0.0000       4.169804       113.4661 
 889   0.0000       4.179642       113.7338 
 890   0.0000       4.190586       114.0316 
 891   0.0000       4.194542       114.1393 
 892   0.0000       4.199953       114.2865 
 893   0.0000       4.209826       114.5552 
 894   0.0000       4.214485       114.6820 
 895   0.0000       4.222874       114.9102 
 896   0.0000       4.236000       115.2674 
 897   0.0000       4.238656       115.3397 
 898   0.0000       4.241896       115.4279 
 899   0.0000       4.255360       115.7942 
 900   0.0000       4.261504       115.9614 
 901   0.0000       4.267296       116.1190 
 902   0.0000       4.269860       116.1888 
 903   0.0000       4.276147       116.3599 
 904   0.0000       4.284593       116.5897 
 905   0.0000       4.286998       116.6551 
 906   0.0000       4.291257       116.7711 
 907   0.0000       4.298346       116.9640 
 908   0.0000       4.314134       117.3935 
 909   0.0000       4.323762       117.6555 
 910   0.0000       4.331336       117.8616 
 911   0.0000       4.338999       118.0702 
 912   0.0000       4.342952       118.1777 
 913   0.0000       4.345806       118.2554 
 914   0.0000       4.349208       118.3480 
 915   0.0000       4.359443       118.6265 
 916   0.0000       4.368882       118.8833 
 917   0.0000       4.374208       119.0282 
[...]
      dyz     :     0.043760
      dx2y2   :     0.016473
      dxy     :     0.012385
      f0      :     0.001725  f :     0.005719
      f+1     :     0.001436
      f-1     :     0.001335
      f+2     :     0.000560
      f-2     :     0.000544
      f+3     :     0.000060
      f-3     :     0.000059
 26 O s       :     3.167856  s :     3.167856
      pz      :     1.476413  p :     4.315494
      px      :     1.489778
      py      :     1.349303
      dz2     :     0.092666  d :     0.542228
      dxz     :     0.076045
      dyz     :     0.131021
      dx2y2   :     0.128583
      dxy     :     0.113913
      f0      :     0.000985  f :     0.006745
      f+1     :     0.000575
      f-1     :     0.001107
      f+2     :     0.000802
      f-2     :     0.001362
      f+3     :     0.000943
      f-3     :     0.000971
 27 O s       :     3.167944  s :     3.167944
      pz      :     1.461800  p :     4.309174
      px      :     1.380200
      py      :     1.467174
      dz2     :     0.095852  d :     0.542009
      dxz     :     0.121474
      dyz     :     0.090287
      dx2y2   :     0.121575
      dxy     :     0.112821
      f0      :     0.001019  f :     0.006777
      f+1     :     0.001100
      f-1     :     0.000685
      f+2     :     0.000769
      f-2     :     0.001341
      f+3     :     0.000852
      f-3     :     0.001011
 28 C s       :     2.627490  s :     2.627490
      pz      :     0.925606  p :     2.541769
      px      :     0.827628
      py      :     0.788535
      dz2     :     0.096919  d :     0.627697
      dxz     :     0.047757
      dyz     :     0.179055
      dx2y2   :     0.168523
      dxy     :     0.135443
      f0      :     0.005808  f :     0.066193
      f+1     :     0.007763
      f-1     :     0.008788
      f+2     :     0.003348
      f-2     :     0.010115
      f+3     :     0.013173
      f-3     :     0.017198
 29 H s       :     0.695047  s :     0.695047
      pz      :     0.119693  p :     0.262683
      px      :     0.059643
      py      :     0.083347
      dz2     :     0.008668  d :     0.028489
      dxz     :     0.005093
      dyz     :     0.008692
      dx2y2   :     0.002742
      dxy     :     0.003294
 30 H s       :     0.703553  s :     0.703553
      pz      :     0.112928  p :     0.252958
      px      :     0.064209
      py      :     0.075821
      dz2     :     0.009344  d :     0.028850
      dxz     :     0.005208
      dyz     :     0.008373
      dx2y2   :     0.002585
      dxy     :     0.003341
 31 H s       :     0.694189  s :     0.694189
      pz      :     0.079002  p :     0.262988
      px      :     0.118288
      py      :     0.065698
      dz2     :     0.002871  d :     0.028531
      dxz     :     0.008298
      dyz     :     0.001681
      dx2y2   :     0.008064
      dxy     :     0.007618
 32 C s       :     2.627868  s :     2.627868
      pz      :     0.922162  p :     2.542132
      px      :     0.814325
      py      :     0.805645
      dz2     :     0.096518  d :     0.628045
      dxz     :     0.166218
      dyz     :     0.061815
      dx2y2   :     0.156431
      dxy     :     0.147062
      f0      :     0.005640  f :     0.066278
      f+1     :     0.008417
      f-1     :     0.008534
      f+2     :     0.004289
      f-2     :     0.009286
      f+3     :     0.016836
      f-3     :     0.013276
 33 H s       :     0.703823  s :     0.703823
      pz      :     0.113624  p :     0.252981
      px      :     0.078094
      py      :     0.061263
      dz2     :     0.009530  d :     0.028854
      dxz     :     0.008485
      dyz     :     0.005200
      dx2y2   :     0.002381
      dxy     :     0.003258
 34 H s       :     0.694290  s :     0.694290
      pz      :     0.079643  p :     0.262917
      px      :     0.073369
      py      :     0.109906
      dz2     :     0.002908  d :     0.028527
      dxz     :     0.002612
      dyz     :     0.007459
      dx2y2   :     0.007752
      dxy     :     0.007796
 35 H s       :     0.695484  s :     0.695484
      pz      :     0.117029  p :     0.262885
      px      :     0.089126
      py      :     0.056730
      dz2     :     0.008178  d :     0.028493
      dxz     :     0.008719
      dyz     :     0.004871
      dx2y2   :     0.003110
      dxy     :     0.003614


                      *****************************
                      * MAYER POPULATION ANALYSIS *
                      *****************************

  NA   - Mulliken gross atomic population
  ZA   - Total nuclear charge
  QA   - Mulliken gross atomic charge
  VA   - Mayer's total valence
  BVA  - Mayer's bonded valence
  FA   - Mayer's free valence

  ATOM       NA         ZA         QA         VA         BVA        FA
  0 C      4.2252     6.0000     1.7748    -2.5768    -2.5768     0.0000
  1 C      6.3274     6.0000    -0.3274     3.0837     3.0837     0.0000
  2 C      5.6905     6.0000     0.3095     2.9833     2.9833     0.0000
  3 C      6.0698     6.0000    -0.0698     3.4288     3.4288    -0.0000
  4 C      5.6809     6.0000     0.3191     3.2736     3.2736    -0.0000
  5 C      6.7446     6.0000    -0.7446     3.0206     3.0206    -0.0000
  6 H      1.0455     1.0000    -0.0455     1.0897     1.0897     0.0000
  7 H      1.0762     1.0000    -0.0762     0.9128     0.9128    -0.0000
  8 H      1.0391     1.0000    -0.0391     1.0380     1.0380    -0.0000
  9 C      5.4859     6.0000     0.5141    -0.7579    -0.7579    -0.0000
 10 C      6.1894     6.0000    -0.1894     3.1151     3.1151    -0.0000
 11 C      5.1997     6.0000     0.8003    -0.0948    -0.0948     0.0000
 12 C      6.1436     6.0000    -0.1436     3.2698     3.2698     0.0000
 13 H      1.0233     1.0000    -0.0233     0.9486     0.9486    -0.0000
 14 C      6.2740     6.0000    -0.2740     3.0941     3.0941     0.0000
 15 C      6.1147     6.0000    -0.1147     3.2103     3.2103     0.0000
 16 H      1.0067     1.0000    -0.0067     0.9118     0.9118     0.0000
 17 H      1.1009     1.0000    -0.1009     0.9833     0.9833     0.0000
 18 H      1.0041     1.0000    -0.0041     0.9178     0.9178     0.0000
 19 C      5.3663     6.0000     0.6337     1.1753     1.1753    -0.0000
 20 C      5.9535     6.0000     0.0465     3.0718     3.0718     0.0000
 21 H      1.1130     1.0000    -0.1130     1.1595     1.1595     0.0000
 22 Au    18.9483    19.0000     0.0517     2.8989     2.8989     0.0000
 23 Cl    17.5049    17.0000    -0.5049     0.8026     0.8026    -0.0000
 24 Cl    17.4536    17.0000    -0.4536     0.8593     0.8593     0.0000
 25 Cl    17.5245    17.0000    -0.5245     0.7879     0.7879     0.0000
 26 O      8.4607     8.0000    -0.4607     1.4482     1.4482     0.0000
 27 O      8.4546     8.0000    -0.4546     1.4741     1.4741     0.0000
 28 C      6.2523     6.0000    -0.2523     3.8960     3.8960     0.0000
 29 H      0.8654     1.0000     0.1346     1.0018     1.0018     0.0000
 30 H      0.9288     1.0000     0.0712     1.0164     1.0164    -0.0000
 31 H      0.8542     1.0000     0.1458     0.9873     0.9873     0.0000
 32 C      6.2157     6.0000    -0.2157     3.8841     3.8841    -0.0000
 33 H      0.9334     1.0000     0.0666     1.0155     1.0155    -0.0000
 34 H      0.8616     1.0000     0.1384     1.0011     1.0011    -0.0000
 35 H      0.8674     1.0000     0.1326     0.9972     0.9972    -0.0000

  Mayer bond orders larger than 0.100000
B(  0-C ,  1-C ) :   0.1917 B(  0-C ,  3-C ) :  -0.3945 B(  0-C ,  5-C ) :   0.5913 
B(  0-C ,  6-H ) :  -0.4762 B(  0-C ,  8-H ) :  -0.2584 B(  0-C ,  9-C ) :  -1.5135 
B(  0-C , 10-C ) :  -0.2381 B(  0-C , 11-C ) :  -0.1214 B(  0-C , 12-C ) :  -0.1951 
B(  0-C , 14-C ) :  -0.1411 B(  0-C , 15-C ) :   0.1172 B(  0-C , 19-C ) :  -0.1505 
B(  0-C , 20-C ) :   0.1410 B(  1-C ,  2-C ) :   1.0070 B(  1-C ,  3-C ) :  -0.1206 
B(  1-C ,  5-C ) :   0.2629 B(  1-C ,  6-H ) :   1.3669 B(  1-C ,  9-C ) :  -0.1844 
B(  1-C , 10-C ) :   0.6174 B(  1-C , 12-C ) :  -0.1870 B(  1-C , 14-C ) :  -0.1702 
B(  1-C , 15-C ) :   0.1286 B(  1-C , 20-C ) :   0.2250 B(  1-C , 26-O ) :  -0.1824 
B(  2-C ,  3-C ) :   1.3622 B(  2-C ,  4-C ) :   0.2028 B(  2-C ,  5-C ) :  -0.1417 
B(  2-C ,  6-H ) :   0.1784 B(  2-C ,  7-H ) :  -0.1469 B(  2-C , 10-C ) :  -0.4317 
B(  2-C , 12-C ) :   0.1786 B(  2-C , 14-C ) :   0.2092 B(  2-C , 15-C ) :  -0.1070 
B(  2-C , 20-C ) :  -0.1402 B(  2-C , 26-O ) :   0.7436 B(  3-C ,  4-C ) :   1.2794 
B(  3-C ,  7-H ) :   1.1295 B(  3-C ,  9-C ) :   0.2476 B(  3-C , 10-C ) :   0.2221 
B(  3-C , 11-C ) :  -0.1324 B(  3-C , 20-C ) :   0.1072 B(  4-C ,  5-C ) :   1.2873 
B(  4-C ,  7-H ) :  -0.1061 B(  4-C , 10-C ) :  -0.2722 B(  4-C , 12-C ) :   0.1031 
B(  4-C , 14-C ) :   0.1174 B(  4-C , 27-O ) :   0.8566 B(  5-C ,  8-H ) :   1.2384 
B(  5-C ,  9-C ) :  -0.2975 B(  5-C , 10-C ) :   0.3977 B(  5-C , 11-C ) :  -0.1520 
B(  5-C , 14-C ) :  -0.1370 B(  5-C , 20-C ) :   0.1428 B(  5-C , 27-O ) :  -0.1141 
B(  9-C , 10-C ) :   0.4291 B(  9-C , 11-C ) :   0.7533 B(  9-C , 12-C ) :   0.1267 
B(  9-C , 13-H ) :  -0.2175 B(  9-C , 19-C ) :  -0.1519 B( 10-C , 12-C ) :   1.2252 
B( 10-C , 13-H ) :   1.1714 B( 11-C , 14-C ) :   1.0005 B( 11-C , 17-H ) :  -0.2668 
B( 11-C , 19-C ) :  -0.2967 B( 11-C , 20-C ) :   0.1109 B( 11-C , 22-Au) :  -0.7138 
B( 11-C , 25-Cl) :  -0.2919 B( 12-C , 15-C ) :   1.1767 B( 12-C , 16-H ) :   1.1221 
B( 12-C , 18-H ) :  -0.1168 B( 14-C , 15-C ) :   1.1542 B( 14-C , 17-H ) :   1.2414 
B( 15-C , 16-H ) :  -0.1164 B( 15-C , 17-H ) :  -0.1320 B( 15-C , 18-H ) :   1.1246 
B( 19-C , 20-C ) :   1.4936 B( 19-C , 21-H ) :  -0.3119 B( 19-C , 22-Au) :   0.4379 
B( 19-C , 23-Cl) :  -0.1095 B( 19-C , 25-Cl) :   0.2358 B( 20-C , 21-H ) :   1.3285 
B( 20-C , 22-Au) :   0.1841 B( 20-C , 23-Cl) :  -0.2616 B( 20-C , 25-Cl) :  -0.3316 
B( 22-Au, 23-Cl) :   1.0173 B( 22-Au, 24-Cl) :   0.7877 B( 22-Au, 25-Cl) :   1.0237 
B( 23-Cl, 25-Cl) :   0.1261 B( 26-O , 28-C ) :   0.8866 B( 27-O , 32-C ) :   0.8675 
B( 28-C , 29-H ) :   0.9761 B( 28-C , 30-H ) :   1.0860 B( 28-C , 31-H ) :   0.9830 
B( 32-C , 33-H ) :   1.0820 B( 32-C , 34-H ) :   0.9856 B( 32-C , 35-H ) :   0.9829 


-------
TIMINGS
-------

Total SCF time: 0 days 0 hours 2 min 53 sec 

Total time                  ....     173.653 sec
Sum of individual times     ....     171.990 sec  ( 99.0%)

Fock matrix formation       ....     161.226 sec  ( 92.8%)
  XC integration            ....      10.058 sec  (  6.2% of F)
    Basis function eval.    ....       1.832 sec  ( 18.2% of XC)
    Density eval.           ....       3.744 sec  ( 37.2% of XC)
    XC-Functional eval.     ....       0.079 sec  (  0.8% of XC)
    XC-Potential eval.      ....       3.268 sec  ( 32.5% of XC)
Diagonalization             ....       3.175 sec  (  1.8%)
Density matrix formation    ....       0.180 sec  (  0.1%)
Population analysis         ....       0.309 sec  (  0.2%)
Initial guess               ....       2.245 sec  (  1.3%)
Orbital Transformation      ....       0.000 sec  (  0.0%)
Orbital Orthonormalization  ....       0.000 sec  (  0.0%)
DIIS solution               ....       3.234 sec  (  1.9%)
Grid generation             ....       1.621 sec  (  0.9%)


           ************************************************************
           *        Program running with 24 parallel MPI-processes    *
           *              working on a common directory               *
           ************************************************************

------------------------------------------------------------------------------
                                ORCA  MP2 
------------------------------------------------------------------------------

Freezing NCore=66 chemical core electrons

-------------
RI-MP2 ENERGY
-------------
Dimension of the basis                    ... 1122
Memory devoted to MP2                     ... 5000 MB   
Data format for buffers                   ... DOUBLE
Compression type for matrix containers    ... UNCOMPRESSED
Overall scaling of the MP2 energy         ...   2.700e-01
Calculating two index integrals           ... done (    0.063 sec)
Cholesky decomposition of V**-1           ... done (    0.748 sec)

-----------------
RI-TRANSFORMATION (AUX index driven)
-----------------

Dimension of the orbital-basis         ... 1122
Dimension of the aux-basis             ... 2812
Transformation of internal/external MOs...   33-  97 to   98-1121
Number Format for Storage              ... Double (8 Byte)
Integral mode                          ... Direct

First Phase: integral generation and transformation of MO indices
  Aux angular momentum 0               ... done (    0.422 sec)
  Aux angular momentum 1               ... done (    0.875 sec)
  Aux angular momentum 2               ... done (    1.039 sec)
  Aux angular momentum 3               ... done (    1.003 sec)
  Aux angular momentum 4               ... done (    0.478 sec)
  Aux angular momentum 5               ... done (    0.292 sec)
  Aux angular momentum 6               ... done (    0.372 sec)
Closing buffer VIA ( 1.39 GB; CompressionRatio= 1.00)
  Phase 1 completed in     4.643 sec
Second Phase: sorting and transformation of aux index

IA-Transformation
Memory available                       ... 4841 MB 
Max. # MO pairs treated in a batch     ... 3    
# of internal orbitals                 ... 65
# batches for internal orbitals        ... 1
Closing buffer IAV ( 0.06 GB; CompressionRatio= 1.00)
(ia|v) transformation done in     1.274 sec

  Phase 2 completed in     2.768 sec
RI-Integral transformation completed in     7.459 sec
Opening buffers                              ... done

Starting loop over batches of integrals:

Operator 0  - window                       ... ( 33- 97)x( 98-1121)
Operator 0  - Memory available             ...  5000 MB
Operator 0  - Memory needed per MO         ...  22.0 MB
Operator 0  - Number of orbitals per batch ... 3
Operator 0  - Number of batches            ... 1

OPERATOR  0   PASS   0:  MOs    33 ...   35 +   36 ...   38 +   39 ...   41 +   42 ...   44
                            +   45 ...   47 +   48 ...   50 +   51 ...   53 +   54 ...   56
                            +   57 ...   59 +   60 ...   62 +   63 ...   65 +   66 ...   68
                            +   69 ...   71 +   72 ...   74 +   75 ...   77 +   78 ...   80
                            +   81 ...   83 +   84 ...   86 +   87 ...   89 +   90 ...   92
                            +   93 ...   95 +   96 ...   97
  Reading integrals       ... ok
  Internal MO  35
Time spent in pair loops =     0.893 sec
Deleting buffer (Ka|jb)[aa] ...done

-----------------------------------------------
 RI-MP2 CORRELATION ENERGY:     -1.406788901 Eh
-----------------------------------------------


-------
TIMINGS
-------

Total time                :   29.331 sec
Integral trafo            :    7.476 sec ( 25.5%)
I/O of integrals          :    0.071 sec (  0.2%)
K(i,j) Operators          :    0.633 sec (  2.2%)
T(i,j) pair energies      :    0.110 sec (  0.4%)
V-calculation             :    0.063 sec (  0.2%)
V**(-1/2)                 :    0.748 sec (  2.6%)
Gamma(ia|P)               :    0.000 sec (  0.0%)
Gamma-Trafo               :    0.000 sec (  0.0%)
D(virtual)                :    0.000 sec (  0.0%)
D(internal)               :    0.000 sec (  0.0%)
W(virtual)                :    0.000 sec (  0.0%)
W(internal)               :    0.000 sec (  0.0%)
L(virtual)                :    0.000 sec (  0.0%)
L(internal)               :    0.000 sec (  0.0%)
G(D)                      :    0.000 sec (  0.0%)
G(Z)                      :    0.000 sec (  0.0%)
Z-Vector Solution         :    0.000 sec (  0.0%)
Z-Vector Solution         :    0.000 sec (  0.0%)
3-Index Derivative 
+ Separable RIJ part      :    0.000 sec (  0.0%)
2-Index Derivative 
+ Separable RIJ part      :    0.000 sec (  0.0%)
Separable Gradient (X)    :    0.000 sec (  0.0%)


---------------------------------------
MP2 TOTAL ENERGY:    -2284.058460442 Eh
---------------------------------------


-------------------------------------------------------------------------------
                          DFT DISPERSION CORRECTION                            
                                                                               
                              DFTD3 V3.1  Rev 1                                
                          USING Becke-Johnson damping                          
-------------------------------------------------------------------------------
The B2PLYP functional is recognized
Active option DFTDOPT                   ...         4   

molecular C6(AA) [au] = 24237.286643 


            DFT-D V3
 parameters
 s6 scaling factor         :     0.6400 
 a1 scaling factor         :     0.3065 
 s8 scaling factor         :     0.9147 
 a2 scaling factor         :     5.0570 
 ad hoc parameters k1-k3   :    16.0000     1.3333    -4.0000 

 Edisp/kcal,au: -29.958286662287  -0.047741563602 
 E6   /kcal   : -15.716670688 
 E8   /kcal   : -14.241615974 
 % E8         :  47.538152414 

-------------------------   ----------------
Dispersion correction           -0.047741564
-------------------------   ----------------


-------------------------   --------------------
FINAL SINGLE POINT ENERGY     -2284.106202005881
-------------------------   --------------------


                            ***************************************
                            *     ORCA property calculations      *
                            ***************************************


  WARNING: The energy has been calculated at the MP2 level but the densities
           used in the property calculations are still SCF densities
           MP2 response densities have not been calculated 
           use %mp2 Density relaxed end
           or  %mp2 Density unrelaxed end

                                    ---------------------
                                    Active property flags
                                    ---------------------
   (+) Dipole Moment


------------------------------------------------------------------------------
                       ORCA ELECTRIC PROPERTIES CALCULATION
------------------------------------------------------------------------------

Dipole Moment Calculation                       ... on
Quadrupole Moment Calculation                   ... off
Polarizability Calculation                      ... off
GBWName                                         ... TMB26_T1.gbw
Electron density file                           ... TMB26_T1.scfp
The origin for moment calculation is the CENTER OF MASS  = ( 0.485035, -0.082092 -0.032589)

-------------
DIPOLE MOMENT
-------------
                                X             Y             Z
Electronic contribution:    332.38383     -71.53637     -21.64818
Nuclear contribution   :   -337.50313      71.82916      22.27008
                        -----------------------------------------
Total Dipole Moment    :     -5.11930       0.29279       0.62190
                        -----------------------------------------
Magnitude (a.u.)       :      5.16524
Magnitude (Debye)      :     13.12900



--------------------
Rotational spectrum 
--------------------
 
Rotational constants in cm-1:     0.008801     0.003370     0.003018 
Rotational constants in MHz :   263.837003   101.042363    90.466575 

 Dipole components along the rotational axes: 
x,y,z [a.u.] :     5.129797     0.134899     0.588810 
x,y,z [Debye]:    13.038907     0.342886     1.496637 

 

Timings for individual modules:

Sum of individual times         ...      209.122 sec (=   3.485 min)
GTO integral calculation        ...        4.845 sec (=   0.081 min)   2.3 %
SCF iterations                  ...      174.111 sec (=   2.902 min)  83.3 %
MP2 module                      ...       30.166 sec (=   0.503 min)  14.4 %
                             ****ORCA TERMINATED NORMALLY****
TOTAL RUN TIME: 0 days 0 hours 3 minutes 29 seconds 862 msec
