
                                 *****************
                                 * O   R   C   A *
                                 *****************

           --- An Ab Initio, DFT and Semiempirical electronic structure package ---

                  #######################################################
                  #                        -***-                        #
                  #          Department of theory and spectroscopy      #
                  #               Directorship: Frank Neese             #
                  #        Max Planck Institute fuer Kohlenforschung    #
                  #                Kaiser Wilhelm Platz 1               #
                  #                 D-45470 Muelheim/Ruhr               #
                  #                      Germany                        #
                  #                                                     #
                  #                  All rights reserved                #
                  #                        -***-                        #
                  #######################################################


                         Program Version 4.2.0 -  RELEASE  -


 With contributions from (in alphabetic order):
   Daniel Aravena         : Magnetic Suceptibility
   Michael Atanasov       : Ab Initio Ligand Field Theory (pilot matlab implementation)
   Alexander A. Auer      : GIAO ZORA, VPT2
   Ute Becker             : Parallelization
   Giovanni Bistoni       : ED, misc. LED, open-shell LED, HFLED
   Martin Brehm           : Molecular dynamics
   Dmytro Bykov           : SCF Hessian
   Vijay G. Chilkuri      : MRCI spin determinant printing, contributions to CSF-ICE
   Dipayan Datta          : RHF DLPNO-CCSD density
   Achintya Kumar Dutta   : EOM-CC, STEOM-CC
   Dmitry Ganyushin       : Spin-Orbit,Spin-Spin,Magnetic field MRCI
   Miquel Garcia          : C-PCM Hessian, Gaussian charge scheme
   Yang Guo               : DLPNO-NEVPT2, CIM, IAO-localization
   Andreas Hansen         : Spin unrestricted coupled pair/coupled cluster methods
   Benjamin Helmich-Paris : CASSCF linear response (MC-RPA)
   Lee Huntington         : MR-EOM, pCC
   Robert Izsak           : Overlap fitted RIJCOSX, COSX-SCS-MP3, EOM
   Christian Kollmar      : KDIIS, OOCD, Brueckner-CCSD(T), CCSD density
   Simone Kossmann        : Meta GGA functionals, TD-DFT gradient, OOMP2, MP2 Hessian
   Martin Krupicka        : AUTO-CI
   Lucas Lang             : DCDCAS
   Dagmar Lenk            : GEPOL surface, SMD
   Dimitrios Liakos       : Extrapolation schemes; Compound Job, initial MDCI parallelization
   Dimitrios Manganas     : Further ROCIS development; embedding schemes
   Dimitrios Pantazis     : SARC Basis sets
   Taras Petrenko         : DFT Hessian,TD-DFT gradient, ASA, ECA, R-Raman, ABS, FL, XAS/XES, NRVS
   Peter Pinski           : DLPNO-MP2, DLPNO-MP2 Gradient
   Christoph Reimann      : Effective Core Potentials
   Marius Retegan         : Local ZFS, SOC
   Christoph Riplinger    : Optimizer, TS searches, QM/MM, DLPNO-CCSD(T), (RO)-DLPNO pert. Triples
   Tobias Risthaus        : Range-separated hybrids, TD-DFT gradient, RPA, STAB
   Michael Roemelt        : Original ROCIS implementation
   Masaaki Saitow         : Open-shell DLPNO-CCSD energy and density
   Barbara Sandhoefer     : DKH picture change effects
   Avijit Sen             : IP-ROCIS
   Kantharuban Sivalingam : CASSCF convergence, NEVPT2, FIC-MRCI
   Bernardo de Souza      : ESD, SOC TD-DFT
   Georgi Stoychev        : AutoAux, RI-MP2 NMR
   Willem Van den Heuvel  : Paramagnetic NMR
   Boris Wezisla          : Elementary symmetry handling
   Frank Wennmohs         : Technical directorship


 We gratefully acknowledge several colleagues who have allowed us to
 interface, adapt or use parts of their codes:
   Stefan Grimme, W. Hujo, H. Kruse,             : VdW corrections, initial TS optimization,
                  C. Bannwarth                     DFT functionals, gCP, sTDA/sTD-DF
   Ed Valeev, F. Pavosevic, A. Kumar             : LibInt (2-el integral package), F12 methods
   Garnet Chan, S. Sharma, J. Yang, R. Olivares  : DMRG
   Ulf Ekstrom                                   : XCFun DFT Library
   Mihaly Kallay                                 : mrcc  (arbitrary order and MRCC methods)
   Andreas Klamt, Michael Diedenhofen            : otool_cosmo (COSMO solvation model)
   Jiri Pittner, Ondrej Demel                    : Mk-CCSD
   Frank Weinhold                                : gennbo (NPA and NBO analysis)
   Christopher J. Cramer and Donald G. Truhlar   : smd solvation model
   Lars Goerigk                                  : TD-DFT with DH, B97 family of functionals
   V. Asgeirsson, H. Jonsson                     : NEB implementation
   FAccTs GmbH                                   : IRC, NEB, NEB-TS, Multilevel, MM, QM/MM, CI optimization
   S Lehtola, MJT Oliveira, MAL Marques          : LibXC Library


 Your calculation uses the libint2 library for the computation of 2-el integrals
 For citations please refer to: http://libint.valeyev.net

 Your ORCA version has been built with support for libXC version: 4.2.3
 For citations please refer to: https://tddft.org/programs/libxc/

 This ORCA versions uses:
   CBLAS   interface :  Fast vector & matrix operations
   LAPACKE interface :  Fast linear algebra routines
   SCALAPACK package :  Parallel linear algebra routines


Your calculation utilizes the atom-pairwise dispersion correction
with the Becke-Johnson damping scheme (D3BJ)
Cite in your paper:
S.Grimme, S.Ehrlich, L.Goerigk, J Comput Chem, (2011), 32, 1456–1465 
S.Grimme, J.Antony, S.Ehrlich and H.Krieg, J.Chem.Phys., 132, (2010), 154104 
   

----- Orbital basis set information -----
Your calculation utilizes the basis: def2-TZVPPD
   F. Weigend and R. Ahlrichs, Phys. Chem. Chem. Phys. 7, 3297 (2005).
   D. Rappoport and F. Furche, J. Chem. Phys. 133 134105 (2010).

----- AuxC basis set information -----
Your calculation utilizes the auxiliary basis: def2-TZVPPD/C
   A. Hellweg, C. Hattig, S. Hofener and W. Klopper, Theor. Chem. Acc. 117, 587 (2007).

----- AuxJK basis set information -----
Your calculation utilizes the auxiliary basis: def2/JK
   H-Ba, Hf-Rn: F. Weigend, J. Comput. Chem. 29, 167 (2008).

cite the ECPs for Re [Def2-ECP] as follows:
Ce-Yb(ecp-28): M. Dolg, H. Stoll, H.Preuss, J. Chem. Phys., 1989, 90, 1730-1734.
Y-Cd(ecp-28), Hf-Hg(ecp-46): D. Andrae,U. Haeussermann, M. Dolg, H. Stoll, H. Preuss, Theor. Chim. Acta, 1990, 77, 123-141.
In-Sb(ecp-28), Tl-Bi(ecp-46): B. Metz, H. Stoll, M. Dolg, J. Chem. Phys., 2000, 113, 2563-2569.
Te-Xe(ecp-28), Po-Rn(ecp-46): K. A. Peterson, D. Figgen, E. Goll, H. Stoll, M. Dolg, J. Chem. Phys., 2003, 119, 11113-11123.
Rb(ecp-28), Cs(ecp-46): T. Leininger, A. Nicklass, W. Kuechle, H. Stoll, M. Dolg, A. Bergner, Chem. Phys. Lett., 1996, 255, 274-280.
Sr(ecp-28), Ba(ecp-46): M. Kaupp, P. V. Schleyer, H. Stoll and H. Preuss, J. Chem. Phys., 1991, 94, 1360-1366.
La(ecp-46): M. Dolg, H. Stoll, A. Savin, H. Preuss, Theor. Chim. Acta, 1989, 75, 173-194.
Lu(ecp-28): X. Cao, M. Dolg, J. Chem. Phys., 2001, 115, 7348-7355.

ECP parameters for Re [Def2-ECP] have been obtained from:
TURBOMOLE (7.0.2)

================================================================================
                                        WARNINGS
                       Please study these warnings very carefully!
================================================================================


WARNING: No MP2 level density has been requested!
         To caclulate MP2 level properties use
         %mp2 Density relaxed end
         or
         %mp2 Density unrelaxed end
         Otherwise for double-hybrid DFT only the energy is correct!

WARNING: The frozen-core approximation is turned on by default for 
         the MP2 part of double-hybrid DFT.

INFO   : the flag for use of LIBINT has been found!

================================================================================
                                       INPUT FILE
================================================================================
NAME = TMB20_T2.in
|  1> #
|  2> # TMB20_T2 ri-B2PLYP-D3BJ/Def2-TZVPPD
|  3> #
|  4> ! rijk ri-b2plyp d3bj def2-tzvppd def2/jk def2-tzvppd/c grid4 nofinalgrid
|  5> 
|  6> *xyz 0 1
|  7> Re       0.995979    0.090170   -0.058185 
|  8> C        2.014396   -1.161086   -1.123855 
|  9> C        1.992692   -0.479631    1.452527 
| 10> C        2.318376    1.423242   -0.367549 
| 11> Br      -0.834689   -1.732689    0.254349 
| 12> O        3.132368    2.217573   -0.550268 
| 13> O        2.612239   -1.888693   -1.769425 
| 14> O        2.568963   -0.789175    2.393169 
| 15> C       -1.540273    1.685786    1.546594 
| 16> C       -0.263771    1.318522    1.475095 
| 17> C       -2.014636    1.773094    0.144138 
| 18> C       -2.942101    0.711821   -0.394874 
| 19> O       -2.841029    0.284728   -1.529710 
| 20> O       -3.882762    0.367872    0.447794 
| 21> C       -0.602735    1.743713   -0.435058 
| 22> O       -0.382838    0.990264   -1.561710 
| 23> H       -1.229741    0.476538   -1.736592 
| 24> C       -4.752144   -0.688497    0.013665 
| 25> H       -5.447661   -0.845693    0.832416 
| 26> H       -5.279179   -0.395656   -0.893281 
| 27> H       -4.161178   -1.583930   -0.173849 
| 28> H        0.422554    1.379477    2.313653 
| 29> H       -2.484103    2.733887   -0.106082 
| 30> H       -2.090878    1.979492    2.431124 
| 31> H       -0.128477    2.714877   -0.508669 
| 32> *
| 33> 
| 34> %maxcore 5000
| 35> 
| 36> %pal
| 37> nprocs = 24
| 38> end
| 39> 
| 40> 
| 41>                          ****END OF INPUT****
================================================================================

                       ****************************
                       * Single Point Calculation *
                       ****************************

---------------------------------
CARTESIAN COORDINATES (ANGSTROEM)
---------------------------------
  Re     0.995979    0.090170   -0.058185
  C      2.014396   -1.161086   -1.123855
  C      1.992692   -0.479631    1.452527
  C      2.318376    1.423242   -0.367549
  Br    -0.834689   -1.732689    0.254349
  O      3.132368    2.217573   -0.550268
  O      2.612239   -1.888693   -1.769425
  O      2.568963   -0.789175    2.393169
  C     -1.540273    1.685786    1.546594
  C     -0.263771    1.318522    1.475095
  C     -2.014636    1.773094    0.144138
  C     -2.942101    0.711821   -0.394874
  O     -2.841029    0.284728   -1.529710
  O     -3.882762    0.367872    0.447794
  C     -0.602735    1.743713   -0.435058
  O     -0.382838    0.990264   -1.561710
  H     -1.229741    0.476538   -1.736592
  C     -4.752144   -0.688497    0.013665
  H     -5.447661   -0.845693    0.832416
  H     -5.279179   -0.395656   -0.893281
  H     -4.161178   -1.583930   -0.173849
  H      0.422554    1.379477    2.313653
  H     -2.484103    2.733887   -0.106082
  H     -2.090878    1.979492    2.431124
  H     -0.128477    2.714877   -0.508669

----------------------------
CARTESIAN COORDINATES (A.U.)
----------------------------
  NO LB      ZA    FRAG     MASS         X           Y           Z
   0 Re   15.0000*   0   186.207    1.882128    0.170397   -0.109954
   1 C     6.0000    0    12.011    3.806657   -2.194135   -2.123778
   2 C     6.0000    0    12.011    3.765642   -0.906371    2.744878
   3 C     6.0000    0    12.011    4.381096    2.689538   -0.694567
   4 Br   35.0000    0    79.900   -1.577334   -3.274308    0.480650
   5 O     8.0000    0    15.999    5.919318    4.190606   -1.039856
   6 O     8.0000    0    15.999    4.936416   -3.569113   -3.343729
   7 O     8.0000    0    15.999    4.854637   -1.491325    4.522434
   8 C     6.0000    0    12.011   -2.910694    3.185674    2.922639
   9 C     6.0000    0    12.011   -0.498455    2.491645    2.787526
  10 C     6.0000    0    12.011   -3.807110    3.350662    0.272381
  11 C     6.0000    0    12.011   -5.559765    1.345147   -0.746204
  12 O     8.0000    0    15.999   -5.368767    0.538058   -2.890733
  13 O     8.0000    0    15.999   -7.337357    0.695177    0.846208
  14 C     6.0000    0    12.011   -1.139004    3.295140   -0.822140
  15 O     8.0000    0    15.999   -0.723459    1.871328   -2.951204
  16 H     1.0000    0     1.008   -2.323874    0.900526   -3.281683
  17 C     6.0000    0    12.011   -8.980251   -1.301071    0.025823
  18 H     1.0000    0     1.008  -10.294587   -1.598128    1.573038
  19 H     1.0000    0     1.008   -9.976203   -0.747681   -1.688056
  20 H     1.0000    0     1.008   -7.863487   -2.993194   -0.328527
  21 H     1.0000    0     1.008    0.798511    2.606834    4.372171
  22 H     1.0000    0     1.008   -4.694274    5.166298   -0.200466
  23 H     1.0000    0     1.008   -3.951187    3.740698    4.594159
  24 H     1.0000    0     1.008   -0.242786    5.130374   -0.961245
* core charge reduced due to ECP

--------------------------------
INTERNAL COORDINATES (ANGSTROEM)
--------------------------------
 Re     0   0   0     0.000000000000     0.00000000     0.00000000
 C      1   0   0     1.933511653010     0.00000000     0.00000000
 C      1   2   0     1.897461654662    88.15504259     0.00000000
 C      1   2   3     1.903029392124    89.86893178    88.55772816
 Br     1   2   3     2.602275496803    89.05000414   266.32283848
 O      4   1   2     1.151924887563   179.05328208   312.15035733
 O      2   1   3     1.141748143856   178.99047640   205.13035974
 O      3   1   2     1.145736935575   177.42364093   177.89275802
 C      1   2   3     3.399099919950   163.13847391   244.19258936
 C      9   1   2     1.330207618645    29.42367729   147.22740305
 C      9   1   2     1.483079827443    79.62084388   299.89687830
 C     11   9   1     1.508981657575   119.53599818    93.25772347
 O     12  11   9     1.216748423763   121.93573468   218.97945568
 O     12  11   9     1.308905416654   113.36312792    42.39133353
 C     11   9   1     1.526366824645    93.54516520   332.05053820
 O     15  11   9     1.373093156095   118.03787712   138.84792275
 H     16  15  11     1.005854267978   106.74259588   352.73565845
 C     14  12  11     1.435342647149   115.71952430   183.12058723
 H     18  14  12     1.085729100515   105.45501800   179.18706665
 H     18  14  12     1.089069689883   110.30986584   299.00107229
 H     18  14  12     1.089129271869   109.17784678    59.85674728
 H     10   9   1     1.085328078055   123.35328937   193.99131907
 H     11   9   1     1.098240639085   113.80843211   219.46126995
 H      9   1   2     1.082507460187   153.20950354   107.61588067
 H     15  11   9     1.083281470709   114.42453838   273.06330585

---------------------------
INTERNAL COORDINATES (A.U.)
---------------------------
 Re     0   0   0     0.000000000000     0.00000000     0.00000000
 C      1   0   0     3.653807500934     0.00000000     0.00000000
 C      1   2   0     3.585682876929    88.15504259     0.00000000
 C      1   2   3     3.596204375918    89.86893178    88.55772816
 Br     1   2   3     4.917588013971    89.05000414   266.32283848
 O      4   1   2     2.176822564341   179.05328208   312.15035733
 O      2   1   3     2.157591305800   178.99047640   205.13035974
 O      3   1   2     2.165129029755   177.42364093   177.89275802
 C      1   2   3     6.423367950538   163.13847391   244.19258936
 C      9   1   2     2.513728100494    29.42367729   147.22740305
 C      9   1   2     2.802614708611    79.62084388   299.89687830
 C     11   9   1     2.851562073927   119.53599818    93.25772347
 O     12  11   9     2.299321294792   121.93573468   218.97945568
 O     12  11   9     2.473472772682   113.36312792    42.39133353
 C     11   9   1     2.884415278483    93.54516520   332.05053820
 O     15  11   9     2.594770021380   118.03787712   138.84792275
 H     16  15  11     1.900789097114   106.74259588   352.73565845
 C     14  12  11     2.712404511450   115.71952430   183.12058723
 H     18  14  12     2.051730655603   105.45501800   179.18706665
 H     18  14  12     2.058043454634   110.30986584   299.00107229
 H     18  14  12     2.058156048269   109.17784678    59.85674728
 H     10   9   1     2.050972832979   123.35328937   193.99131907
 H     11   9   1     2.075374037013   113.80843211   219.46126995
 H      9   1   2     2.045642637681   153.20950354   107.61588067
 H     15  11   9     2.047105305591   114.42453838   273.06330585

---------------------
BASIS SET INFORMATION
---------------------
There are 5 groups of distinct atoms

 Group   1 Type Re  : 8s8p6d2f1g contracted to 6s5p3d2f1g pattern {311111/41111/411/11/1}
 Group   2 Type C   : 12s6p3d1f contracted to 6s3p3d1f pattern {621111/411/111/1}
 Group   3 Type Br  : 18s14p9d1f contracted to 7s6p5d1f pattern {8421111/641111/51111/1}
 Group   4 Type O   : 12s7p3d1f contracted to 6s4p3d1f pattern {621111/4111/111/1}
 Group   5 Type H   : 5s3p1d contracted to 3s3p1d pattern {311/111/1}

Atom   0Re   basis set group =>   1
Atom   1C    basis set group =>   2
Atom   2C    basis set group =>   2
Atom   3C    basis set group =>   2
Atom   4Br   basis set group =>   3
Atom   5O    basis set group =>   4
Atom   6O    basis set group =>   4
Atom   7O    basis set group =>   4
Atom   8C    basis set group =>   2
Atom   9C    basis set group =>   2
Atom  10C    basis set group =>   2
Atom  11C    basis set group =>   2
Atom  12O    basis set group =>   4
Atom  13O    basis set group =>   4
Atom  14C    basis set group =>   2
Atom  15O    basis set group =>   4
Atom  16H    basis set group =>   5
Atom  17C    basis set group =>   2
Atom  18H    basis set group =>   5
Atom  19H    basis set group =>   5
Atom  20H    basis set group =>   5
Atom  21H    basis set group =>   5
Atom  22H    basis set group =>   5
Atom  23H    basis set group =>   5
Atom  24H    basis set group =>   5
---------------------------------
AUXILIARY/C BASIS SET INFORMATION
---------------------------------
There are 5 groups of distinct atoms

 Group   1 Type Re  : 9s9p8d5f4g3h1i contracted to 9s9p8d5f4g3h1i pattern {111111111/111111111/11111111/11111/1111/111/1}
 Group   2 Type C   : 9s7p6d4f1g contracted to 9s7p5d4f1g pattern {111111111/1111111/21111/1111/1}
 Group   3 Type Br  : 11s10p9d7f4g1h contracted to 11s10p9d6f4g1h pattern {11111111111/1111111111/111111111/211111/1111/1}
 Group   4 Type O   : 9s7p6d4f1g contracted to 9s7p5d4f1g pattern {111111111/1111111/21111/1111/1}
 Group   5 Type H   : 5s4p3d1f contracted to 5s4p3d1f pattern {11111/1111/111/1}

Atom   0Re   basis set group =>   1
Atom   1C    basis set group =>   2
Atom   2C    basis set group =>   2
Atom   3C    basis set group =>   2
Atom   4Br   basis set group =>   3
Atom   5O    basis set group =>   4
Atom   6O    basis set group =>   4
Atom   7O    basis set group =>   4
Atom   8C    basis set group =>   2
Atom   9C    basis set group =>   2
Atom  10C    basis set group =>   2
Atom  11C    basis set group =>   2
Atom  12O    basis set group =>   4
Atom  13O    basis set group =>   4
Atom  14C    basis set group =>   2
Atom  15O    basis set group =>   4
Atom  16H    basis set group =>   5
Atom  17C    basis set group =>   2
Atom  18H    basis set group =>   5
Atom  19H    basis set group =>   5
Atom  20H    basis set group =>   5
Atom  21H    basis set group =>   5
Atom  22H    basis set group =>   5
Atom  23H    basis set group =>   5
Atom  24H    basis set group =>   5
----------------------------------
AUXILIARY/JK BASIS SET INFORMATION
----------------------------------
There are 5 groups of distinct atoms

 Group   1 Type Re  : 13s12p11d9f5g3h2i contracted to 11s9p9d7f4g3h2i pattern {31111111111/411111111/311111111/3111111/2111/111/11}
 Group   2 Type C   : 14s10p6d2f1g contracted to 10s8p5d1f1g pattern {5111111111/31111111/21111/2/1}
 Group   3 Type Br  : 20s14p13d10f7g3h contracted to 17s13p12d9f6g3h pattern {41111111111111111/2111111111111/211111111111/211111111/211111/111}
 Group   4 Type O   : 14s10p6d2f1g contracted to 10s8p4d2f1g pattern {5111111111/31111111/3111/11/1}
 Group   5 Type H   : 4s2p2d contracted to 2s2p2d pattern {31/11/11}

Atom   0Re   basis set group =>   1
Atom   1C    basis set group =>   2
Atom   2C    basis set group =>   2
Atom   3C    basis set group =>   2
Atom   4Br   basis set group =>   3
Atom   5O    basis set group =>   4
Atom   6O    basis set group =>   4
Atom   7O    basis set group =>   4
Atom   8C    basis set group =>   2
Atom   9C    basis set group =>   2
Atom  10C    basis set group =>   2
Atom  11C    basis set group =>   2
Atom  12O    basis set group =>   4
Atom  13O    basis set group =>   4
Atom  14C    basis set group =>   2
Atom  15O    basis set group =>   4
Atom  16H    basis set group =>   5
Atom  17C    basis set group =>   2
Atom  18H    basis set group =>   5
Atom  19H    basis set group =>   5
Atom  20H    basis set group =>   5
Atom  21H    basis set group =>   5
Atom  22H    basis set group =>   5
Atom  23H    basis set group =>   5
Atom  24H    basis set group =>   5
-------------------------
ECP PARAMETER INFORMATION
-------------------------

 Group 1, Type Re ECP Def2-ECP (replacing 60 core electrons, lmax=3)

Atom   0Re   ECP group =>   1



           ************************************************************
           *        Program running with 24 parallel MPI-processes    *
           *              working on a common directory               *
           ************************************************************
------------------------------------------------------------------------------
                           ORCA GTO INTEGRAL CALCULATION
                           -- RI-GTO INTEGRALS CHOSEN --
------------------------------------------------------------------------------

                         BASIS SET STATISTICS AND STARTUP INFO

Gaussian basis set:
 # of primitive gaussian shells          ...  475
 # of primitive gaussian functions       ... 1147
 # of contracted shells                  ...  293
 # of contracted basis functions         ...  825
 Highest angular momentum                ...    4
 Maximum contraction depth               ...    8
Auxiliary gaussian basis set:
 # of primitive gaussian shells          ...  681
 # of primitive gaussian functions       ... 2179
 # of contracted shells                  ...  528
 # of contracted aux-basis functions     ... 1774
 Highest angular momentum                ...    6
 Maximum contraction depth               ...    5
Ratio of auxiliary to basis functions    ...  2.15
Integral package used                  ... LIBINT
 One Electron integrals                  
   ECP integrals                         ... done
 Ordering auxiliary basis shells         ... done
 Integral threshhold             Thresh  ...  1.000e-10
 Primitive cut-off               TCut    ...  1.000e-11
 Pre-screening matrix                    ... done
 Shell pair data                         ... 
 Ordering of the shell pairs             ... done (   0.006 sec) 35869 of 43071 pairs
 Determination of significant pairs      ... done (   0.000 sec)
 Creation of shell pair data             ... done (   0.004 sec)
 Storage of shell pair data              ... done (   0.014 sec)
 Shell pair data done in (   0.025 sec)
 Computing two index integrals           ... done
 Cholesky decomposition of the V-matrix  ... done


Timings:
 Total evaluation time                   ...   3.734 sec (  0.062 min)
 One electron matrix time                ...   2.892 sec (  0.048 min) = 77.5%
 Schwartz matrix evaluation time         ...   0.468 sec (  0.008 min) = 12.5%
 Two index repulsion integral time       ...   0.187 sec (  0.003 min) =  5.0%
 Cholesky decomposition of V             ...   0.132 sec (  0.002 min) =  3.5%
 Three index repulsion integral time     ...   0.000 sec (  0.000 min) =  0.0%



           ************************************************************
           *        Program running with 24 parallel MPI-processes    *
           *              working on a common directory               *
           ************************************************************
-------------------------------------------------------------------------------
                                 ORCA SCF
-------------------------------------------------------------------------------

------------
SCF SETTINGS
------------
Hamiltonian:
 Density Functional     Method          .... DFT(GTOs)
 Exchange Functional    Exchange        .... B88
   X-Alpha parameter    XAlpha          ....  0.666667
   Becke's b parameter  XBeta           ....  0.004200
 Correlation Functional Correlation     .... LYP
 LDA part of GGA corr.  LDAOpt          .... VWN-3
 Gradients option       PostSCFGGA      .... off
 Hybrid DFT is turned on
   Fraction HF Exchange ScalHFX         ....  0.530000
   Scaling of DF-GGA-X  ScalDFX         ....  0.470000
   Scaling of DF-GGA-C  ScalDFC         ....  0.730000
   Scaling of DF-LDA-C  ScalLDAC        ....  0.730000
   Perturbative correction              ....  0.270000
   Density functional embedding theory  .... OFF
 RI-approximation to the Coulomb term is turned on
   Number of auxiliary basis functions  .... 1774
   RI-JK (J+K treated both via RI)      .... on


General Settings:
 Integral files         IntName         .... TMB20_T2
 Hartree-Fock type      HFTyp           .... RHF
 Total Charge           Charge          ....    0
 Multiplicity           Mult            ....    1
 Number of Electrons    NEL             ....  160
 Basis Dimension        Dim             ....  825
 Nuclear Repulsion      ENuc            ....   1852.1384979929 Eh

Convergence Acceleration:
 DIIS                   CNVDIIS         .... on
   Start iteration      DIISMaxIt       ....    12
   Startup error        DIISStart       ....  0.200000
   # of expansion vecs  DIISMaxEq       ....     5
   Bias factor          DIISBfac        ....   1.050
   Max. coefficient     DIISMaxC        ....  10.000
 Newton-Raphson         CNVNR           .... off
 SOSCF                  CNVSOSCF        .... off
 Level Shifting         CNVShift        .... on
   Level shift para.    LevelShift      ....    0.2500
   Turn off err/grad.   ShiftErr        ....    0.0010
 Zerner damping         CNVZerner       .... off
 Static damping         CNVDamp         .... on
   Fraction old density DampFac         ....    0.7000
   Max. Damping (<1)    DampMax         ....    0.9800
   Min. Damping (>=0)   DampMin         ....    0.0000
   Turn off err/grad.   DampErr         ....    0.1000
 Fernandez-Rico         CNVRico         .... off

SCF Procedure:
 Maximum # iterations   MaxIter         ....   125
 SCF integral mode      SCFMode         .... Direct
   Integral package                     .... LIBINT
 Reset frequency        DirectResetFreq ....    20
 Integral Threshold     Thresh          ....  1.000e-10 Eh
 Primitive CutOff       TCut            ....  1.000e-11 Eh

Convergence Tolerance:
 Convergence Check Mode ConvCheckMode   .... Total+1el-Energy
 Convergence forced     ConvForced      .... 0
 Energy Change          TolE            ....  1.000e-06 Eh
 1-El. energy change                    ....  1.000e-03 Eh
 DIIS Error             TolErr          ....  1.000e-06


Diagonalization of the overlap matrix:
Smallest eigenvalue                        ... 6.842e-07
Time for diagonalization                   ...    0.115 sec
Threshold for overlap eigenvalues          ... 1.000e-08
Number of eigenvalues below threshold      ... 0
Time for construction of square roots      ...    0.087 sec
Total time needed                          ...    0.204 sec

-------------------
DFT GRID GENERATION
-------------------

General Integration Accuracy     IntAcc      ...  4.670
Radial Grid Type                 RadialGrid  ... Gauss-Chebyshev
Angular Grid (max. acc.)         AngularGrid ... Lebedev-302
Angular grid pruning method      GridPruning ... 3 (G Style)
Weight generation scheme         WeightScheme... Becke
Basis function cutoff            BFCut       ...    1.0000e-10
Integration weight cutoff        WCut        ...    1.0000e-14
Grids for H and He will be reduced by one unit

# of grid points (after initial pruning)     ... 141600 (   0.0 sec)
# of grid points (after weights+screening)   ... 126969 (   0.1 sec)
nearest neighbour list constructed           ...    0.0 sec
Grid point re-assignment to atoms done       ...    0.0 sec
Grid point division into batches done        ...    0.5 sec
Reduced shell lists constructed in    1.0 sec

Total number of grid points                  ...   126969
Total number of batches                      ...     1996
Average number of points per batch           ...       63
Average number of grid points per atom       ...     5079
Average number of shells per batch           ...   189.26 (64.59%)
Average number of basis functions per batch  ...   549.56 (66.61%)
Average number of large shells per batch     ...   150.52 (79.53%)
Average number of large basis fcns per batch ...   436.68 (79.46%)
Average number of aux-shells per batch       ...   189.26 (35.84%)
Average number of aux functions per batch    ...   549.56 (30.98%)
Maximum spatial batch extension              ...   1.86,  1.83,  1.82 au
Average spatial batch extension              ...   0.04,  0.04,  0.04 au

Time for grid setup =    1.158 sec

------------------------------
INITIAL GUESS: MODEL POTENTIAL
------------------------------
Loading Hartree-Fock densities                     ... done
  calling /sw/apps/orca/orca_4_2_0_linux_x86-64_openmpi314/orca TMB20_T2_atom75.inp > TMB20_T2_atom75.out in order to generate an atomic fitting density for atom 0 (Re with ECP) on-the-fly... 
    atom 0 (Re), assumed electronic state with S=6: 1s2 2s2 2p6 3s2 3p6 4s2 3d10 4p6 5s2 4d10 5p6 6s2 4f14 5d5           ... done
Calculating cut-offs                               ... done
Setting up the integral package                    ... done
Initializing the effective Hamiltonian             ... done
Starting the Coulomb interaction                   ... done (   0.1 sec)
Reading the grid                                   ... done
Mapping shells                                     ... done
Starting the XC term evaluation                    ... done (   0.4 sec)
  promolecular density results
     # of electrons  =    219.998107558
     EX              =   -521.842190164
     EC              =     -3.486419295
     EX+EC           =   -525.328609459
Transforming the Hamiltonian                       ... done (   0.1 sec)
Diagonalizing the Hamiltonian                      ... done (   0.1 sec)
Back transforming the eigenvectors                 ... done (   0.0 sec)
Now organizing SCF variables                       ... done
                      ------------------
                      INITIAL GUESS DONE (   3.3 sec)
                      ------------------
--------------
SCF ITERATIONS
--------------
ITER       Energy         Delta-E        Max-DP      RMS-DP      [F,P]     Damp
  0  -3449.0576661394   0.000000000000 0.53642820  0.00298786  0.3518356 0.7000
  1  -3448.9216900960   0.135976043422 0.37823711  0.00231167  0.2678420 0.7000
                               ***Turning on DIIS***
  2  -3449.0720010401  -0.150310944082 0.32016682  0.00166449  0.1915710 0.7000
  3  -3449.3343514430  -0.262350402957 0.45171102  0.00131690  0.1300977 0.7000
  4  -3449.5325361296  -0.198184686596 1.07528448  0.00288272  0.0847886 0.0000
  5  -3449.6789795988  -0.146443469118 0.12651975  0.00032282  0.0369238 0.0000
  6  -3449.6892110294  -0.010231430602 0.07059999  0.00014638  0.0047051 0.0000
  7  -3449.6894966630  -0.000285633650 0.02274134  0.00005893  0.0019601 0.0000
  8  -3449.6895513359  -0.000054672912 0.05390263  0.00009808  0.0012627 0.0000
  9  -3449.6895717846  -0.000020448653 0.02664674  0.00007438  0.0005728 0.0000
 10  -3449.6895763910  -0.000004606437 0.01579506  0.00004769  0.0003885 0.0000
 11  -3449.6895775717  -0.000001180720 0.01917900  0.00005111  0.0001887 0.0000
 12  -3449.6895780162  -0.000000444469 0.03138755  0.00008069  0.0000456 0.0000
                 **** Energy Check signals convergence ****

               *****************************************************
               *                     SUCCESS                       *
               *           SCF CONVERGED AFTER  13 CYCLES          *
               *****************************************************


----------------
TOTAL SCF ENERGY
----------------

Total Energy       :        -3449.68957805 Eh          -93870.82572 eV

Components:
Nuclear Repulsion  :         1852.13849799 Eh           50399.25078 eV
Electronic Energy  :        -5301.82807604 Eh         -144270.07650 eV
One Electron Energy:        -8496.08049894 Eh         -231190.10385 eV
Two Electron Energy:         3194.25242290 Eh           86920.02736 eV

Virial components:
Potential Energy   :        -6843.27619969 Eh         -186215.01238 eV
Kinetic Energy     :         3393.58662164 Eh           92344.18666 eV
Virial Ratio       :            2.01653205


DFT components:
N(Alpha)           :       79.999883090331 electrons
N(Beta)            :       79.999883090331 electrons
N(Total)           :      159.999766180662 electrons
E(X)               :      -92.586885799221 Eh       
E(C)               :       -4.444536800317 Eh       
E(XC)              :      -97.031422599539 Eh       
DFET-embed. en.    :        0.000000000000 Eh       

---------------
SCF CONVERGENCE
---------------

  Last Energy change         ...   -3.0119e-08  Tolerance :   1.0000e-06
  Last MAX-Density change    ...    3.3380e-02  Tolerance :   1.0000e-05
  Last RMS-Density change    ...    6.1099e-05  Tolerance :   1.0000e-06
  Last DIIS Error            ...    3.5672e-05  Tolerance :   1.0000e-06

             **** THE GBW FILE WAS UPDATED (TMB20_T2.gbw) ****
             **** DENSITY FILE WAS UPDATED (TMB20_T2.scfp) ****
             **** ENERGY FILE WAS UPDATED (TMB20_T2.en.tmp) ****
             **** THE GBW FILE WAS UPDATED (TMB20_T2.gbw) ****
             **** DENSITY FILE WAS UPDATED (TMB20_T2.scfp) ****
----------------
ORBITAL ENERGIES
----------------

  NO   OCC          E(Eh)            E(eV) 
   0   2.0000    -485.790782    -13219.0392 
   1   2.0000     -63.542081     -1729.0679 
   2   2.0000     -57.164968     -1555.5379 
   3   2.0000     -57.164006     -1555.5117 
   4   2.0000     -57.163945     -1555.5100 
   5   2.0000     -19.825294      -539.4737 
   6   2.0000     -19.813369      -539.1492 
   7   2.0000     -19.808067      -539.0049 
   8   2.0000     -19.801917      -538.8376 
   9   2.0000     -19.793117      -538.5981 
  10   2.0000     -19.758983      -537.6693 
  11   2.0000     -10.802706      -293.9566 
  12   2.0000     -10.780758      -293.3593 
  13   2.0000     -10.747179      -292.4456 
  14   2.0000     -10.743356      -292.3416 
  15   2.0000     -10.736759      -292.1621 
  16   2.0000     -10.691017      -290.9174 
  17   2.0000     -10.690752      -290.9102 
  18   2.0000     -10.673633      -290.4443 
  19   2.0000     -10.659954      -290.0721 
  20   2.0000      -9.102317      -247.6866 
  21   2.0000      -6.837878      -186.0681 
  22   2.0000      -6.834319      -185.9713 
  23   2.0000      -6.834100      -185.9653 
  24   2.0000      -3.417062       -92.9830 
  25   2.0000      -2.798123       -76.1408 
  26   2.0000      -2.796893       -76.1073 
  27   2.0000      -2.796694       -76.1019 
  28   2.0000      -2.793391       -76.0120 
  29   2.0000      -2.793385       -76.0119 
  30   2.0000      -1.917918       -52.1892 
  31   2.0000      -1.909002       -51.9466 
  32   2.0000      -1.908088       -51.9217 
  33   2.0000      -1.309327       -35.6286 
  34   2.0000      -1.289221       -35.0815 
  35   2.0000      -1.282923       -34.9101 
  36   2.0000      -1.274960       -34.6934 
  37   2.0000      -1.272543       -34.6277 
  38   2.0000      -1.209350       -32.9081 
  39   2.0000      -1.018791       -27.7227 
  40   2.0000      -0.889512       -24.2049 
  41   2.0000      -0.844308       -22.9748 
  42   2.0000      -0.808827       -22.0093 
  43   2.0000      -0.806093       -21.9349 
  44   2.0000      -0.712645       -19.3921 
  45   2.0000      -0.695856       -18.9352 
  46   2.0000      -0.683668       -18.6035 
  47   2.0000      -0.664940       -18.0939 
  48   2.0000      -0.660119       -17.9628 
  49   2.0000      -0.656097       -17.8533 
  50   2.0000      -0.645361       -17.5612 
  51   2.0000      -0.614340       -16.7170 
  52   2.0000      -0.609641       -16.5892 
  53   2.0000      -0.597736       -16.2652 
  54   2.0000      -0.584601       -15.9078 
  55   2.0000      -0.570104       -15.5133 
  56   2.0000      -0.554026       -15.0758 
  57   2.0000      -0.549949       -14.9649 
  58   2.0000      -0.545729       -14.8500 
  59   2.0000      -0.538596       -14.6559 
  60   2.0000      -0.536805       -14.6072 
  61   2.0000      -0.526601       -14.3296 
  62   2.0000      -0.523761       -14.2522 
  63   2.0000      -0.520250       -14.1567 
  64   2.0000      -0.517997       -14.0954 
  65   2.0000      -0.510526       -13.8921 
  66   2.0000      -0.506273       -13.7764 
  67   2.0000      -0.478614       -13.0237 
  68   2.0000      -0.468053       -12.7364 
  69   2.0000      -0.464219       -12.6321 
  70   2.0000      -0.415163       -11.2971 
  71   2.0000      -0.411604       -11.2003 
  72   2.0000      -0.393911       -10.7189 
  73   2.0000      -0.371697       -10.1144 
  74   2.0000      -0.342397        -9.3171 
  75   2.0000      -0.330578        -8.9955 
  76   2.0000      -0.314896        -8.5688 
  77   2.0000      -0.294670        -8.0184 
  78   2.0000      -0.274187        -7.4610 
  79   2.0000      -0.269755        -7.3404 
  80   0.0000      -0.035226        -0.9585 
  81   0.0000       0.001364         0.0371 
  82   0.0000       0.011429         0.3110 
  83   0.0000       0.016939         0.4609 
  84   0.0000       0.024282         0.6608 
  85   0.0000       0.029936         0.8146 
  86   0.0000       0.031811         0.8656 
  87   0.0000       0.037620         1.0237 
  88   0.0000       0.040895         1.1128 
  89   0.0000       0.045973         1.2510 
  90   0.0000       0.053358         1.4520 
  91   0.0000       0.056438         1.5357 
  92   0.0000       0.060202         1.6382 
  93   0.0000       0.063852         1.7375 
  94   0.0000       0.064921         1.7666 
  95   0.0000       0.072400         1.9701 
  96   0.0000       0.074230         2.0199 
  97   0.0000       0.081841         2.2270 
  98   0.0000       0.082679         2.2498 
  99   0.0000       0.086972         2.3666 
 100   0.0000       0.088976         2.4212 
 101   0.0000       0.092928         2.5287 
 102   0.0000       0.096125         2.6157 
 103   0.0000       0.100367         2.7311 
 104   0.0000       0.102934         2.8010 
 105   0.0000       0.104459         2.8425 
 106   0.0000       0.111512         3.0344 
 107   0.0000       0.116626         3.1735 
 108   0.0000       0.120135         3.2690 
 109   0.0000       0.121529         3.3070 
 110   0.0000       0.125066         3.4032 
 111   0.0000       0.127166         3.4604 
 112   0.0000       0.130572         3.5531 
 113   0.0000       0.139298         3.7905 
 114   0.0000       0.146980         3.9995 
 115   0.0000       0.149412         4.0657 
 116   0.0000       0.154202         4.1960 
 117   0.0000       0.158211         4.3051 
 118   0.0000       0.161120         4.3843 
 119   0.0000       0.164351         4.4722 
 120   0.0000       0.167669         4.5625 
 121   0.0000       0.170466         4.6386 
 122   0.0000       0.175030         4.7628 
 123   0.0000       0.179193         4.8761 
 124   0.0000       0.184351         5.0164 
 125   0.0000       0.187599         5.1048 
 126   0.0000       0.192032         5.2255 
 127   0.0000       0.197282         5.3683 
 128   0.0000       0.201515         5.4835 
 129   0.0000       0.205091         5.5808 
 130   0.0000       0.208766         5.6808 
 131   0.0000       0.217259         5.9119 
 132   0.0000       0.217783         5.9262 
 133   0.0000       0.221285         6.0215 
 134   0.0000       0.223976         6.0947 
 135   0.0000       0.230543         6.2734 
 136   0.0000       0.233411         6.3514 
 137   0.0000       0.237865         6.4726 
 138   0.0000       0.243738         6.6324 
 139   0.0000       0.244425         6.6511 
 140   0.0000       0.245551         6.6818 
 141   0.0000       0.249431         6.7874 
 142   0.0000       0.255601         6.9553 
 143   0.0000       0.261663         7.1202 
 144   0.0000       0.265523         7.2252 
 145   0.0000       0.268539         7.3073 
 146   0.0000       0.270151         7.3512 
 147   0.0000       0.272190         7.4067 
 148   0.0000       0.275053         7.4846 
 149   0.0000       0.279916         7.6169 
 150   0.0000       0.283514         7.7148 
 151   0.0000       0.284599         7.7443 
 152   0.0000       0.287777         7.8308 
 153   0.0000       0.293492         7.9863 
 154   0.0000       0.296540         8.0693 
 155   0.0000       0.302522         8.2320 
 156   0.0000       0.303966         8.2713 
 157   0.0000       0.306979         8.3533 
 158   0.0000       0.312044         8.4911 
 159   0.0000       0.314662         8.5624 
 160   0.0000       0.319254         8.6873 
 161   0.0000       0.320929         8.7329 
 162   0.0000       0.328587         8.9413 
 163   0.0000       0.331410         9.0181 
 164   0.0000       0.332288         9.0420 
 165   0.0000       0.335540         9.1305 
 166   0.0000       0.342139         9.3101 
 167   0.0000       0.345324         9.3967 
 168   0.0000       0.347032         9.4432 
 169   0.0000       0.351352         9.5608 
 170   0.0000       0.353163         9.6101 
 171   0.0000       0.357437         9.7263 
 172   0.0000       0.362240         9.8571 
 173   0.0000       0.364559         9.9201 
 174   0.0000       0.369361        10.0508 
 175   0.0000       0.373236        10.1563 
 176   0.0000       0.378430        10.2976 
 177   0.0000       0.379089        10.3155 
 178   0.0000       0.383119        10.4252 
 179   0.0000       0.385492        10.4898 
 180   0.0000       0.387864        10.5543 
 181   0.0000       0.397361        10.8127 
 182   0.0000       0.400980        10.9112 
 183   0.0000       0.402183        10.9439 
 184   0.0000       0.404866        11.0170 
 185   0.0000       0.408126        11.1057 
 186   0.0000       0.411164        11.1883 
 187   0.0000       0.412757        11.2317 
 188   0.0000       0.417694        11.3660 
 189   0.0000       0.419063        11.4033 
 190   0.0000       0.426170        11.5967 
 191   0.0000       0.430998        11.7281 
 192   0.0000       0.434450        11.8220 
 193   0.0000       0.439996        11.9729 
 194   0.0000       0.442794        12.0490 
 195   0.0000       0.445920        12.1341 
 196   0.0000       0.452685        12.3182 
 197   0.0000       0.456514        12.4224 
 198   0.0000       0.458494        12.4763 
 199   0.0000       0.469767        12.7830 
 200   0.0000       0.470750        12.8098 
 201   0.0000       0.473780        12.8922 
 202   0.0000       0.478989        13.0340 
 203   0.0000       0.483377        13.1534 
 204   0.0000       0.486880        13.2487 
 205   0.0000       0.491575        13.3764 
 206   0.0000       0.495164        13.4741 
 207   0.0000       0.501284        13.6406 
 208   0.0000       0.502354        13.6698 
 209   0.0000       0.503666        13.7054 
 210   0.0000       0.512678        13.9507 
 211   0.0000       0.514151        13.9908 
 212   0.0000       0.520156        14.1542 
 213   0.0000       0.521580        14.1929 
 214   0.0000       0.526936        14.3387 
 215   0.0000       0.531860        14.4727 
 216   0.0000       0.538695        14.6586 
 217   0.0000       0.546343        14.8668 
 218   0.0000       0.548467        14.9245 
 219   0.0000       0.551425        15.0050 
 220   0.0000       0.557269        15.1641 
 221   0.0000       0.559715        15.2306 
 222   0.0000       0.564251        15.3540 
 223   0.0000       0.570891        15.5347 
 224   0.0000       0.575023        15.6472 
 225   0.0000       0.580683        15.8012 
 226   0.0000       0.585588        15.9347 
 227   0.0000       0.588663        16.0183 
 228   0.0000       0.597290        16.2531 
 229   0.0000       0.598119        16.2756 
 230   0.0000       0.602305        16.3895 
 231   0.0000       0.604542        16.4504 
 232   0.0000       0.614154        16.7120 
 233   0.0000       0.614287        16.7156 
 234   0.0000       0.616525        16.7765 
 235   0.0000       0.619514        16.8578 
 236   0.0000       0.623880        16.9766 
 237   0.0000       0.625127        17.0106 
 238   0.0000       0.630965        17.1694 
 239   0.0000       0.636501        17.3201 
 240   0.0000       0.638553        17.3759 
 241   0.0000       0.641545        17.4573 
 242   0.0000       0.643871        17.5206 
 243   0.0000       0.646997        17.6057 
 244   0.0000       0.654263        17.8034 
 245   0.0000       0.657530        17.8923 
 246   0.0000       0.662341        18.0232 
 247   0.0000       0.665063        18.0973 
 248   0.0000       0.671079        18.2610 
 249   0.0000       0.674752        18.3609 
 250   0.0000       0.677950        18.4480 
 251   0.0000       0.682594        18.5743 
 252   0.0000       0.688634        18.7387 
 253   0.0000       0.692135        18.8340 
 254   0.0000       0.699549        19.0357 
 255   0.0000       0.701746        19.0955 
 256   0.0000       0.705581        19.1998 
 257   0.0000       0.710080        19.3223 
 258   0.0000       0.713974        19.4282 
 259   0.0000       0.718286        19.5456 
 260   0.0000       0.719896        19.5894 
 261   0.0000       0.722536        19.6612 
 262   0.0000       0.724455        19.7134 
 263   0.0000       0.730439        19.8763 
 264   0.0000       0.735128        20.0038 
 265   0.0000       0.740234        20.1428 
 266   0.0000       0.743558        20.2332 
 267   0.0000       0.751166        20.4403 
 268   0.0000       0.754336        20.5265 
 269   0.0000       0.755375        20.5548 
 270   0.0000       0.757052        20.6004 
 271   0.0000       0.759407        20.6645 
 272   0.0000       0.763924        20.7874 
 273   0.0000       0.766281        20.8516 
 274   0.0000       0.778003        21.1705 
 275   0.0000       0.779591        21.2138 
 276   0.0000       0.782447        21.2915 
 277   0.0000       0.790562        21.5123 
 278   0.0000       0.791812        21.5463 
 279   0.0000       0.793875        21.6024 
 280   0.0000       0.800088        21.7715 
 281   0.0000       0.803172        21.8554 
 282   0.0000       0.808639        22.0042 
 283   0.0000       0.814493        22.1635 
 284   0.0000       0.816988        22.2314 
 285   0.0000       0.824667        22.4403 
 286   0.0000       0.827447        22.5160 
 287   0.0000       0.836540        22.7634 
 288   0.0000       0.841793        22.9063 
 289   0.0000       0.842180        22.9169 
 290   0.0000       0.844431        22.9781 
 291   0.0000       0.853033        23.2122 
 292   0.0000       0.860725        23.4215 
 293   0.0000       0.864014        23.5110 
 294   0.0000       0.869033        23.6476 
 295   0.0000       0.870030        23.6747 
 296   0.0000       0.876820        23.8595 
 297   0.0000       0.882231        24.0067 
 298   0.0000       0.886869        24.1329 
 299   0.0000       0.893862        24.3232 
 300   0.0000       0.894317        24.3356 
 301   0.0000       0.909839        24.7580 
 302   0.0000       0.911097        24.7922 
 303   0.0000       0.919938        25.0328 
 304   0.0000       0.925760        25.1912 
 305   0.0000       0.928919        25.2772 
 306   0.0000       0.933383        25.3987 
 307   0.0000       0.936310        25.4783 
 308   0.0000       0.943968        25.6867 
 309   0.0000       0.948009        25.7966 
 310   0.0000       0.952391        25.9159 
 311   0.0000       0.957582        26.0571 
 312   0.0000       0.965254        26.2659 
 313   0.0000       0.966111        26.2892 
 314   0.0000       0.983509        26.7626 
 315   0.0000       0.984735        26.7960 
 316   0.0000       0.991114        26.9696 
 317   0.0000       1.004607        27.3367 
 318   0.0000       1.009403        27.4673 
 319   0.0000       1.016891        27.6710 
 320   0.0000       1.023456        27.8496 
 321   0.0000       1.031215        28.0608 
 322   0.0000       1.034447        28.1487 
 323   0.0000       1.043659        28.3994 
 324   0.0000       1.048301        28.5257 
 325   0.0000       1.055034        28.7089 
 326   0.0000       1.057651        28.7801 
 327   0.0000       1.063955        28.9517 
 328   0.0000       1.077422        29.3181 
 329   0.0000       1.088356        29.6157 
 330   0.0000       1.090128        29.6639 
 331   0.0000       1.102996        30.0140 
 332   0.0000       1.109295        30.1855 
 333   0.0000       1.110715        30.2241 
 334   0.0000       1.117016        30.3955 
 335   0.0000       1.123613        30.5751 
 336   0.0000       1.131032        30.7769 
 337   0.0000       1.135610        30.9015 
 338   0.0000       1.144746        31.1501 
 339   0.0000       1.148175        31.2434 
 340   0.0000       1.161408        31.6035 
 341   0.0000       1.162405        31.6307 
 342   0.0000       1.167674        31.7740 
 343   0.0000       1.184986        32.2451 
 344   0.0000       1.188005        32.3273 
 345   0.0000       1.200785        32.6750 
 346   0.0000       1.210536        32.9404 
 347   0.0000       1.216297        33.0971 
 348   0.0000       1.220952        33.2238 
 349   0.0000       1.232223        33.5305 
 350   0.0000       1.244845        33.8740 
 351   0.0000       1.257830        34.2273 
 352   0.0000       1.259942        34.2848 
 353   0.0000       1.261485        34.3268 
 354   0.0000       1.275104        34.6974 
 355   0.0000       1.283510        34.9261 
 356   0.0000       1.288686        35.0669 
 357   0.0000       1.298145        35.3243 
 358   0.0000       1.302439        35.4412 
 359   0.0000       1.307012        35.5656 
 360   0.0000       1.312254        35.7083 
 361   0.0000       1.318348        35.8741 
 362   0.0000       1.332680        36.2641 
 363   0.0000       1.342094        36.5202 
 364   0.0000       1.350004        36.7355 
 365   0.0000       1.362934        37.0873 
 366   0.0000       1.366194        37.1760 
 367   0.0000       1.372779        37.3552 
 368   0.0000       1.374366        37.3984 
 369   0.0000       1.380862        37.5752 
 370   0.0000       1.384283        37.6682 
 371   0.0000       1.389107        37.7995 
 372   0.0000       1.393191        37.9107 
 373   0.0000       1.403899        38.2020 
 374   0.0000       1.413760        38.4704 
 375   0.0000       1.419817        38.6352 
 376   0.0000       1.429804        38.9070 
 377   0.0000       1.434022        39.0217 
 378   0.0000       1.442707        39.2581 
 379   0.0000       1.447315        39.3834 
 380   0.0000       1.459512        39.7153 
 381   0.0000       1.467221        39.9251 
 382   0.0000       1.472749        40.0755 
 383   0.0000       1.479830        40.2682 
 384   0.0000       1.489434        40.5296 
 385   0.0000       1.497156        40.7397 
 386   0.0000       1.513976        41.1974 
 387   0.0000       1.517747        41.3000 
 388   0.0000       1.533133        41.7187 
 389   0.0000       1.537833        41.8466 
 390   0.0000       1.546426        42.0804 
 391   0.0000       1.553459        42.2718 
 392   0.0000       1.564974        42.5851 
 393   0.0000       1.569757        42.7152 
 394   0.0000       1.583260        43.0827 
 395   0.0000       1.591627        43.3104 
 396   0.0000       1.601917        43.5904 
 397   0.0000       1.615285        43.9542 
 398   0.0000       1.628463        44.3127 
 399   0.0000       1.637978        44.5717 
 400   0.0000       1.640443        44.6387 
 401   0.0000       1.657718        45.1088 
 402   0.0000       1.662929        45.2506 
 403   0.0000       1.676507        45.6201 
 404   0.0000       1.693866        46.0924 
 405   0.0000       1.701416        46.2979 
 406   0.0000       1.707123        46.4532 
 407   0.0000       1.712882        46.6099 
 408   0.0000       1.718603        46.7656 
 409   0.0000       1.736534        47.2535 
 410   0.0000       1.738494        47.3068 
 411   0.0000       1.753235        47.7079 
 412   0.0000       1.770238        48.1706 
 413   0.0000       1.771328        48.2003 
 414   0.0000       1.779308        48.4174 
 415   0.0000       1.792087        48.7652 
 416   0.0000       1.799310        48.9617 
 417   0.0000       1.807069        49.1729 
 418   0.0000       1.811993        49.3068 
 419   0.0000       1.820811        49.5468 
 420   0.0000       1.834710        49.9250 
 421   0.0000       1.846583        50.2481 
 422   0.0000       1.853197        50.4281 
 423   0.0000       1.863076        50.6969 
 424   0.0000       1.870706        50.9045 
 425   0.0000       1.881630        51.2017 
 426   0.0000       1.894513        51.5523 
 427   0.0000       1.898320        51.6559 
 428   0.0000       1.905733        51.8576 
 429   0.0000       1.909479        51.9596 
 430   0.0000       1.917491        52.1776 
 431   0.0000       1.928346        52.4730 
 432   0.0000       1.935386        52.6645 
 433   0.0000       1.945213        52.9319 
 434   0.0000       1.946617        52.9701 
 435   0.0000       1.948100        53.0105 
 436   0.0000       1.957748        53.2730 
 437   0.0000       1.961560        53.3768 
 438   0.0000       1.974975        53.7418 
 439   0.0000       1.977893        53.8212 
 440   0.0000       1.986427        54.0534 
 441   0.0000       1.989956        54.1495 
 442   0.0000       1.996414        54.3252 
 443   0.0000       2.005873        54.5826 
 444   0.0000       2.009286        54.6755 
 445   0.0000       2.026559        55.1455 
 446   0.0000       2.040790        55.5327 
 447   0.0000       2.044344        55.6294 
 448   0.0000       2.063907        56.1618 
 449   0.0000       2.072636        56.3993 
 450   0.0000       2.073016        56.4096 
 451   0.0000       2.089428        56.8562 
 452   0.0000       2.096105        57.0379 
 453   0.0000       2.105279        57.2876 
 454   0.0000       2.120616        57.7049 
 455   0.0000       2.126146        57.8554 
 456   0.0000       2.137324        58.1596 
 457   0.0000       2.155960        58.6667 
 458   0.0000       2.159153        58.7535 
 459   0.0000       2.183352        59.4120 
 460   0.0000       2.185650        59.4746 
 461   0.0000       2.192681        59.6659 
 462   0.0000       2.215449        60.2854 
 463   0.0000       2.224078        60.5202 
 464   0.0000       2.238565        60.9145 
 465   0.0000       2.244893        61.0866 
 466   0.0000       2.255641        61.3791 
 467   0.0000       2.264897        61.6310 
 468   0.0000       2.273117        61.8547 
 469   0.0000       2.289253        62.2937 
 470   0.0000       2.300695        62.6051 
 471   0.0000       2.306442        62.7615 
 472   0.0000       2.324492        63.2526 
 473   0.0000       2.336177        63.5706 
 474   0.0000       2.339981        63.6741 
 475   0.0000       2.352306        64.0095 
 476   0.0000       2.358893        64.1887 
 477   0.0000       2.368016        64.4370 
 478   0.0000       2.377208        64.6871 
 479   0.0000       2.386738        64.9465 
 480   0.0000       2.389448        65.0202 
 481   0.0000       2.408301        65.5332 
 482   0.0000       2.420177        65.8564 
 483   0.0000       2.437307        66.3225 
 484   0.0000       2.448074        66.6155 
 485   0.0000       2.472360        67.2763 
 486   0.0000       2.497477        67.9598 
 487   0.0000       2.507298        68.2271 
 488   0.0000       2.520355        68.5823 
 489   0.0000       2.524146        68.6855 
 490   0.0000       2.527797        68.7849 
 491   0.0000       2.538005        69.0626 
 492   0.0000       2.559356        69.6436 
 493   0.0000       2.571383        69.9709 
 494   0.0000       2.578483        70.1641 
 495   0.0000       2.594768        70.6072 
 496   0.0000       2.600468        70.7623 
 497   0.0000       2.631165        71.5976 
 498   0.0000       2.632011        71.6207 
 499   0.0000       2.664131        72.4947 
 500   0.0000       2.677769        72.8658 
 501   0.0000       2.685406        73.0736 
 502   0.0000       2.693065        73.2820 
 503   0.0000       2.708271        73.6958 
 504   0.0000       2.735269        74.4304 
 505   0.0000       2.738620        74.5216 
 506   0.0000       2.750095        74.8339 
 507   0.0000       2.761842        75.1535 
 508   0.0000       2.789874        75.9163 
 509   0.0000       2.792669        75.9924 
 510   0.0000       2.800199        76.1973 
 511   0.0000       2.817723        76.6741 
 512   0.0000       2.824381        76.8553 
 513   0.0000       2.828217        76.9597 
 514   0.0000       2.836474        77.1844 
 515   0.0000       2.844565        77.4045 
 516   0.0000       2.872472        78.1639 
 517   0.0000       2.880037        78.3698 
 518   0.0000       2.892610        78.7119 
 519   0.0000       2.901691        78.9590 
 520   0.0000       2.912790        79.2610 
 521   0.0000       2.930009        79.7296 
 522   0.0000       2.933270        79.8183 
 523   0.0000       2.943581        80.0989 
 524   0.0000       2.952371        80.3381 
 525   0.0000       2.964617        80.6713 
 526   0.0000       2.969545        80.8054 
 527   0.0000       2.980327        81.0988 
 528   0.0000       2.991723        81.4089 
 529   0.0000       2.993610        81.4603 
 530   0.0000       3.005112        81.7733 
 531   0.0000       3.013878        82.0118 
 532   0.0000       3.032355        82.5146 
 533   0.0000       3.042330        82.7860 
 534   0.0000       3.050224        83.0008 
 535   0.0000       3.065138        83.4066 
 536   0.0000       3.068660        83.5025 
 537   0.0000       3.082213        83.8713 
 538   0.0000       3.093900        84.1893 
 539   0.0000       3.102255        84.4166 
 540   0.0000       3.109468        84.6129 
 541   0.0000       3.120899        84.9240 
 542   0.0000       3.131199        85.2043 
 543   0.0000       3.135802        85.3295 
 544   0.0000       3.152894        85.7946 
 545   0.0000       3.173232        86.3480 
 546   0.0000       3.184783        86.6624 
 547   0.0000       3.190203        86.8098 
 548   0.0000       3.194300        86.9213 
 549   0.0000       3.200134        87.0801 
 550   0.0000       3.208118        87.2973 
 551   0.0000       3.214779        87.4786 
 552   0.0000       3.222004        87.6752 
 553   0.0000       3.234210        88.0073 
 554   0.0000       3.235157        88.0331 
 555   0.0000       3.245176        88.3057 
 556   0.0000       3.247143        88.3593 
 557   0.0000       3.262417        88.7749 
 558   0.0000       3.271312        89.0169 
 559   0.0000       3.275911        89.1421 
 560   0.0000       3.279735        89.2461 
 561   0.0000       3.289349        89.5077 
 562   0.0000       3.294864        89.6578 
 563   0.0000       3.314963        90.2047 
 564   0.0000       3.317555        90.2753 
 565   0.0000       3.336035        90.7781 
 566   0.0000       3.344602        91.0112 
 567   0.0000       3.353589        91.2558 
 568   0.0000       3.365321        91.5750 
 569   0.0000       3.367347        91.6302 
 570   0.0000       3.382866        92.0525 
 571   0.0000       3.386578        92.1535 
 572   0.0000       3.393523        92.3425 
 573   0.0000       3.399146        92.4955 
 574   0.0000       3.406273        92.6894 
 575   0.0000       3.412865        92.8688 
 576   0.0000       3.428938        93.3061 
 577   0.0000       3.447257        93.8046 
 578   0.0000       3.450565        93.8947 
 579   0.0000       3.470118        94.4267 
 580   0.0000       3.473951        94.5310 
 581   0.0000       3.480943        94.7213 
 582   0.0000       3.489379        94.9508 
 583   0.0000       3.498387        95.1959 
 584   0.0000       3.506916        95.4280 
 585   0.0000       3.509297        95.4928 
 586   0.0000       3.518221        95.7356 
 587   0.0000       3.529232        96.0353 
 588   0.0000       3.532883        96.1346 
 589   0.0000       3.536865        96.2430 
 590   0.0000       3.544974        96.4636 
 591   0.0000       3.555969        96.7628 
 592   0.0000       3.564289        96.9892 
 593   0.0000       3.580695        97.4357 
 594   0.0000       3.581633        97.4612 
 595   0.0000       3.589134        97.6653 
 596   0.0000       3.598444        97.9186 
 597   0.0000       3.602296        98.0235 
 598   0.0000       3.615054        98.3706 
 599   0.0000       3.635776        98.9345 
 600   0.0000       3.640861        99.0729 
 601   0.0000       3.641634        99.0939 
 602   0.0000       3.651904        99.3734 
 603   0.0000       3.658908        99.5639 
 604   0.0000       3.670637        99.8831 
 605   0.0000       3.678953       100.1094 
 606   0.0000       3.687863       100.3518 
 607   0.0000       3.691018       100.4377 
 608   0.0000       3.695542       100.5608 
 609   0.0000       3.700395       100.6929 
 610   0.0000       3.710498       100.9678 
 611   0.0000       3.714933       101.0885 
 612   0.0000       3.729799       101.4930 
 613   0.0000       3.737577       101.7047 
 614   0.0000       3.744981       101.9061 
 615   0.0000       3.749445       102.0276 
 616   0.0000       3.771736       102.6342 
 617   0.0000       3.778083       102.8069 
 618   0.0000       3.798199       103.3543 
 619   0.0000       3.818054       103.8945 
 620   0.0000       3.832350       104.2835 
 621   0.0000       3.834319       104.3371 
 622   0.0000       3.860797       105.0576 
 623   0.0000       3.879089       105.5554 
 624   0.0000       3.886432       105.7552 
 625   0.0000       3.898939       106.0955 
 626   0.0000       3.903373       106.2162 
 627   0.0000       3.912824       106.4734 
 628   0.0000       3.931644       106.9855 
 629   0.0000       3.931948       106.9938 
 630   0.0000       3.943855       107.3178 
 631   0.0000       3.955277       107.6286 
 632   0.0000       3.968538       107.9894 
 633   0.0000       4.005704       109.0008 
 634   0.0000       4.016275       109.2884 
 635   0.0000       4.033487       109.7568 
 636   0.0000       4.037684       109.8710 
 637   0.0000       4.044175       110.0476 
 638   0.0000       4.068163       110.7003 
 639   0.0000       4.092472       111.3618 
 640   0.0000       4.112046       111.8945 
 641   0.0000       4.113682       111.9390 
 642   0.0000       4.130338       112.3922 
 643   0.0000       4.158289       113.1528 
 644   0.0000       4.162836       113.2765 
 645   0.0000       4.176059       113.6363 
 646   0.0000       4.189820       114.0108 
 647   0.0000       4.198163       114.2378 
 648   0.0000       4.211258       114.5942 
 649   0.0000       4.217806       114.7723 
 650   0.0000       4.223547       114.9286 
 651   0.0000       4.230986       115.1310 
 652   0.0000       4.244760       115.5058 
 653   0.0000       4.256806       115.8336 
 654   0.0000       4.271162       116.2242 
 655   0.0000       4.283318       116.5550 
 656   0.0000       4.290708       116.7561 
 657   0.0000       4.295090       116.8754 
 658   0.0000       4.319050       117.5273 
 659   0.0000       4.328407       117.7819 
 660   0.0000       4.350443       118.3816 
 661   0.0000       4.357748       118.5804 
 662   0.0000       4.379153       119.1628 
 663   0.0000       4.389635       119.4480 
 664   0.0000       4.410743       120.0224 
 665   0.0000       4.425264       120.4176 
 666   0.0000       4.435816       120.7047 
 667   0.0000       4.452039       121.1461 
 668   0.0000       4.471613       121.6788 
 669   0.0000       4.483044       121.9898 
 670   0.0000       4.485795       122.0647 
 671   0.0000       4.510006       122.7235 
 672   0.0000       4.527924       123.2111 
 673   0.0000       4.540530       123.5541 
 674   0.0000       4.544133       123.6521 
 675   0.0000       4.562438       124.1502 
 676   0.0000       4.568430       124.3133 
 677   0.0000       4.582797       124.7042 
 678   0.0000       4.584374       124.7472 
 679   0.0000       4.611471       125.4845 
 680   0.0000       4.617181       125.6399 
 681   0.0000       4.628497       125.9478 
 682   0.0000       4.655344       126.6784 
 683   0.0000       4.675615       127.2300 
 684   0.0000       4.692280       127.6834 
 685   0.0000       4.704384       128.0128 
 686   0.0000       4.730042       128.7110 
 687   0.0000       4.750964       129.2803 
 688   0.0000       4.758898       129.4962 
 689   0.0000       4.771719       129.8451 
 690   0.0000       4.778588       130.0320 
 691   0.0000       4.801743       130.6621 
 692   0.0000       4.831601       131.4745 
 693   0.0000       4.845889       131.8634 
 694   0.0000       4.876767       132.7036 
 695   0.0000       4.932814       134.2287 
 696   0.0000       4.964606       135.0938 
 697   0.0000       4.977224       135.4371 
 698   0.0000       4.983694       135.6132 
 699   0.0000       5.033544       136.9697 
 700   0.0000       5.040961       137.1715 
 701   0.0000       5.073942       138.0690 
 702   0.0000       5.104102       138.8897 
 703   0.0000       5.111291       139.0853 
 704   0.0000       5.125443       139.4704 
 705   0.0000       5.130355       139.6040 
 706   0.0000       5.146120       140.0330 
 707   0.0000       5.195625       141.3801 
 708   0.0000       5.227227       142.2401 
 709   0.0000       5.232103       142.3728 
 710   0.0000       5.237839       142.5288 
 711   0.0000       5.267598       143.3386 
 712   0.0000       5.279975       143.6754 
 713   0.0000       5.281574       143.7189 
 714   0.0000       5.281901       143.7278 
 715   0.0000       5.288050       143.8952 
 716   0.0000       5.289901       143.9455 
 717   0.0000       5.292735       144.0226 
 718   0.0000       5.294531       144.0715 
 719   0.0000       5.318106       144.7130 
 720   0.0000       5.332595       145.1073 
 721   0.0000       5.351096       145.6107 
 722   0.0000       5.368729       146.0906 
 723   0.0000       5.396290       146.8405 
 724   0.0000       5.407139       147.1357 
 725   0.0000       5.431878       147.8089 
 726   0.0000       5.449274       148.2823 
 727   0.0000       5.456687       148.4840 
 728   0.0000       5.493902       149.4967 
 729   0.0000       5.523702       150.3076 
 730   0.0000       5.569601       151.5566 
 731   0.0000       5.594429       152.2321 
 732   0.0000       5.639225       153.4511 
 733   0.0000       5.681802       154.6097 
 734   0.0000       5.690292       154.8407 
 735   0.0000       5.701777       155.1532 
 736   0.0000       5.704525       155.2280 
 737   0.0000       5.721829       155.6989 
 738   0.0000       5.730837       155.9440 
 739   0.0000       5.742435       156.2596 
 740   0.0000       5.750078       156.4676 
 741   0.0000       5.758207       156.6888 
 742   0.0000       5.761055       156.7663 
 743   0.0000       5.764139       156.8502 
 744   0.0000       5.769909       157.0072 
 745   0.0000       5.786555       157.4602 
 746   0.0000       5.820814       158.3924 
 747   0.0000       5.846588       159.0937 
 748   0.0000       5.863733       159.5603 
 749   0.0000       5.923056       161.1746 
 750   0.0000       6.022005       163.8671 
 751   0.0000       6.058447       164.8587 
 752   0.0000       6.092837       165.7945 
 753   0.0000       6.133228       166.8936 
 754   0.0000       6.226082       169.4203 
 755   0.0000       6.287791       171.0995 
 756   0.0000       6.413946       174.5323 
 757   0.0000       6.462469       175.8527 
 758   0.0000       6.467571       175.9915 
 759   0.0000       6.551496       178.2753 
 760   0.0000       6.571946       178.8317 
 761   0.0000       6.638822       180.6515 
 762   0.0000       6.646984       180.8736 
 763   0.0000       6.649928       180.9537 
 764   0.0000       6.652336       181.0193 
 765   0.0000       6.664926       181.3619 
 766   0.0000       6.667625       181.4353 
 767   0.0000       6.675412       181.6472 
 768   0.0000       6.678707       181.7369 
 769   0.0000       6.684488       181.8942 
 770   0.0000       6.693087       182.1282 
 771   0.0000       6.695204       182.1858 
 772   0.0000       6.730621       183.1495 
 773   0.0000       6.800156       185.0417 
 774   0.0000       6.804302       185.1545 
 775   0.0000       6.831723       185.9006 
 776   0.0000       6.848902       186.3681 
 777   0.0000       6.873742       187.0440 
 778   0.0000       6.901175       187.7905 
 779   0.0000       6.950706       189.1383 
 780   0.0000       6.977578       189.8695 
 781   0.0000       7.033157       191.3819 
 782   0.0000       7.088104       192.8771 
 783   0.0000       7.089484       192.9147 
 784   0.0000       7.093899       193.0348 
 785   0.0000       7.097227       193.1254 
 786   0.0000       7.103911       193.3072 
 787   0.0000       7.114963       193.6080 
 788   0.0000       7.123846       193.8497 
 789   0.0000       7.151076       194.5907 
 790   0.0000       7.173524       195.2015 
 791   0.0000       7.197981       195.8670 
 792   0.0000       7.230284       196.7460 
 793   0.0000       7.280711       198.1182 
 794   0.0000       7.364991       200.4116 
 795   0.0000       7.430034       202.1815 
 796   0.0000       7.439524       202.4397 
 797   0.0000       7.443522       202.5485 
 798   0.0000       7.514414       204.4776 
 799   0.0000       7.568217       205.9417 
 800   0.0000       7.662684       208.5122 
 801   0.0000       7.726773       210.2562 
 802   0.0000       7.798690       212.2131 
 803   0.0000       8.001396       217.7291 
 804   0.0000       8.415852       229.0070 
 805   0.0000      23.508033       639.6861 
 806   0.0000      23.781947       647.1397 
 807   0.0000      23.795969       647.5212 
 808   0.0000      23.840079       648.7215 
 809   0.0000      23.879381       649.7910 
 810   0.0000      24.030897       653.9140 
 811   0.0000      24.057082       654.6265 
 812   0.0000      24.191369       658.2806 
 813   0.0000      24.246526       659.7815 
 814   0.0000      44.885864      1221.4065 
 815   0.0000      44.908989      1222.0357 
 816   0.0000      44.939554      1222.8674 
 817   0.0000      45.036740      1225.5120 
 818   0.0000      45.136598      1228.2293 
 819   0.0000      45.201445      1229.9939 
 820   0.0000      49.373482      1343.5208 
 821   0.0000      49.865856      1356.9189 
 822   0.0000      50.450198      1372.8197 
 823   0.0000      68.222491      1856.4284 
 824   0.0000     511.100050     13907.7394 

                    ********************************
                    * MULLIKEN POPULATION ANALYSIS *
                    ********************************

-----------------------
MULLIKEN ATOMIC CHARGES
-----------------------
   0 Re:    0.373830
   1 C :    0.576480
   2 C :    0.379859
   3 C :    0.188725
   4 Br:   -0.671394
   5 O :   -0.409532
   6 O :   -0.350549
   7 O :   -0.384677
   8 C :   -0.556178
   9 C :   -0.013290
  10 C :    1.286886
  11 C :    0.251255
  12 O :   -0.632994
  13 O :   -0.295632
  14 C :   -0.025740
  15 O :   -0.544896
  16 H :    0.443765
  17 C :   -0.136064
  18 H :    0.089140
  19 H :    0.133138
  20 H :    0.120551
  21 H :   -0.071108
  22 H :    0.099009
  23 H :   -0.076708
  24 H :    0.226126
Sum of atomic charges:   -0.0000000

--------------------------------
MULLIKEN REDUCED ORBITAL CHARGES
--------------------------------
  0 Res       :     2.563587  s :     2.563587
      pz      :     2.071706  p :     6.349429
      px      :     2.037560
      py      :     2.240163
      dz2     :     1.208757  d :     5.549566
      dxz     :     0.928661
      dyz     :     1.127808
      dx2y2   :     1.480952
      dxy     :     0.803387
      f0      :     0.014308  f :     0.157127
      f+1     :     0.025822
      f-1     :     0.017046
      f+2     :     0.010772
      f-2     :     0.041442
      f+3     :     0.025959
      f-3     :     0.021778
      g0      :     0.000561  g :     0.006461
      g+1     :     0.000709
      g-1     :     0.000485
      g+2     :     0.000435
      g-2     :     0.001293
      g+3     :     0.000817
      g-3     :     0.000860
      g+4     :     0.000938
      g-4     :     0.000363
  1 C s       :     3.242179  s :     3.242179
      pz      :     0.665892  p :     2.029788
      px      :     0.669309
      py      :     0.694587
      dz2     :     0.050469  d :     0.131262
      dxz     :     0.015745
      dyz     :     0.002392
      dx2y2   :     0.046135
      dxy     :     0.016521
      f0      :     0.001627  f :     0.020290
      f+1     :     0.002518
      f-1     :     0.003626
      f+2     :     0.003774
      f-2     :     0.003269
      f+3     :     0.002429
      f-3     :     0.003047
  2 C s       :     3.335898  s :     3.335898
      pz      :     0.769164  p :     2.102680
      px      :     0.703041
      py      :     0.630474
      dz2     :     0.043595  d :     0.160578
      dxz     :     0.025683
      dyz     :     0.041227
      dx2y2   :     0.029768
      dxy     :     0.020304
      f0      :     0.005074  f :     0.020985
      f+1     :     0.004010
      f-1     :     0.002986
      f+2     :     0.003811
      f-2     :     0.003467
      f+3     :     0.000863
      f-3     :     0.000773
  3 C s       :     3.447228  s :     3.447228
      pz      :     0.642172  p :     2.170710
      px      :     0.773915
      py      :     0.754624
      dz2     :     0.008533  d :     0.173024
      dxz     :     0.037045
      dyz     :     0.045060
      dx2y2   :     0.083837
      dxy     :    -0.001451
      f0      :     0.002335  f :     0.020313
      f+1     :     0.001745
      f-1     :     0.001704
      f+2     :     0.000543
      f-2     :     0.004115
      f+3     :     0.005022
      f-3     :     0.004849
  4 Brs       :     8.074161  s :     8.074161
      pz      :     5.949198  p :    17.567024
      px      :     5.800689
      py      :     5.817137
      dz2     :     2.003367  d :    10.027695
      dxz     :     2.005071
      dyz     :     2.004833
      dx2y2   :     2.002564
      dxy     :     2.011860
      f0      :     0.000312  f :     0.002514
      f+1     :     0.000208
      f-1     :     0.000228
      f+2     :     0.000111
      f-2     :     0.000484
      f+3     :     0.000630
      f-3     :     0.000541
  5 O s       :     3.961283  s :     3.961283
      pz      :     1.534822  p :     4.398910
      px      :     1.436626
      py      :     1.427463
      dz2     :     0.004146  d :     0.047560
      dxz     :     0.009513
      dyz     :     0.007802
      dx2y2   :     0.017136
      dxy     :     0.008963
      f0      :     0.000212  f :     0.001779
      f+1     :     0.000143
      f-1     :     0.000138
      f+2     :     0.000042
      f-2     :     0.000381
      f+3     :     0.000444
      f-3     :     0.000419
  6 O s       :     3.949723  s :     3.949723
      pz      :     1.445661  p :     4.347026
      px      :     1.464637
      py      :     1.436728
      dz2     :     0.012115  d :     0.051945
      dxz     :     0.008656
      dyz     :     0.009195
      dx2y2   :     0.012389
      dxy     :     0.009590
      f0      :     0.000133  f :     0.001855
      f+1     :     0.000243
      f-1     :     0.000355
      f+2     :     0.000375
      f-2     :     0.000249
      f+3     :     0.000216
      f-3     :     0.000284
  7 O s       :     3.960718  s :     3.960718
      pz      :     1.383811  p :     4.372703
      px      :     1.480639
      py      :     1.508253
      dz2     :     0.015264  d :     0.049435
      dxz     :     0.011765
      dyz     :     0.010933
      dx2y2   :     0.006071
      dxy     :     0.005402
      f0      :     0.000482  f :     0.001820
      f+1     :     0.000308
      f-1     :     0.000258
      f+2     :     0.000341
      f-2     :     0.000300
      f+3     :     0.000072
      f-3     :     0.000059
  8 C s       :     3.611579  s :     3.611579
      pz      :     1.005799  p :     2.860864
      px      :     0.901594
      py      :     0.953472
      dz2     :     0.011243  d :     0.075528
      dxz     :     0.018691
      dyz     :     0.022004
      dx2y2   :     0.003273
      dxy     :     0.020318
      f0      :     0.001798  f :     0.008207
      f+1     :     0.001632
      f-1     :     0.000759
      f+2     :     0.001015
      f-2     :     0.000756
      f+3     :     0.001172
      f-3     :     0.001074
  9 C s       :     3.395226  s :     3.395226
      pz      :     0.901292  p :     2.530429
      px      :     0.689182
      py      :     0.939955
      dz2     :     0.033994  d :     0.081162
      dxz     :    -0.007283
      dyz     :    -0.017884
      dx2y2   :     0.024767
      dxy     :     0.047567
      f0      :     0.001083  f :     0.006473
      f+1     :     0.000944
      f-1     :     0.000216
      f+2     :     0.001156
      f-2     :     0.000444
      f+3     :     0.001433
      f-3     :     0.001198
 10 C s       :     2.254017  s :     2.254017
      pz      :     0.710002  p :     2.326168
      px      :     0.824781
      py      :     0.791385
      dz2     :     0.035974  d :     0.124343
      dxz     :     0.033689
      dyz     :    -0.030290
      dx2y2   :     0.042008
      dxy     :     0.042961
      f0      :     0.001591  f :     0.008587
      f+1     :     0.001568
      f-1     :     0.001071
      f+2     :     0.000942
      f-2     :     0.001186
      f+3     :     0.001246
      f-3     :     0.000982
 11 C s       :     3.437770  s :     3.437770
      pz      :     0.581144  p :     2.031872
      px      :     0.780797
      py      :     0.669931
      dz2     :     0.054344  d :     0.252121
      dxz     :     0.076906
      dyz     :     0.047551
      dx2y2   :     0.035350
      dxy     :     0.037971
      f0      :     0.005052  f :     0.026982
      f+1     :     0.006703
      f-1     :     0.004086
      f+2     :     0.003516
      f-2     :     0.004092
      f+3     :     0.001736
      f-3     :     0.001798
 12 O s       :     3.996311  s :     3.996311
      pz      :     1.318309  p :     4.610090
      px      :     1.684633
      py      :     1.607148
      dz2     :     0.010026  d :     0.024745
      dxz     :     0.000810
      dyz     :     0.010686
      dx2y2   :     0.002439
      dxy     :     0.000783
      f0      :     0.000609  f :     0.001849
      f+1     :     0.000388
      f-1     :     0.000478
      f+2     :     0.000168
      f-2     :     0.000173
      f+3     :     0.000023
      f-3     :     0.000011
 13 O s       :     3.831748  s :     3.831748
      pz      :     1.573145  p :     4.434878
      px      :     1.361696
      py      :     1.500037
      dz2     :     0.002037  d :     0.026795
      dxz     :     0.009326
      dyz     :     0.010620
      dx2y2   :     0.008122
      dxy     :    -0.003310
      f0      :     0.000202  f :     0.002210
      f+1     :     0.000379
      f-1     :     0.000122
      f+2     :     0.000324
[...]
      f+1     :     0.009406
      f-1     :     0.005529
      f+2     :     0.005757
      f-2     :     0.004123
      f+3     :     0.005269
      f-3     :     0.005720
  9 C s       :     2.694661  s :     2.694661
      pz      :     0.799073  p :     2.543308
      px      :     0.968972
      py      :     0.775264
      dz2     :     0.138219  d :     0.697251
      dxz     :     0.212833
      dyz     :     0.075435
      dx2y2   :     0.144565
      dxy     :     0.126200
      f0      :     0.006261  f :     0.034093
      f+1     :     0.006173
      f-1     :     0.001791
      f+2     :     0.005796
      f-2     :     0.002662
      f+3     :     0.006114
      f-3     :     0.005296
 10 C s       :     2.575353  s :     2.575353
      pz      :     0.865203  p :     2.556776
      px      :     0.825743
      py      :     0.865830
      dz2     :     0.193899  d :     0.896626
      dxz     :     0.203515
      dyz     :     0.158085
      dx2y2   :     0.148805
      dxy     :     0.192322
      f0      :     0.008310  f :     0.055778
      f+1     :     0.009636
      f-1     :     0.007145
      f+2     :     0.008962
      f-2     :     0.008005
      f+3     :     0.007731
      f-3     :     0.005989
 11 C s       :     2.605454  s :     2.605454
      pz      :     0.840892  p :     2.281365
      px      :     0.725283
      py      :     0.715190
      dz2     :     0.353638  d :     1.405179
      dxz     :     0.357139
      dyz     :     0.295170
      dx2y2   :     0.193074
      dxy     :     0.206158
      f0      :     0.028992  f :     0.164863
      f+1     :     0.044212
      f-1     :     0.025209
      f+2     :     0.023344
      f-2     :     0.021364
      f+3     :     0.010469
      f-3     :     0.011273
 12 O s       :     3.271899  s :     3.271899
      pz      :     1.443138  p :     4.332873
      px      :     1.450615
      py      :     1.439120
      dz2     :     0.082809  d :     0.292021
      dxz     :     0.067693
      dyz     :     0.073686
      dx2y2   :     0.040059
      dxy     :     0.027775
      f0      :     0.001856  f :     0.006142
      f+1     :     0.001391
      f-1     :     0.001783
      f+2     :     0.000498
      f-2     :     0.000479
      f+3     :     0.000083
      f-3     :     0.000053
 13 O s       :     3.165448  s :     3.165448
      pz      :     1.506461  p :     4.287280
      px      :     1.369685
      py      :     1.411134
      dz2     :     0.087284  d :     0.515395
      dxz     :     0.114077
      dyz     :     0.078513
      dx2y2   :     0.115636
      dxy     :     0.119886
      f0      :     0.000814  f :     0.007013
      f+1     :     0.001503
      f-1     :     0.000582
      f+2     :     0.001230
      f-2     :     0.001202
      f+3     :     0.000627
      f-3     :     0.001054
 14 C s       :     2.613599  s :     2.613599
      pz      :     0.683672  p :     2.342862
      px      :     0.828230
      py      :     0.830960
      dz2     :     0.310255  d :     1.087408
      dxz     :     0.202625
      dyz     :     0.186519
      dx2y2   :     0.198306
      dxy     :     0.189704
      f0      :     0.016082  f :     0.084004
      f+1     :     0.013628
      f-1     :     0.016366
      f+2     :     0.011875
      f-2     :     0.012286
      f+3     :     0.007451
      f-3     :     0.006314
 15 O s       :     3.151629  s :     3.151629
      pz      :     1.405520  p :     4.282280
      px      :     1.441760
      py      :     1.435000
      dz2     :     0.101841  d :     0.433351
      dxz     :     0.085278
      dyz     :     0.100049
      dx2y2   :     0.080155
      dxy     :     0.066027
      f0      :     0.000922  f :     0.005310
      f+1     :     0.000862
      f-1     :     0.000985
      f+2     :     0.000885
      f-2     :     0.000741
      f+3     :     0.000334
      f-3     :     0.000581
 16 H s       :     0.511237  s :     0.511237
      pz      :     0.114555  p :     0.599069
      px      :     0.328926
      py      :     0.155589
      dz2     :     0.010839  d :     0.092453
      dxz     :     0.019282
      dyz     :     0.007478
      dx2y2   :     0.028936
      dxy     :     0.025918
 17 C s       :     2.628861  s :     2.628861
      pz      :     0.915987  p :     2.529181
      px      :     0.827166
      py      :     0.786028
      dz2     :     0.080074  d :     0.581925
      dxz     :     0.161268
      dyz     :     0.081840
      dx2y2   :     0.121988
      dxy     :     0.136754
      f0      :     0.005848  f :     0.061577
      f+1     :     0.007230
      f-1     :     0.008358
      f+2     :     0.005790
      f-2     :     0.010305
      f+3     :     0.013360
      f-3     :     0.010685
 18 H s       :     0.704122  s :     0.704122
      pz      :     0.104379  p :     0.252480
      px      :     0.088095
      py      :     0.060006
      dz2     :     0.007529  d :     0.028926
      dxz     :     0.008656
      dyz     :     0.005101
      dx2y2   :     0.003642
      dxy     :     0.003998
 19 H s       :     0.693776  s :     0.693776
      pz      :     0.118356  p :     0.262360
      px      :     0.083146
      py      :     0.060858
      dz2     :     0.009678  d :     0.028841
      dxz     :     0.008597
      dyz     :     0.005366
      dx2y2   :     0.002023
      dxy     :     0.003177
 20 H s       :     0.684496  s :     0.684496
      pz      :     0.074162  p :     0.281205
      px      :     0.102387
      py      :     0.104657
      dz2     :     0.003164  d :     0.028906
      dxz     :     0.003719
      dyz     :     0.006455
      dx2y2   :     0.007382
      dxy     :     0.008186
 21 H s       :     0.699582  s :     0.699582
      pz      :     0.118156  p :     0.304516
      px      :     0.099749
      py      :     0.086611
      dz2     :     0.008476  d :     0.029577
      dxz     :     0.008807
      dyz     :     0.005193
      dx2y2   :     0.003314
      dxy     :     0.003787
 22 H s       :     0.653050  s :     0.653050
      pz      :     0.065789  p :     0.244123
      px      :     0.073093
      py      :     0.105242
      dz2     :     0.003721  d :     0.029730
      dxz     :     0.002170
      dyz     :     0.007008
      dx2y2   :     0.008570
      dxy     :     0.008261
 23 H s       :     0.704007  s :     0.704007
      pz      :     0.099242  p :     0.250200
      px      :     0.075940
      py      :     0.075018
      dz2     :     0.008576  d :     0.028074
      dxz     :     0.007877
      dyz     :     0.005966
      dx2y2   :     0.002781
      dxy     :     0.002875
 24 H s       :     0.668368  s :     0.668368
      pz      :     0.060051  p :     0.259312
      px      :     0.083198
      py      :     0.116063
      dz2     :     0.003623  d :     0.029785
      dxz     :     0.001246
      dyz     :     0.006441
      dx2y2   :     0.009315
      dxy     :     0.009159


                      *****************************
                      * MAYER POPULATION ANALYSIS *
                      *****************************

  NA   - Mulliken gross atomic population
  ZA   - Total nuclear charge
  QA   - Mulliken gross atomic charge
  VA   - Mayer's total valence
  BVA  - Mayer's bonded valence
  FA   - Mayer's free valence

  ATOM       NA         ZA         QA         VA         BVA        FA
  0 Re    14.6262    15.0000     0.3738     5.6087     5.6087     0.0000
  1 C      5.4235     6.0000     0.5765     3.0900     3.0900    -0.0000
  2 C      5.6201     6.0000     0.3799     3.5138     3.5138     0.0000
  3 C      5.8113     6.0000     0.1887     3.4064     3.4064     0.0000
  4 Br    35.6714    35.0000    -0.6714     0.6457     0.6457     0.0000
  5 O      8.4095     8.0000    -0.4095     2.1591     2.1591    -0.0000
  6 O      8.3505     8.0000    -0.3505     2.2567     2.2567    -0.0000
  7 O      8.3847     8.0000    -0.3847     2.2236     2.2236    -0.0000
  8 C      6.5562     6.0000    -0.5562     3.5401     3.5401    -0.0000
  9 C      6.0133     6.0000    -0.0133     3.6856     3.6856    -0.0000
 10 C      4.7131     6.0000     1.2869     2.8237     2.8237    -0.0000
 11 C      5.7487     6.0000     0.2513     3.2778     3.2778    -0.0000
 12 O      8.6330     8.0000    -0.6330     1.6344     1.6344    -0.0000
 13 O      8.2956     8.0000    -0.2956     1.8116     1.8116    -0.0000
 14 C      6.0257     6.0000    -0.0257     4.2814     4.2814    -0.0000
 15 O      8.5449     8.0000    -0.5449     1.9133     1.9133     0.0000
 16 H      0.5562     1.0000     0.4438     0.7152     0.7152     0.0000
 17 C      6.1361     6.0000    -0.1361     3.7542     3.7542    -0.0000
 18 H      0.9109     1.0000     0.0891     1.0105     1.0105     0.0000
 19 H      0.8669     1.0000     0.1331     1.0145     1.0145    -0.0000
 20 H      0.8794     1.0000     0.1206     1.0518     1.0518    -0.0000
 21 H      1.0711     1.0000    -0.0711     1.0387     1.0387    -0.0000
 22 H      0.9010     1.0000     0.0990     0.8625     0.8625     0.0000
 23 H      1.0767     1.0000    -0.0767     1.0059     1.0059    -0.0000
 24 H      0.7739     1.0000     0.2261     0.8055     0.8055    -0.0000

  Mayer bond orders larger than 0.100000
B(  0-Re,  1-C ) :   1.1716 B(  0-Re,  2-C ) :   1.3935 B(  0-Re,  3-C ) :   1.4550 
B(  0-Re,  4-Br) :   0.2766 B(  0-Re,  9-C ) :   0.3356 B(  0-Re, 14-C ) :   0.3828 
B(  0-Re, 15-O ) :   0.3680 B(  1-C ,  2-C ) :  -0.1583 B(  1-C ,  6-O ) :   2.1357 
B(  2-C ,  4-Br) :   0.1147 B(  2-C ,  7-O ) :   2.0844 B(  2-C ,  9-C ) :   0.1698 
B(  3-C ,  5-O ) :   2.0104 B(  4-Br, 11-C ) :   0.1031 B(  8-C ,  9-C ) :   1.5597 
B(  8-C , 10-C ) :   0.7014 B(  8-C , 14-C ) :   0.1049 B(  8-C , 23-H ) :   1.1879 
B(  9-C , 14-C ) :   0.3514 B(  9-C , 21-H ) :   1.1483 B(  9-C , 23-H ) :  -0.1071 
B( 10-C , 11-C ) :   0.2067 B( 10-C , 14-C ) :   1.0736 B( 10-C , 22-H ) :   0.7918 
B( 11-C , 12-O ) :   1.4515 B( 11-C , 13-O ) :   0.8857 B( 11-C , 14-C ) :   0.4429 
B( 13-O , 17-C ) :   0.7760 B( 14-C , 15-O ) :   0.7250 B( 14-C , 24-H ) :   0.9344 
B( 15-O , 16-H ) :   0.8378 B( 17-C , 18-H ) :   1.0498 B( 17-C , 19-H ) :   0.9735 
B( 17-C , 20-H ) :   0.9813 

-------
TIMINGS
-------

Total SCF time: 0 days 0 hours 1 min 26 sec 

Total time                  ....      86.619 sec
Sum of individual times     ....      85.715 sec  ( 99.0%)

Fock matrix formation       ....      77.747 sec  ( 89.8%)
  XC integration            ....       6.296 sec  (  8.1% of F)
    Basis function eval.    ....       1.155 sec  ( 18.3% of XC)
    Density eval.           ....       2.113 sec  ( 33.6% of XC)
    XC-Functional eval.     ....       0.062 sec  (  1.0% of XC)
    XC-Potential eval.      ....       2.355 sec  ( 37.4% of XC)
Diagonalization             ....       2.797 sec  (  3.2%)
Density matrix formation    ....       0.112 sec  (  0.1%)
Population analysis         ....       0.149 sec  (  0.2%)
Initial guess               ....       2.149 sec  (  2.5%)
Orbital Transformation      ....       0.000 sec  (  0.0%)
Orbital Orthonormalization  ....       0.000 sec  (  0.0%)
DIIS solution               ....       1.603 sec  (  1.9%)
Grid generation             ....       1.158 sec  (  1.3%)


           ************************************************************
           *        Program running with 24 parallel MPI-processes    *
           *              working on a common directory               *
           ************************************************************

------------------------------------------------------------------------------
                                ORCA  MP2 
------------------------------------------------------------------------------

Freezing NCore=48 chemical core electrons

-------------
RI-MP2 ENERGY
-------------
Dimension of the basis                    ...  825
Memory devoted to MP2                     ... 5000 MB   
Data format for buffers                   ... DOUBLE
Compression type for matrix containers    ... UNCOMPRESSED
Overall scaling of the MP2 energy         ...   2.700e-01
Calculating two index integrals           ... done (    0.034 sec)
Cholesky decomposition of V**-1           ... done (    0.389 sec)

-----------------
RI-TRANSFORMATION (AUX index driven)
-----------------

Dimension of the orbital-basis         ... 825
Dimension of the aux-basis             ... 2060
Transformation of internal/external MOs...   24-  79 to   80- 824
Number Format for Storage              ... Double (8 Byte)
Integral mode                          ... Direct

First Phase: integral generation and transformation of MO indices
  Aux angular momentum 0               ... done (    0.173 sec)
  Aux angular momentum 1               ... done (    0.329 sec)
  Aux angular momentum 2               ... done (    0.400 sec)
  Aux angular momentum 3               ... done (    0.455 sec)
  Aux angular momentum 4               ... done (    0.130 sec)
  Aux angular momentum 5               ... done (    0.170 sec)
  Aux angular momentum 6               ... done (    0.223 sec)
Closing buffer VIA ( 0.64 GB; CompressionRatio= 1.00)
  Phase 1 completed in     2.001 sec
Second Phase: sorting and transformation of aux index

IA-Transformation
Memory available                       ... 4915 MB 
Max. # MO pairs treated in a batch     ... 3    
# of internal orbitals                 ... 56
# batches for internal orbitals        ... 1
Closing buffer IAV ( 0.03 GB; CompressionRatio= 1.00)
(ia|v) transformation done in     0.533 sec

  Phase 2 completed in     1.300 sec
RI-Integral transformation completed in     3.333 sec
Opening buffers                              ... done

Starting loop over batches of integrals:

Operator 0  - window                       ... ( 24- 79)x( 80-824)
Operator 0  - Memory available             ...  5000 MB
Operator 0  - Memory needed per MO         ...  11.7 MB
Operator 0  - Number of orbitals per batch ... 3
Operator 0  - Number of batches            ... 1

OPERATOR  0   PASS   0:  MOs    24 ...   26 +   27 ...   29 +   30 ...   32 +   33 ...   35
                            +   36 ...   38 +   39 ...   41 +   42 ...   44 +   45 ...   47
                            +   48 ...   50 +   51 ...   53 +   54 ...   56 +   57 ...   59
                            +   60 ...   62 +   63 ...   65 +   66 ...   68 +   69 ...   71
                            +   72 ...   74 +   75 ...   77 +   78 ...   79
  Reading integrals       ... ok
  Internal MO  26
Time spent in pair loops =     0.360 sec
Deleting buffer (Ka|jb)[aa] ...done

-----------------------------------------------
 RI-MP2 CORRELATION ENERGY:     -1.238363683 Eh
-----------------------------------------------


-------
TIMINGS
-------

Total time                :   11.204 sec
Integral trafo            :    3.346 sec ( 29.9%)
I/O of integrals          :    0.043 sec (  0.4%)
K(i,j) Operators          :    0.237 sec (  2.1%)
T(i,j) pair energies      :    0.043 sec (  0.4%)
V-calculation             :    0.034 sec (  0.3%)
V**(-1/2)                 :    0.389 sec (  3.5%)
Gamma(ia|P)               :    0.000 sec (  0.0%)
Gamma-Trafo               :    0.000 sec (  0.0%)
D(virtual)                :    0.000 sec (  0.0%)
D(internal)               :    0.000 sec (  0.0%)
W(virtual)                :    0.000 sec (  0.0%)
W(internal)               :    0.000 sec (  0.0%)
L(virtual)                :    0.000 sec (  0.0%)
L(internal)               :    0.000 sec (  0.0%)
G(D)                      :    0.000 sec (  0.0%)
G(Z)                      :    0.000 sec (  0.0%)
Z-Vector Solution         :    0.000 sec (  0.0%)
Z-Vector Solution         :    0.000 sec (  0.0%)
3-Index Derivative 
+ Separable RIJ part      :    0.000 sec (  0.0%)
2-Index Derivative 
+ Separable RIJ part      :    0.000 sec (  0.0%)
Separable Gradient (X)    :    0.000 sec (  0.0%)


---------------------------------------
MP2 TOTAL ENERGY:    -3450.927941730 Eh
---------------------------------------


-------------------------------------------------------------------------------
                          DFT DISPERSION CORRECTION                            
                                                                               
                              DFTD3 V3.1  Rev 1                                
                          USING Becke-Johnson damping                          
-------------------------------------------------------------------------------
The B2PLYP functional is recognized
Active option DFTDOPT                   ...         4   

molecular C6(AA) [au] = 11895.157999 


            DFT-D V3
 parameters
 s6 scaling factor         :     0.6400 
 a1 scaling factor         :     0.3065 
 s8 scaling factor         :     0.9147 
 a2 scaling factor         :     5.0570 
 ad hoc parameters k1-k3   :    16.0000     1.3333    -4.0000 

 Edisp/kcal,au: -21.219270398106  -0.033815056205 
 E6   /kcal   : -10.414475264 
 E8   /kcal   : -10.804795134 
 % E8         :  50.919729716 

-------------------------   ----------------
Dispersion correction           -0.033815056
-------------------------   ----------------


-------------------------   --------------------
FINAL SINGLE POINT ENERGY     -3450.961756785961
-------------------------   --------------------


                            ***************************************
                            *     ORCA property calculations      *
                            ***************************************


  WARNING: The energy has been calculated at the MP2 level but the densities
           used in the property calculations are still SCF densities
           MP2 response densities have not been calculated 
           use %mp2 Density relaxed end
           or  %mp2 Density unrelaxed end

                                    ---------------------
                                    Active property flags
                                    ---------------------
   (+) Dipole Moment


------------------------------------------------------------------------------
                       ORCA ELECTRIC PROPERTIES CALCULATION
------------------------------------------------------------------------------

Dipole Moment Calculation                       ... on
Quadrupole Moment Calculation                   ... off
Polarizability Calculation                      ... off
GBWName                                         ... TMB20_T2.gbw
Electron density file                           ... TMB20_T2.scfp
The origin for moment calculation is the CENTER OF MASS  = ( 0.189534, -0.079925 -0.006726)

-------------
DIPOLE MOMENT
-------------
                                X             Y             Z
Electronic contribution:    141.10649      -0.54759      -7.44871
Nuclear contribution   :   -143.25315       2.56406       7.67326
                        -----------------------------------------
Total Dipole Moment    :     -2.14666       2.01648       0.22455
                        -----------------------------------------
Magnitude (a.u.)       :      2.95377
Magnitude (Debye)      :      7.50788



--------------------
Rotational spectrum 
--------------------
 
Rotational constants in cm-1:     0.017495     0.008280     0.007326 
Rotational constants in MHz :   524.496520   248.224980   219.630549 

 Dipole components along the rotational axes: 
x,y,z [a.u.] :    -2.113925     2.041729     0.295653 
x,y,z [Debye]:    -5.373169     5.189663     0.751491 

 

Timings for individual modules:

Sum of individual times         ...      103.056 sec (=   1.718 min)
GTO integral calculation        ...        4.103 sec (=   0.068 min)   4.0 %
SCF iterations                  ...       87.004 sec (=   1.450 min)  84.4 %
MP2 module                      ...       11.949 sec (=   0.199 min)  11.6 %
                             ****ORCA TERMINATED NORMALLY****
TOTAL RUN TIME: 0 days 0 hours 1 minutes 43 seconds 669 msec
