
                                 *****************
                                 * O   R   C   A *
                                 *****************

           --- An Ab Initio, DFT and Semiempirical electronic structure package ---

                  #######################################################
                  #                        -***-                        #
                  #          Department of theory and spectroscopy      #
                  #               Directorship: Frank Neese             #
                  #        Max Planck Institute fuer Kohlenforschung    #
                  #                Kaiser Wilhelm Platz 1               #
                  #                 D-45470 Muelheim/Ruhr               #
                  #                      Germany                        #
                  #                                                     #
                  #                  All rights reserved                #
                  #                        -***-                        #
                  #######################################################


                         Program Version 4.2.0 -  RELEASE  -


 With contributions from (in alphabetic order):
   Daniel Aravena         : Magnetic Suceptibility
   Michael Atanasov       : Ab Initio Ligand Field Theory (pilot matlab implementation)
   Alexander A. Auer      : GIAO ZORA, VPT2
   Ute Becker             : Parallelization
   Giovanni Bistoni       : ED, misc. LED, open-shell LED, HFLED
   Martin Brehm           : Molecular dynamics
   Dmytro Bykov           : SCF Hessian
   Vijay G. Chilkuri      : MRCI spin determinant printing, contributions to CSF-ICE
   Dipayan Datta          : RHF DLPNO-CCSD density
   Achintya Kumar Dutta   : EOM-CC, STEOM-CC
   Dmitry Ganyushin       : Spin-Orbit,Spin-Spin,Magnetic field MRCI
   Miquel Garcia          : C-PCM Hessian, Gaussian charge scheme
   Yang Guo               : DLPNO-NEVPT2, CIM, IAO-localization
   Andreas Hansen         : Spin unrestricted coupled pair/coupled cluster methods
   Benjamin Helmich-Paris : CASSCF linear response (MC-RPA)
   Lee Huntington         : MR-EOM, pCC
   Robert Izsak           : Overlap fitted RIJCOSX, COSX-SCS-MP3, EOM
   Christian Kollmar      : KDIIS, OOCD, Brueckner-CCSD(T), CCSD density
   Simone Kossmann        : Meta GGA functionals, TD-DFT gradient, OOMP2, MP2 Hessian
   Martin Krupicka        : AUTO-CI
   Lucas Lang             : DCDCAS
   Dagmar Lenk            : GEPOL surface, SMD
   Dimitrios Liakos       : Extrapolation schemes; Compound Job, initial MDCI parallelization
   Dimitrios Manganas     : Further ROCIS development; embedding schemes
   Dimitrios Pantazis     : SARC Basis sets
   Taras Petrenko         : DFT Hessian,TD-DFT gradient, ASA, ECA, R-Raman, ABS, FL, XAS/XES, NRVS
   Peter Pinski           : DLPNO-MP2, DLPNO-MP2 Gradient
   Christoph Reimann      : Effective Core Potentials
   Marius Retegan         : Local ZFS, SOC
   Christoph Riplinger    : Optimizer, TS searches, QM/MM, DLPNO-CCSD(T), (RO)-DLPNO pert. Triples
   Tobias Risthaus        : Range-separated hybrids, TD-DFT gradient, RPA, STAB
   Michael Roemelt        : Original ROCIS implementation
   Masaaki Saitow         : Open-shell DLPNO-CCSD energy and density
   Barbara Sandhoefer     : DKH picture change effects
   Avijit Sen             : IP-ROCIS
   Kantharuban Sivalingam : CASSCF convergence, NEVPT2, FIC-MRCI
   Bernardo de Souza      : ESD, SOC TD-DFT
   Georgi Stoychev        : AutoAux, RI-MP2 NMR
   Willem Van den Heuvel  : Paramagnetic NMR
   Boris Wezisla          : Elementary symmetry handling
   Frank Wennmohs         : Technical directorship


 We gratefully acknowledge several colleagues who have allowed us to
 interface, adapt or use parts of their codes:
   Stefan Grimme, W. Hujo, H. Kruse,             : VdW corrections, initial TS optimization,
                  C. Bannwarth                     DFT functionals, gCP, sTDA/sTD-DF
   Ed Valeev, F. Pavosevic, A. Kumar             : LibInt (2-el integral package), F12 methods
   Garnet Chan, S. Sharma, J. Yang, R. Olivares  : DMRG
   Ulf Ekstrom                                   : XCFun DFT Library
   Mihaly Kallay                                 : mrcc  (arbitrary order and MRCC methods)
   Andreas Klamt, Michael Diedenhofen            : otool_cosmo (COSMO solvation model)
   Jiri Pittner, Ondrej Demel                    : Mk-CCSD
   Frank Weinhold                                : gennbo (NPA and NBO analysis)
   Christopher J. Cramer and Donald G. Truhlar   : smd solvation model
   Lars Goerigk                                  : TD-DFT with DH, B97 family of functionals
   V. Asgeirsson, H. Jonsson                     : NEB implementation
   FAccTs GmbH                                   : IRC, NEB, NEB-TS, Multilevel, MM, QM/MM, CI optimization
   S Lehtola, MJT Oliveira, MAL Marques          : LibXC Library


 Your calculation uses the libint2 library for the computation of 2-el integrals
 For citations please refer to: http://libint.valeyev.net

 Your ORCA version has been built with support for libXC version: 4.2.3
 For citations please refer to: https://tddft.org/programs/libxc/

 This ORCA versions uses:
   CBLAS   interface :  Fast vector & matrix operations
   LAPACKE interface :  Fast linear algebra routines
   SCALAPACK package :  Parallel linear algebra routines


Your calculation utilizes the atom-pairwise dispersion correction
with the Becke-Johnson damping scheme (D3BJ)
Cite in your paper:
S.Grimme, S.Ehrlich, L.Goerigk, J Comput Chem, (2011), 32, 1456–1465 
S.Grimme, J.Antony, S.Ehrlich and H.Krieg, J.Chem.Phys., 132, (2010), 154104 
   

----- Orbital basis set information -----
Your calculation utilizes the basis: def2-TZVPPD
   F. Weigend and R. Ahlrichs, Phys. Chem. Chem. Phys. 7, 3297 (2005).
   D. Rappoport and F. Furche, J. Chem. Phys. 133 134105 (2010).

----- AuxC basis set information -----
Your calculation utilizes the auxiliary basis: def2-TZVPPD/C
   A. Hellweg, C. Hattig, S. Hofener and W. Klopper, Theor. Chem. Acc. 117, 587 (2007).

----- AuxJK basis set information -----
Your calculation utilizes the auxiliary basis: def2/JK
   H-Ba, Hf-Rn: F. Weigend, J. Comput. Chem. 29, 167 (2008).

cite the ECPs for Re [Def2-ECP] as follows:
Ce-Yb(ecp-28): M. Dolg, H. Stoll, H.Preuss, J. Chem. Phys., 1989, 90, 1730-1734.
Y-Cd(ecp-28), Hf-Hg(ecp-46): D. Andrae,U. Haeussermann, M. Dolg, H. Stoll, H. Preuss, Theor. Chim. Acta, 1990, 77, 123-141.
In-Sb(ecp-28), Tl-Bi(ecp-46): B. Metz, H. Stoll, M. Dolg, J. Chem. Phys., 2000, 113, 2563-2569.
Te-Xe(ecp-28), Po-Rn(ecp-46): K. A. Peterson, D. Figgen, E. Goll, H. Stoll, M. Dolg, J. Chem. Phys., 2003, 119, 11113-11123.
Rb(ecp-28), Cs(ecp-46): T. Leininger, A. Nicklass, W. Kuechle, H. Stoll, M. Dolg, A. Bergner, Chem. Phys. Lett., 1996, 255, 274-280.
Sr(ecp-28), Ba(ecp-46): M. Kaupp, P. V. Schleyer, H. Stoll and H. Preuss, J. Chem. Phys., 1991, 94, 1360-1366.
La(ecp-46): M. Dolg, H. Stoll, A. Savin, H. Preuss, Theor. Chim. Acta, 1989, 75, 173-194.
Lu(ecp-28): X. Cao, M. Dolg, J. Chem. Phys., 2001, 115, 7348-7355.

ECP parameters for Re [Def2-ECP] have been obtained from:
TURBOMOLE (7.0.2)

================================================================================
                                        WARNINGS
                       Please study these warnings very carefully!
================================================================================


WARNING: No MP2 level density has been requested!
         To caclulate MP2 level properties use
         %mp2 Density relaxed end
         or
         %mp2 Density unrelaxed end
         Otherwise for double-hybrid DFT only the energy is correct!

WARNING: The frozen-core approximation is turned on by default for 
         the MP2 part of double-hybrid DFT.

INFO   : the flag for use of LIBINT has been found!

================================================================================
                                       INPUT FILE
================================================================================
NAME = TMB20_C1.in
|  1> #
|  2> # TMB20_C1 ri-B2PLYP-D3BJ/Def2-TZVPPD
|  3> #
|  4> ! rijk ri-b2plyp d3bj def2-tzvppd def2/jk def2-tzvppd/c grid4 nofinalgrid
|  5> 
|  6> *xyz 0 1
|  7> Re      -1.072665    0.212376   -0.034636 
|  8> C       -1.072260   -0.271683    1.857255 
|  9> C       -2.882577   -0.347239   -0.151918 
| 10> C       -1.671800    1.974535    0.387813 
| 11> Br      -0.106106   -2.222959   -0.227559 
| 12> O       -2.042355    3.032773    0.649150 
| 13> O       -1.092539   -0.543239    2.965184 
| 14> O       -3.977345   -0.680746   -0.233754 
| 15> C       -1.097144    1.301488   -2.052782 
| 16> C       -0.757943    0.130940   -2.251371 
| 17> C        3.116548    1.792974   -0.035452 
| 18> C        3.822495    0.593532    0.034050 
| 19> O        3.256440   -0.568022    0.077602 
| 20> O        5.128051    0.619793    0.055969 
| 21> C        1.730040    1.757413   -0.054388 
| 22> O        1.074850    0.675289   -0.001074 
| 23> H        2.259004   -0.423965    0.051981 
| 24> C        5.826586   -0.629933    0.127198 
| 25> H        6.879482   -0.365214    0.136783 
| 26> H        5.557636   -1.164457    1.037079 
| 27> H        5.594141   -1.245208   -0.740821 
| 28> H       -0.446457   -0.764543   -2.749196 
| 29> H        3.656243    2.725032   -0.072675 
| 30> H       -1.374127    2.315189   -2.254725 
| 31> H        1.177176    2.699572   -0.113184 
| 32> *
| 33> 
| 34> %maxcore 5000
| 35> 
| 36> %pal
| 37> nprocs = 24
| 38> end
| 39> 
| 40> 
| 41>                          ****END OF INPUT****
================================================================================

                       ****************************
                       * Single Point Calculation *
                       ****************************

---------------------------------
CARTESIAN COORDINATES (ANGSTROEM)
---------------------------------
  Re    -1.072665    0.212376   -0.034636
  C     -1.072260   -0.271683    1.857255
  C     -2.882577   -0.347239   -0.151918
  C     -1.671800    1.974535    0.387813
  Br    -0.106106   -2.222959   -0.227559
  O     -2.042355    3.032773    0.649150
  O     -1.092539   -0.543239    2.965184
  O     -3.977345   -0.680746   -0.233754
  C     -1.097144    1.301488   -2.052782
  C     -0.757943    0.130940   -2.251371
  C      3.116548    1.792974   -0.035452
  C      3.822495    0.593532    0.034050
  O      3.256440   -0.568022    0.077602
  O      5.128051    0.619793    0.055969
  C      1.730040    1.757413   -0.054388
  O      1.074850    0.675289   -0.001074
  H      2.259004   -0.423965    0.051981
  C      5.826586   -0.629933    0.127198
  H      6.879482   -0.365214    0.136783
  H      5.557636   -1.164457    1.037079
  H      5.594141   -1.245208   -0.740821
  H     -0.446457   -0.764543   -2.749196
  H      3.656243    2.725032   -0.072675
  H     -1.374127    2.315189   -2.254725
  H      1.177176    2.699572   -0.113184

----------------------------
CARTESIAN COORDINATES (A.U.)
----------------------------
  NO LB      ZA    FRAG     MASS         X           Y           Z
   0 Re   15.0000*   0   186.207   -2.027043    0.401332   -0.065453
   1 C     6.0000    0    12.011   -2.026278   -0.513406    3.509703
   2 C     6.0000    0    12.011   -5.447281   -0.656187   -0.287083
   3 C     6.0000    0    12.011   -3.159244    3.731330    0.732860
   4 Br   35.0000    0    79.900   -0.200511   -4.200784   -0.430024
   5 O     8.0000    0    15.999   -3.859492    5.731110    1.226716
   6 O     8.0000    0    15.999   -2.064600   -1.026573    5.603386
   7 O     8.0000    0    15.999   -7.516093   -1.286424   -0.441731
   8 C     6.0000    0    12.011   -2.073302    2.459456   -3.879196
   9 C     6.0000    0    12.011   -1.432305    0.247441   -4.254475
  10 C     6.0000    0    12.011    5.889422    3.388230   -0.066995
  11 C     6.0000    0    12.011    7.223469    1.121613    0.064345
  12 O     8.0000    0    15.999    6.153780   -1.073406    0.146647
  13 O     8.0000    0    15.999    9.690612    1.171239    0.105766
  14 C     6.0000    0    12.011    3.269302    3.321029   -0.102778
  15 O     8.0000    0    15.999    2.031172    1.276111   -0.002030
  16 H     1.0000    0     1.008    4.268899   -0.801178    0.098230
  17 C     6.0000    0    12.011   11.010652   -1.190401    0.240369
  18 H     1.0000    0     1.008   13.000337   -0.690154    0.258482
  19 H     1.0000    0     1.008   10.502410   -2.200505    1.959795
  20 H     1.0000    0     1.008   10.571394   -2.353102   -1.399949
  21 H     1.0000    0     1.008   -0.843681   -1.444777   -5.195228
  22 H     1.0000    0     1.008    6.909298    5.149564   -0.137336
  23 H     1.0000    0     1.008   -2.596724    4.375073   -4.260813
  24 H     1.0000    0     1.008    2.224540    5.101452   -0.213887
* core charge reduced due to ECP

--------------------------------
INTERNAL COORDINATES (ANGSTROEM)
--------------------------------
 Re     0   0   0     0.000000000000     0.00000000     0.00000000
 C      1   0   0     1.952835076341     0.00000000     0.00000000
 C      1   2   0     1.898079414433    89.25385645     0.00000000
 C      1   2   3     1.908567590395    90.83021686    89.21868551
 Br     1   2   3     2.627225180040    80.86819387   265.64057500
 O      4   1   2     1.151293055759   179.39382481   307.85842972
 O      2   1   3     1.140903399950   178.81765866   313.11216394
 O      3   1   2     1.147362638301   179.40290805   170.20873337
 C      1   2   3     2.293398667328   165.98529094   105.03756460
 C      9   1   3     1.234778332182    71.84477628   270.24034489
 C      1   2   3     4.477476550785    95.01894288   177.44011374
 C     11   1   2     1.393503787644    99.79504400    73.63016355
 O     12  11   1     1.292873827813   123.58606329     0.08481975
 O     12  11   1     1.306004039740   119.33757094   180.00091655
 C     11   1   2     1.387093216363    19.21815263   254.12624644
 O     15  11   1     1.266139277517   122.58761344     1.08924936
 H     13  12  11     1.008110821778   107.69507391     0.00000000
 C     14  12  11     1.433471238547   118.06282715   180.02397767
 H     18  14  12     1.085706225460   105.09659074   180.18420390
 H     18  14  12     1.089005713133   110.43157156   299.48102806
 H     18  14  12     1.089059680647   110.42184320    60.89482170
 H     10   9   1     1.070860897647   161.33402129   181.00629092
 H     11   1   2     1.077677298693   140.70271851   253.41969679
 H      9   1   3     1.070088909829   128.22090502    88.10759206
 H     15  11   1     1.093974018610   118.93475415   180.81163060

---------------------------
INTERNAL COORDINATES (A.U.)
---------------------------
 Re     0   0   0     0.000000000000     0.00000000     0.00000000
 C      1   0   0     3.690323478999     0.00000000     0.00000000
 C      1   2   0     3.586850273711    89.25385645     0.00000000
 C      1   2   3     3.606670053925    90.83021686    89.21868551
 Br     1   2   3     4.964736082417    80.86819387   265.64057500
 O      4   1   2     2.175628575269   179.39382481   307.85842972
 O      2   1   3     2.155994971166   178.81765866   313.11216394
 O      3   1   2     2.168201162682   179.40290805   170.20873337
 C      1   2   3     4.333895397150   165.98529094   105.03756460
 C      9   1   3     2.333392883924    71.84477628   270.24034489
 C      1   2   3     8.461204452038    95.01894288   177.44011374
 C     11   1   2     2.633340525228    99.79504400    73.63016355
 O     12  11   1     2.443177460282   123.58606329     0.08481975
 O     12  11   1     2.467989964904   119.33757094   180.00091655
 C     11   1   2     2.621226301147    19.21815263   254.12624644
 O     15  11   1     2.392656481909   122.58761344     1.08924936
 H     13  12  11     1.905053365803   107.69507391     0.00000000
 C     14  12  11     2.708868061707   118.06282715   180.02397767
 H     18  14  12     2.051687428012   105.09659074   180.18420390
 H     18  14  12     2.057922556098   110.43157156   299.48102806
 H     18  14  12     2.058024539919   110.42184320    60.89482170
 H     10   9   1     2.023633824078   161.33402129   181.00629092
 H     11   1   2     2.036514955274   140.70271851   253.41969679
 H      9   1   3     2.022174978523   128.22090502    88.10759206
 H     15  11   1     2.067311292798   118.93475415   180.81163060

---------------------
BASIS SET INFORMATION
---------------------
There are 5 groups of distinct atoms

 Group   1 Type Re  : 8s8p6d2f1g contracted to 6s5p3d2f1g pattern {311111/41111/411/11/1}
 Group   2 Type C   : 12s6p3d1f contracted to 6s3p3d1f pattern {621111/411/111/1}
 Group   3 Type Br  : 18s14p9d1f contracted to 7s6p5d1f pattern {8421111/641111/51111/1}
 Group   4 Type O   : 12s7p3d1f contracted to 6s4p3d1f pattern {621111/4111/111/1}
 Group   5 Type H   : 5s3p1d contracted to 3s3p1d pattern {311/111/1}

Atom   0Re   basis set group =>   1
Atom   1C    basis set group =>   2
Atom   2C    basis set group =>   2
Atom   3C    basis set group =>   2
Atom   4Br   basis set group =>   3
Atom   5O    basis set group =>   4
Atom   6O    basis set group =>   4
Atom   7O    basis set group =>   4
Atom   8C    basis set group =>   2
Atom   9C    basis set group =>   2
Atom  10C    basis set group =>   2
Atom  11C    basis set group =>   2
Atom  12O    basis set group =>   4
Atom  13O    basis set group =>   4
Atom  14C    basis set group =>   2
Atom  15O    basis set group =>   4
Atom  16H    basis set group =>   5
Atom  17C    basis set group =>   2
Atom  18H    basis set group =>   5
Atom  19H    basis set group =>   5
Atom  20H    basis set group =>   5
Atom  21H    basis set group =>   5
Atom  22H    basis set group =>   5
Atom  23H    basis set group =>   5
Atom  24H    basis set group =>   5
---------------------------------
AUXILIARY/C BASIS SET INFORMATION
---------------------------------
There are 5 groups of distinct atoms

 Group   1 Type Re  : 9s9p8d5f4g3h1i contracted to 9s9p8d5f4g3h1i pattern {111111111/111111111/11111111/11111/1111/111/1}
 Group   2 Type C   : 9s7p6d4f1g contracted to 9s7p5d4f1g pattern {111111111/1111111/21111/1111/1}
 Group   3 Type Br  : 11s10p9d7f4g1h contracted to 11s10p9d6f4g1h pattern {11111111111/1111111111/111111111/211111/1111/1}
 Group   4 Type O   : 9s7p6d4f1g contracted to 9s7p5d4f1g pattern {111111111/1111111/21111/1111/1}
 Group   5 Type H   : 5s4p3d1f contracted to 5s4p3d1f pattern {11111/1111/111/1}

Atom   0Re   basis set group =>   1
Atom   1C    basis set group =>   2
Atom   2C    basis set group =>   2
Atom   3C    basis set group =>   2
Atom   4Br   basis set group =>   3
Atom   5O    basis set group =>   4
Atom   6O    basis set group =>   4
Atom   7O    basis set group =>   4
Atom   8C    basis set group =>   2
Atom   9C    basis set group =>   2
Atom  10C    basis set group =>   2
Atom  11C    basis set group =>   2
Atom  12O    basis set group =>   4
Atom  13O    basis set group =>   4
Atom  14C    basis set group =>   2
Atom  15O    basis set group =>   4
Atom  16H    basis set group =>   5
Atom  17C    basis set group =>   2
Atom  18H    basis set group =>   5
Atom  19H    basis set group =>   5
Atom  20H    basis set group =>   5
Atom  21H    basis set group =>   5
Atom  22H    basis set group =>   5
Atom  23H    basis set group =>   5
Atom  24H    basis set group =>   5
----------------------------------
AUXILIARY/JK BASIS SET INFORMATION
----------------------------------
There are 5 groups of distinct atoms

 Group   1 Type Re  : 13s12p11d9f5g3h2i contracted to 11s9p9d7f4g3h2i pattern {31111111111/411111111/311111111/3111111/2111/111/11}
 Group   2 Type C   : 14s10p6d2f1g contracted to 10s8p5d1f1g pattern {5111111111/31111111/21111/2/1}
 Group   3 Type Br  : 20s14p13d10f7g3h contracted to 17s13p12d9f6g3h pattern {41111111111111111/2111111111111/211111111111/211111111/211111/111}
 Group   4 Type O   : 14s10p6d2f1g contracted to 10s8p4d2f1g pattern {5111111111/31111111/3111/11/1}
 Group   5 Type H   : 4s2p2d contracted to 2s2p2d pattern {31/11/11}

Atom   0Re   basis set group =>   1
Atom   1C    basis set group =>   2
Atom   2C    basis set group =>   2
Atom   3C    basis set group =>   2
Atom   4Br   basis set group =>   3
Atom   5O    basis set group =>   4
Atom   6O    basis set group =>   4
Atom   7O    basis set group =>   4
Atom   8C    basis set group =>   2
Atom   9C    basis set group =>   2
Atom  10C    basis set group =>   2
Atom  11C    basis set group =>   2
Atom  12O    basis set group =>   4
Atom  13O    basis set group =>   4
Atom  14C    basis set group =>   2
Atom  15O    basis set group =>   4
Atom  16H    basis set group =>   5
Atom  17C    basis set group =>   2
Atom  18H    basis set group =>   5
Atom  19H    basis set group =>   5
Atom  20H    basis set group =>   5
Atom  21H    basis set group =>   5
Atom  22H    basis set group =>   5
Atom  23H    basis set group =>   5
Atom  24H    basis set group =>   5
-------------------------
ECP PARAMETER INFORMATION
-------------------------

 Group 1, Type Re ECP Def2-ECP (replacing 60 core electrons, lmax=3)

Atom   0Re   ECP group =>   1



           ************************************************************
           *        Program running with 24 parallel MPI-processes    *
           *              working on a common directory               *
           ************************************************************
------------------------------------------------------------------------------
                           ORCA GTO INTEGRAL CALCULATION
                           -- RI-GTO INTEGRALS CHOSEN --
------------------------------------------------------------------------------

                         BASIS SET STATISTICS AND STARTUP INFO

Gaussian basis set:
 # of primitive gaussian shells          ...  475
 # of primitive gaussian functions       ... 1147
 # of contracted shells                  ...  293
 # of contracted basis functions         ...  825
 Highest angular momentum                ...    4
 Maximum contraction depth               ...    8
Auxiliary gaussian basis set:
 # of primitive gaussian shells          ...  681
 # of primitive gaussian functions       ... 2179
 # of contracted shells                  ...  528
 # of contracted aux-basis functions     ... 1774
 Highest angular momentum                ...    6
 Maximum contraction depth               ...    5
Ratio of auxiliary to basis functions    ...  2.15
Integral package used                  ... LIBINT
 One Electron integrals                  
   ECP integrals                         ... done
 Ordering auxiliary basis shells         ... done
 Integral threshhold             Thresh  ...  1.000e-10
 Primitive cut-off               TCut    ...  1.000e-11
 Pre-screening matrix                    ... done
 Shell pair data                         ... 
 Ordering of the shell pairs             ... done (   0.006 sec) 34306 of 43071 pairs
 Determination of significant pairs      ... done (   0.000 sec)
 Creation of shell pair data             ... done (   0.003 sec)
 Storage of shell pair data              ... done (   0.011 sec)
 Shell pair data done in (   0.021 sec)
 Computing two index integrals           ... done
 Cholesky decomposition of the V-matrix  ... done


Timings:
 Total evaluation time                   ...   3.520 sec (  0.059 min)
 One electron matrix time                ...   2.646 sec (  0.044 min) = 75.2%
 Schwartz matrix evaluation time         ...   0.459 sec (  0.008 min) = 13.0%
 Two index repulsion integral time       ...   0.190 sec (  0.003 min) =  5.4%
 Cholesky decomposition of V             ...   0.179 sec (  0.003 min) =  5.1%
 Three index repulsion integral time     ...   0.000 sec (  0.000 min) =  0.0%



           ************************************************************
           *        Program running with 24 parallel MPI-processes    *
           *              working on a common directory               *
           ************************************************************
-------------------------------------------------------------------------------
                                 ORCA SCF
-------------------------------------------------------------------------------

------------
SCF SETTINGS
------------
Hamiltonian:
 Density Functional     Method          .... DFT(GTOs)
 Exchange Functional    Exchange        .... B88
   X-Alpha parameter    XAlpha          ....  0.666667
   Becke's b parameter  XBeta           ....  0.004200
 Correlation Functional Correlation     .... LYP
 LDA part of GGA corr.  LDAOpt          .... VWN-3
 Gradients option       PostSCFGGA      .... off
 Hybrid DFT is turned on
   Fraction HF Exchange ScalHFX         ....  0.530000
   Scaling of DF-GGA-X  ScalDFX         ....  0.470000
   Scaling of DF-GGA-C  ScalDFC         ....  0.730000
   Scaling of DF-LDA-C  ScalLDAC        ....  0.730000
   Perturbative correction              ....  0.270000
   Density functional embedding theory  .... OFF
 RI-approximation to the Coulomb term is turned on
   Number of auxiliary basis functions  .... 1774
   RI-JK (J+K treated both via RI)      .... on


General Settings:
 Integral files         IntName         .... TMB20_C1
 Hartree-Fock type      HFTyp           .... RHF
 Total Charge           Charge          ....    0
 Multiplicity           Mult            ....    1
 Number of Electrons    NEL             ....  160
 Basis Dimension        Dim             ....  825
 Nuclear Repulsion      ENuc            ....   1745.9077640197 Eh

Convergence Acceleration:
 DIIS                   CNVDIIS         .... on
   Start iteration      DIISMaxIt       ....    12
   Startup error        DIISStart       ....  0.200000
   # of expansion vecs  DIISMaxEq       ....     5
   Bias factor          DIISBfac        ....   1.050
   Max. coefficient     DIISMaxC        ....  10.000
 Newton-Raphson         CNVNR           .... off
 SOSCF                  CNVSOSCF        .... off
 Level Shifting         CNVShift        .... on
   Level shift para.    LevelShift      ....    0.2500
   Turn off err/grad.   ShiftErr        ....    0.0010
 Zerner damping         CNVZerner       .... off
 Static damping         CNVDamp         .... on
   Fraction old density DampFac         ....    0.7000
   Max. Damping (<1)    DampMax         ....    0.9800
   Min. Damping (>=0)   DampMin         ....    0.0000
   Turn off err/grad.   DampErr         ....    0.1000
 Fernandez-Rico         CNVRico         .... off

SCF Procedure:
 Maximum # iterations   MaxIter         ....   125
 SCF integral mode      SCFMode         .... Direct
   Integral package                     .... LIBINT
 Reset frequency        DirectResetFreq ....    20
 Integral Threshold     Thresh          ....  1.000e-10 Eh
 Primitive CutOff       TCut            ....  1.000e-11 Eh

Convergence Tolerance:
 Convergence Check Mode ConvCheckMode   .... Total+1el-Energy
 Convergence forced     ConvForced      .... 0
 Energy Change          TolE            ....  1.000e-06 Eh
 1-El. energy change                    ....  1.000e-03 Eh
 DIIS Error             TolErr          ....  1.000e-06


Diagonalization of the overlap matrix:
Smallest eigenvalue                        ... 8.224e-07
Time for diagonalization                   ...    0.115 sec
Threshold for overlap eigenvalues          ... 1.000e-08
Number of eigenvalues below threshold      ... 0
Time for construction of square roots      ...    0.089 sec
Total time needed                          ...    0.206 sec

-------------------
DFT GRID GENERATION
-------------------

General Integration Accuracy     IntAcc      ...  4.670
Radial Grid Type                 RadialGrid  ... Gauss-Chebyshev
Angular Grid (max. acc.)         AngularGrid ... Lebedev-302
Angular grid pruning method      GridPruning ... 3 (G Style)
Weight generation scheme         WeightScheme... Becke
Basis function cutoff            BFCut       ...    1.0000e-10
Integration weight cutoff        WCut        ...    1.0000e-14
Grids for H and He will be reduced by one unit

# of grid points (after initial pruning)     ... 141600 (   0.0 sec)
# of grid points (after weights+screening)   ... 128092 (   0.1 sec)
nearest neighbour list constructed           ...    0.0 sec
Grid point re-assignment to atoms done       ...    0.0 sec
Grid point division into batches done        ...    0.5 sec
Reduced shell lists constructed in    1.0 sec

Total number of grid points                  ...   128092
Total number of batches                      ...     2015
Average number of points per batch           ...       63
Average number of grid points per atom       ...     5124
Average number of shells per batch           ...   181.94 (62.10%)
Average number of basis functions per batch  ...   528.95 (64.12%)
Average number of large shells per batch     ...   140.73 (77.35%)
Average number of large basis fcns per batch ...   410.49 (77.61%)
Average number of aux-shells per batch       ...   181.94 (34.46%)
Average number of aux functions per batch    ...   528.95 (29.82%)
Maximum spatial batch extension              ...   1.87,  1.90,  2.06 au
Average spatial batch extension              ...   0.04,  0.04,  0.04 au

Time for grid setup =    1.120 sec

------------------------------
INITIAL GUESS: MODEL POTENTIAL
------------------------------
Loading Hartree-Fock densities                     ... done
  calling /sw/apps/orca/orca_4_2_0_linux_x86-64_openmpi314/orca TMB20_C1_atom75.inp > TMB20_C1_atom75.out in order to generate an atomic fitting density for atom 0 (Re with ECP) on-the-fly... 
    atom 0 (Re), assumed electronic state with S=6: 1s2 2s2 2p6 3s2 3p6 4s2 3d10 4p6 5s2 4d10 5p6 6s2 4f14 5d5           ... done
Calculating cut-offs                               ... done
Setting up the integral package                    ... done
Initializing the effective Hamiltonian             ... done
Starting the Coulomb interaction                   ... done (   0.1 sec)
Reading the grid                                   ... done
Mapping shells                                     ... done
Starting the XC term evaluation                    ... done (   0.3 sec)
  promolecular density results
     # of electrons  =    219.998219601
     EX              =   -521.799073573
     EC              =     -3.470068800
     EX+EC           =   -525.269142374
Transforming the Hamiltonian                       ... done (   0.1 sec)
Diagonalizing the Hamiltonian                      ... done (   0.1 sec)
Back transforming the eigenvectors                 ... done (   0.0 sec)
Now organizing SCF variables                       ... done
                      ------------------
                      INITIAL GUESS DONE (   3.1 sec)
                      ------------------
--------------
SCF ITERATIONS
--------------
ITER       Energy         Delta-E        Max-DP      RMS-DP      [F,P]     Damp
  0  -3449.1032505320   0.000000000000 0.53989752  0.00257568  0.3509609 0.7000
  1  -3448.9505922759   0.152658256095 0.37679524  0.00201456  0.2667137 0.7000
                               ***Turning on DIIS***
  2  -3449.1045386593  -0.153946383421 0.29752781  0.00165352  0.1909491 0.7000
  3  -3449.3675866574  -0.263047998030 0.27933535  0.00133524  0.1301821 0.7000
  4  -3449.5746569414  -0.207070284067 0.57174918  0.00284389  0.0852236 0.0000
  5  -3449.7187029230  -0.144045981585 0.06840152  0.00031970  0.0354043 0.0000
  6  -3449.7286574205  -0.009954497486 0.01244829  0.00010013  0.0043317 0.0000
  7  -3449.7289527121  -0.000295291617 0.01366271  0.00005227  0.0024739 0.0000
  8  -3449.7290108623  -0.000058150220 0.00879149  0.00004811  0.0017283 0.0000
  9  -3449.7290330138  -0.000022151444 0.00565172  0.00003102  0.0007471 0.0000
 10  -3449.7290387121  -0.000005698267 0.01159525  0.00003324  0.0004296 0.0000
 11  -3449.7290401570  -0.000001444931 0.00585410  0.00003176  0.0001755 0.0000
                 **** Energy Check signals convergence ****

               *****************************************************
               *                     SUCCESS                       *
               *           SCF CONVERGED AFTER  12 CYCLES          *
               *****************************************************


----------------
TOTAL SCF ENERGY
----------------

Total Energy       :        -3449.72904062 Eh          -93871.89955 eV

Components:
Nuclear Repulsion  :         1745.90776402 Eh           47508.56555 eV
Electronic Energy  :        -5195.63680464 Eh         -141380.46510 eV
One Electron Energy:        -8284.39588799 Eh         -225429.87275 eV
Two Electron Energy:         3088.75908335 Eh           84049.40765 eV

Virial components:
Potential Energy   :        -6843.29995594 Eh         -186215.65882 eV
Kinetic Energy     :         3393.57091532 Eh           92343.75927 eV
Virial Ratio       :            2.01654839


DFT components:
N(Alpha)           :       79.999989152071 electrons
N(Beta)            :       79.999989152071 electrons
N(Total)           :      159.999978304142 electrons
E(X)               :      -92.574306737813 Eh       
E(C)               :       -4.432976640258 Eh       
E(XC)              :      -97.007283378072 Eh       
DFET-embed. en.    :        0.000000000000 Eh       

---------------
SCF CONVERGENCE
---------------

  Last Energy change         ...   -4.6485e-07  Tolerance :   1.0000e-06
  Last MAX-Density change    ...    9.2924e-03  Tolerance :   1.0000e-05
  Last RMS-Density change    ...    3.5423e-05  Tolerance :   1.0000e-06
  Last DIIS Error            ...    9.2513e-05  Tolerance :   1.0000e-06

             **** THE GBW FILE WAS UPDATED (TMB20_C1.gbw) ****
             **** DENSITY FILE WAS UPDATED (TMB20_C1.scfp) ****
             **** ENERGY FILE WAS UPDATED (TMB20_C1.en.tmp) ****
             **** THE GBW FILE WAS UPDATED (TMB20_C1.gbw) ****
             **** DENSITY FILE WAS UPDATED (TMB20_C1.scfp) ****
----------------
ORBITAL ENERGIES
----------------

  NO   OCC          E(Eh)            E(eV) 
   0   2.0000    -485.785967    -13218.9082 
   1   2.0000     -63.537235     -1728.9361 
   2   2.0000     -57.160243     -1555.4093 
   3   2.0000     -57.159109     -1555.3784 
   4   2.0000     -57.159005     -1555.3756 
   5   2.0000     -19.826582      -539.5087 
   6   2.0000     -19.811388      -539.0953 
   7   2.0000     -19.805695      -538.9404 
   8   2.0000     -19.796131      -538.6801 
   9   2.0000     -19.785614      -538.3939 
  10   2.0000     -19.766515      -537.8742 
  11   2.0000     -10.815648      -294.3087 
  12   2.0000     -10.744658      -292.3770 
  13   2.0000     -10.743045      -292.3331 
  14   2.0000     -10.742171      -292.3093 
  15   2.0000     -10.728204      -291.9293 
  16   2.0000     -10.707297      -291.3604 
  17   2.0000     -10.662743      -290.1480 
  18   2.0000     -10.653199      -289.8883 
  19   2.0000     -10.640904      -289.5537 
  20   2.0000      -9.097510      -247.5558 
  21   2.0000      -6.833432      -185.9471 
  22   2.0000      -6.829339      -185.8358 
  23   2.0000      -6.829012      -185.8269 
  24   2.0000      -3.412992       -92.8722 
  25   2.0000      -2.793608       -76.0179 
  26   2.0000      -2.792316       -75.9828 
  27   2.0000      -2.792029       -75.9750 
  28   2.0000      -2.788179       -75.8702 
  29   2.0000      -2.788167       -75.8699 
  30   2.0000      -1.908197       -51.9247 
  31   2.0000      -1.906707       -51.8841 
  32   2.0000      -1.903739       -51.8034 
  33   2.0000      -1.331614       -36.2351 
  34   2.0000      -1.287094       -35.0236 
  35   2.0000      -1.277083       -34.7512 
  36   2.0000      -1.266444       -34.4617 
  37   2.0000      -1.251121       -34.0447 
  38   2.0000      -1.220282       -33.2056 
  39   2.0000      -0.948774       -25.8175 
  40   2.0000      -0.917565       -24.9682 
  41   2.0000      -0.872921       -23.7534 
  42   2.0000      -0.800322       -21.7779 
  43   2.0000      -0.763659       -20.7802 
  44   2.0000      -0.755462       -20.5572 
  45   2.0000      -0.687023       -18.6949 
  46   2.0000      -0.676469       -18.4077 
  47   2.0000      -0.666538       -18.1374 
  48   2.0000      -0.660149       -17.9636 
  49   2.0000      -0.654084       -17.7985 
  50   2.0000      -0.631233       -17.1767 
  51   2.0000      -0.620638       -16.8884 
  52   2.0000      -0.612898       -16.6778 
  53   2.0000      -0.597563       -16.2605 
  54   2.0000      -0.575654       -15.6643 
  55   2.0000      -0.564102       -15.3500 
  56   2.0000      -0.546197       -14.8628 
  57   2.0000      -0.545062       -14.8319 
  58   2.0000      -0.543402       -14.7867 
  59   2.0000      -0.538807       -14.6617 
  60   2.0000      -0.536339       -14.5945 
  61   2.0000      -0.532561       -14.4917 
  62   2.0000      -0.528632       -14.3848 
  63   2.0000      -0.521077       -14.1792 
  64   2.0000      -0.512830       -13.9548 
  65   2.0000      -0.510085       -13.8801 
  66   2.0000      -0.501924       -13.6581 
  67   2.0000      -0.498359       -13.5610 
  68   2.0000      -0.476311       -12.9611 
  69   2.0000      -0.445202       -12.1146 
  70   2.0000      -0.411209       -11.1896 
  71   2.0000      -0.405131       -11.0242 
  72   2.0000      -0.387168       -10.5354 
  73   2.0000      -0.339226        -9.2308 
  74   2.0000      -0.328822        -8.9477 
  75   2.0000      -0.324659        -8.8344 
  76   2.0000      -0.319363        -8.6903 
  77   2.0000      -0.274107        -7.4588 
  78   2.0000      -0.273250        -7.4355 
  79   2.0000      -0.263688        -7.1753 
  80   0.0000      -0.029562        -0.8044 
  81   0.0000      -0.005570        -0.1516 
  82   0.0000       0.009677         0.2633 
  83   0.0000       0.019705         0.5362 
  84   0.0000       0.027287         0.7425 
  85   0.0000       0.035479         0.9654 
  86   0.0000       0.037039         1.0079 
  87   0.0000       0.038966         1.0603 
  88   0.0000       0.041094         1.1182 
  89   0.0000       0.049485         1.3466 
  90   0.0000       0.051851         1.4109 
  91   0.0000       0.058574         1.5939 
  92   0.0000       0.059499         1.6191 
  93   0.0000       0.064309         1.7499 
  94   0.0000       0.067909         1.8479 
  95   0.0000       0.070852         1.9280 
  96   0.0000       0.073894         2.0108 
  97   0.0000       0.081469         2.2169 
  98   0.0000       0.082410         2.2425 
  99   0.0000       0.089875         2.4456 
 100   0.0000       0.092963         2.5296 
 101   0.0000       0.094533         2.5724 
 102   0.0000       0.095832         2.6077 
 103   0.0000       0.097686         2.6582 
 104   0.0000       0.099654         2.7117 
 105   0.0000       0.104894         2.8543 
 106   0.0000       0.107171         2.9163 
 107   0.0000       0.112684         3.0663 
 108   0.0000       0.116373         3.1667 
 109   0.0000       0.118762         3.2317 
 110   0.0000       0.121874         3.3164 
 111   0.0000       0.127376         3.4661 
 112   0.0000       0.130507         3.5513 
 113   0.0000       0.135178         3.6784 
 114   0.0000       0.137897         3.7524 
 115   0.0000       0.144882         3.9424 
 116   0.0000       0.148736         4.0473 
 117   0.0000       0.155128         4.2213 
 118   0.0000       0.156435         4.2568 
 119   0.0000       0.159862         4.3501 
 120   0.0000       0.160823         4.3762 
 121   0.0000       0.165281         4.4975 
 122   0.0000       0.169998         4.6259 
 123   0.0000       0.174066         4.7366 
 124   0.0000       0.180919         4.9231 
 125   0.0000       0.185421         5.0456 
 126   0.0000       0.188013         5.1161 
 127   0.0000       0.191117         5.2006 
 128   0.0000       0.192248         5.2313 
 129   0.0000       0.199539         5.4297 
 130   0.0000       0.202873         5.5204 
 131   0.0000       0.205380         5.5887 
 132   0.0000       0.207802         5.6546 
 133   0.0000       0.214037         5.8243 
 134   0.0000       0.220858         6.0099 
 135   0.0000       0.226398         6.1606 
 136   0.0000       0.233158         6.3446 
 137   0.0000       0.234920         6.3925 
 138   0.0000       0.239661         6.5215 
 139   0.0000       0.242880         6.6091 
 140   0.0000       0.244629         6.6567 
 141   0.0000       0.250040         6.8039 
 142   0.0000       0.253217         6.8904 
 143   0.0000       0.256710         6.9854 
 144   0.0000       0.259186         7.0528 
 145   0.0000       0.262541         7.1441 
 146   0.0000       0.264187         7.1889 
 147   0.0000       0.270487         7.3603 
 148   0.0000       0.273574         7.4443 
 149   0.0000       0.276100         7.5131 
 150   0.0000       0.281530         7.6608 
 151   0.0000       0.284252         7.7349 
 152   0.0000       0.289262         7.8712 
 153   0.0000       0.292608         7.9623 
 154   0.0000       0.294445         8.0122 
 155   0.0000       0.297230         8.0880 
 156   0.0000       0.297764         8.1026 
 157   0.0000       0.301672         8.2089 
 158   0.0000       0.305160         8.3038 
 159   0.0000       0.305927         8.3247 
 160   0.0000       0.308865         8.4046 
 161   0.0000       0.310655         8.4534 
 162   0.0000       0.316379         8.6091 
 163   0.0000       0.319545         8.6952 
 164   0.0000       0.322758         8.7827 
 165   0.0000       0.324123         8.8198 
 166   0.0000       0.325916         8.8686 
 167   0.0000       0.328270         8.9327 
 168   0.0000       0.337534         9.1848 
 169   0.0000       0.338739         9.2175 
 170   0.0000       0.343240         9.3400 
 171   0.0000       0.346341         9.4244 
 172   0.0000       0.352102         9.5812 
 173   0.0000       0.357356         9.7241 
 174   0.0000       0.360938         9.8216 
 175   0.0000       0.364636         9.9223 
 176   0.0000       0.368518        10.0279 
 177   0.0000       0.371926        10.1206 
 178   0.0000       0.373659        10.1678 
 179   0.0000       0.380011        10.3406 
 180   0.0000       0.380867        10.3639 
 181   0.0000       0.382052        10.3962 
 182   0.0000       0.386277        10.5111 
 183   0.0000       0.388772        10.5790 
 184   0.0000       0.393578        10.7098 
 185   0.0000       0.401257        10.9188 
 186   0.0000       0.402830        10.9616 
 187   0.0000       0.406990        11.0748 
 188   0.0000       0.408212        11.1080 
 189   0.0000       0.415101        11.2955 
 190   0.0000       0.417011        11.3474 
 191   0.0000       0.418780        11.3956 
 192   0.0000       0.423850        11.5336 
 193   0.0000       0.427286        11.6270 
 194   0.0000       0.428938        11.6720 
 195   0.0000       0.432044        11.7565 
 196   0.0000       0.437959        11.9175 
 197   0.0000       0.439917        11.9708 
 198   0.0000       0.448735        12.2107 
 199   0.0000       0.454020        12.3545 
 200   0.0000       0.455988        12.4081 
 201   0.0000       0.460608        12.5338 
 202   0.0000       0.463184        12.6039 
 203   0.0000       0.469568        12.7776 
 204   0.0000       0.472281        12.8514 
 205   0.0000       0.475742        12.9456 
 206   0.0000       0.477280        12.9875 
 207   0.0000       0.485339        13.2067 
 208   0.0000       0.487144        13.2559 
 209   0.0000       0.493871        13.4389 
 210   0.0000       0.497615        13.5408 
 211   0.0000       0.500812        13.6278 
 212   0.0000       0.512274        13.9397 
 213   0.0000       0.512775        13.9533 
 214   0.0000       0.517127        14.0717 
 215   0.0000       0.526375        14.3234 
 216   0.0000       0.532288        14.4843 
 217   0.0000       0.535708        14.5773 
 218   0.0000       0.539644        14.6845 
 219   0.0000       0.541853        14.7446 
 220   0.0000       0.547852        14.9078 
 221   0.0000       0.549974        14.9655 
 222   0.0000       0.551753        15.0140 
 223   0.0000       0.553727        15.0677 
 224   0.0000       0.558544        15.1988 
 225   0.0000       0.564464        15.3598 
 226   0.0000       0.569458        15.4958 
 227   0.0000       0.575426        15.6581 
 228   0.0000       0.579025        15.7561 
 229   0.0000       0.582049        15.8384 
 230   0.0000       0.587859        15.9965 
 231   0.0000       0.589339        16.0367 
 232   0.0000       0.591853        16.1051 
 233   0.0000       0.596116        16.2211 
 234   0.0000       0.600720        16.3464 
 235   0.0000       0.605360        16.4727 
 236   0.0000       0.605578        16.4786 
 237   0.0000       0.611693        16.6450 
 238   0.0000       0.616725        16.7820 
 239   0.0000       0.619428        16.8555 
 240   0.0000       0.625324        17.0159 
 241   0.0000       0.629565        17.1313 
 242   0.0000       0.634367        17.2620 
 243   0.0000       0.637881        17.3576 
 244   0.0000       0.640099        17.4180 
 245   0.0000       0.649804        17.6821 
 246   0.0000       0.651459        17.7271 
 247   0.0000       0.655498        17.8370 
 248   0.0000       0.659714        17.9517 
 249   0.0000       0.661453        17.9990 
 250   0.0000       0.664431        18.0801 
 251   0.0000       0.667687        18.1687 
 252   0.0000       0.670283        18.2393 
 253   0.0000       0.670572        18.2472 
 254   0.0000       0.681524        18.5452 
 255   0.0000       0.688952        18.7473 
 256   0.0000       0.693077        18.8596 
 257   0.0000       0.695266        18.9191 
 258   0.0000       0.698946        19.0193 
 259   0.0000       0.705470        19.1968 
 260   0.0000       0.711543        19.3621 
 261   0.0000       0.714450        19.4412 
 262   0.0000       0.716337        19.4925 
 263   0.0000       0.718563        19.5531 
 264   0.0000       0.723314        19.6824 
 265   0.0000       0.727880        19.8066 
 266   0.0000       0.730341        19.8736 
 267   0.0000       0.734443        19.9852 
 268   0.0000       0.743679        20.2365 
 269   0.0000       0.746165        20.3042 
 270   0.0000       0.748098        20.3568 
 271   0.0000       0.754534        20.5319 
 272   0.0000       0.756792        20.5934 
 273   0.0000       0.762496        20.7486 
 274   0.0000       0.766487        20.8572 
 275   0.0000       0.769105        20.9284 
 276   0.0000       0.770305        20.9611 
 277   0.0000       0.774072        21.0636 
 278   0.0000       0.778035        21.1714 
 279   0.0000       0.785928        21.3862 
 280   0.0000       0.789528        21.4841 
 281   0.0000       0.793183        21.5836 
 282   0.0000       0.794634        21.6231 
 283   0.0000       0.800092        21.7716 
 284   0.0000       0.808167        21.9913 
 285   0.0000       0.809868        22.0376 
 286   0.0000       0.813503        22.1365 
 287   0.0000       0.817022        22.2323 
 288   0.0000       0.822482        22.3809 
 289   0.0000       0.825495        22.4628 
 290   0.0000       0.833679        22.6856 
 291   0.0000       0.835871        22.7452 
 292   0.0000       0.841267        22.8920 
 293   0.0000       0.845954        23.0196 
 294   0.0000       0.848371        23.0854 
 295   0.0000       0.860577        23.4175 
 296   0.0000       0.863986        23.5103 
 297   0.0000       0.868009        23.6197 
 298   0.0000       0.878761        23.9123 
 299   0.0000       0.887517        24.1506 
 300   0.0000       0.895757        24.3748 
 301   0.0000       0.899726        24.4828 
 302   0.0000       0.902493        24.5581 
 303   0.0000       0.909907        24.7598 
 304   0.0000       0.916999        24.9528 
 305   0.0000       0.921254        25.0686 
 306   0.0000       0.925865        25.1941 
 307   0.0000       0.928882        25.2762 
 308   0.0000       0.933994        25.4153 
 309   0.0000       0.936072        25.4718 
 310   0.0000       0.947896        25.7936 
 311   0.0000       0.954077        25.9618 
 312   0.0000       0.961575        26.1658 
 313   0.0000       0.966693        26.3051 
 314   0.0000       0.970936        26.4205 
 315   0.0000       0.977679        26.6040 
 316   0.0000       0.984382        26.7864 
 317   0.0000       0.988929        26.9101 
 318   0.0000       0.993956        27.0469 
 319   0.0000       0.996445        27.1146 
 320   0.0000       1.005069        27.3493 
 321   0.0000       1.011697        27.5297 
 322   0.0000       1.017966        27.7003 
 323   0.0000       1.023564        27.8526 
 324   0.0000       1.029788        28.0220 
 325   0.0000       1.033453        28.1217 
 326   0.0000       1.039981        28.2993 
 327   0.0000       1.044308        28.4171 
 328   0.0000       1.047730        28.5102 
 329   0.0000       1.057282        28.7701 
 330   0.0000       1.067697        29.0535 
 331   0.0000       1.076507        29.2932 
 332   0.0000       1.080813        29.4104 
 333   0.0000       1.085916        29.5493 
 334   0.0000       1.089786        29.6546 
 335   0.0000       1.093086        29.7444 
 336   0.0000       1.103783        30.0355 
 337   0.0000       1.110121        30.2079 
 338   0.0000       1.122127        30.5346 
 339   0.0000       1.125448        30.6250 
 340   0.0000       1.132151        30.8074 
 341   0.0000       1.136014        30.9125 
 342   0.0000       1.137630        30.9565 
 343   0.0000       1.159150        31.5421 
 344   0.0000       1.162378        31.6299 
 345   0.0000       1.171554        31.8796 
 346   0.0000       1.174413        31.9574 
 347   0.0000       1.183957        32.2171 
 348   0.0000       1.187839        32.3228 
 349   0.0000       1.193302        32.4714 
 350   0.0000       1.200142        32.6575 
 351   0.0000       1.212281        32.9879 
 352   0.0000       1.216995        33.1161 
 353   0.0000       1.223139        33.2833 
 354   0.0000       1.225922        33.3590 
 355   0.0000       1.238452        33.7000 
 356   0.0000       1.246649        33.9230 
 357   0.0000       1.261225        34.3197 
 358   0.0000       1.271795        34.6073 
 359   0.0000       1.278110        34.7791 
 360   0.0000       1.289659        35.0934 
 361   0.0000       1.296783        35.2873 
 362   0.0000       1.306621        35.5550 
 363   0.0000       1.319084        35.8941 
 364   0.0000       1.327576        36.1252 
 365   0.0000       1.330679        36.2096 
 366   0.0000       1.337488        36.3949 
 367   0.0000       1.344089        36.5745 
 368   0.0000       1.352903        36.8144 
 369   0.0000       1.359518        36.9944 
 370   0.0000       1.370343        37.2889 
 371   0.0000       1.375468        37.4284 
 372   0.0000       1.377562        37.4854 
 373   0.0000       1.392426        37.8898 
 374   0.0000       1.395078        37.9620 
 375   0.0000       1.409746        38.3611 
 376   0.0000       1.415762        38.5248 
 377   0.0000       1.424041        38.7501 
 378   0.0000       1.427528        38.8450 
 379   0.0000       1.434022        39.0217 
 380   0.0000       1.436425        39.0871 
 381   0.0000       1.442398        39.2496 
 382   0.0000       1.452734        39.5309 
 383   0.0000       1.458691        39.6930 
 384   0.0000       1.477726        40.2110 
 385   0.0000       1.480869        40.2965 
 386   0.0000       1.483198        40.3599 
 387   0.0000       1.494782        40.6751 
 388   0.0000       1.501804        40.8662 
 389   0.0000       1.506524        40.9946 
 390   0.0000       1.529458        41.6187 
 391   0.0000       1.542819        41.9823 
 392   0.0000       1.549300        42.1586 
 393   0.0000       1.557073        42.3701 
 394   0.0000       1.565107        42.5887 
 395   0.0000       1.578696        42.9585 
 396   0.0000       1.584561        43.1181 
 397   0.0000       1.598365        43.4937 
 398   0.0000       1.620004        44.0826 
 399   0.0000       1.625104        44.2213 
 400   0.0000       1.646686        44.8086 
 401   0.0000       1.653401        44.9913 
 402   0.0000       1.657449        45.1015 
 403   0.0000       1.667658        45.3793 
 404   0.0000       1.675345        45.5885 
 405   0.0000       1.699439        46.2441 
 406   0.0000       1.706168        46.4272 
 407   0.0000       1.714973        46.6668 
 408   0.0000       1.716221        46.7008 
 409   0.0000       1.723917        46.9102 
 410   0.0000       1.737629        47.2833 
 411   0.0000       1.747674        47.5566 
 412   0.0000       1.754224        47.7349 
 413   0.0000       1.760763        47.9128 
 414   0.0000       1.765517        48.0422 
 415   0.0000       1.775149        48.3043 
 416   0.0000       1.782303        48.4989 
 417   0.0000       1.787685        48.6454 
 418   0.0000       1.794639        48.8346 
 419   0.0000       1.807902        49.1955 
 420   0.0000       1.825769        49.6817 
 421   0.0000       1.830094        49.7994 
 422   0.0000       1.838938        50.0400 
 423   0.0000       1.854590        50.4660 
 424   0.0000       1.856365        50.5143 
 425   0.0000       1.863283        50.7025 
 426   0.0000       1.865098        50.7519 
 427   0.0000       1.873941        50.9925 
 428   0.0000       1.885639        51.3109 
 429   0.0000       1.892793        51.5055 
 430   0.0000       1.903703        51.8024 
 431   0.0000       1.908743        51.9395 
 432   0.0000       1.911499        52.0145 
 433   0.0000       1.920401        52.2568 
 434   0.0000       1.924869        52.3783 
 435   0.0000       1.930514        52.5320 
 436   0.0000       1.931404        52.5562 
 437   0.0000       1.948948        53.0336 
 438   0.0000       1.952475        53.1295 
 439   0.0000       1.955948        53.2240 
 440   0.0000       1.965252        53.4772 
 441   0.0000       1.968751        53.5724 
 442   0.0000       1.983058        53.9617 
 443   0.0000       1.987930        54.0943 
 444   0.0000       2.002575        54.4928 
 445   0.0000       2.007234        54.6196 
 446   0.0000       2.017327        54.8943 
 447   0.0000       2.025605        55.1195 
 448   0.0000       2.036716        55.4219 
 449   0.0000       2.039495        55.4975 
 450   0.0000       2.053239        55.8715 
 451   0.0000       2.057437        55.9857 
 452   0.0000       2.065228        56.1977 
 453   0.0000       2.084055        56.7100 
 454   0.0000       2.103238        57.2320 
 455   0.0000       2.103985        57.2524 
 456   0.0000       2.112298        57.4786 
 457   0.0000       2.119950        57.6868 
 458   0.0000       2.127584        57.8945 
 459   0.0000       2.140519        58.2465 
 460   0.0000       2.144854        58.3644 
 461   0.0000       2.166989        58.9668 
 462   0.0000       2.174841        59.1804 
 463   0.0000       2.181865        59.3716 
 464   0.0000       2.195740        59.7491 
 465   0.0000       2.203632        59.9639 
 466   0.0000       2.204399        59.9847 
 467   0.0000       2.227224        60.6059 
 468   0.0000       2.236343        60.8540 
 469   0.0000       2.245111        61.0926 
 470   0.0000       2.248082        61.1734 
 471   0.0000       2.270696        61.7888 
 472   0.0000       2.281473        62.0820 
 473   0.0000       2.289116        62.2900 
 474   0.0000       2.316078        63.0237 
 475   0.0000       2.324076        63.2413 
 476   0.0000       2.337296        63.6011 
 477   0.0000       2.343307        63.7646 
 478   0.0000       2.346957        63.8640 
 479   0.0000       2.351931        63.9993 
 480   0.0000       2.363295        64.3085 
 481   0.0000       2.374972        64.6263 
 482   0.0000       2.377348        64.6909 
 483   0.0000       2.391450        65.0747 
 484   0.0000       2.420556        65.8667 
 485   0.0000       2.430024        66.1243 
 486   0.0000       2.449743        66.6609 
 487   0.0000       2.475639        67.3656 
 488   0.0000       2.500460        68.0410 
 489   0.0000       2.504825        68.1597 
 490   0.0000       2.523534        68.6689 
 491   0.0000       2.531638        68.8894 
 492   0.0000       2.536903        69.0326 
 493   0.0000       2.546297        69.2883 
 494   0.0000       2.559871        69.6576 
 495   0.0000       2.579317        70.1868 
 496   0.0000       2.587736        70.4159 
 497   0.0000       2.601965        70.8031 
 498   0.0000       2.612715        71.0956 
 499   0.0000       2.621070        71.3229 
 500   0.0000       2.652416        72.1759 
 501   0.0000       2.665829        72.5409 
 502   0.0000       2.684704        73.0545 
 503   0.0000       2.696225        73.3680 
 504   0.0000       2.709827        73.7381 
 505   0.0000       2.726117        74.1814 
 506   0.0000       2.743297        74.6489 
 507   0.0000       2.754561        74.9554 
 508   0.0000       2.769557        75.3635 
 509   0.0000       2.777490        75.5793 
 510   0.0000       2.788917        75.8903 
 511   0.0000       2.793605        76.0178 
 512   0.0000       2.805509        76.3418 
 513   0.0000       2.815861        76.6235 
 514   0.0000       2.821914        76.7882 
 515   0.0000       2.836038        77.1725 
 516   0.0000       2.840774        77.3014 
 517   0.0000       2.849335        77.5344 
 518   0.0000       2.855335        77.6976 
 519   0.0000       2.864753        77.9539 
 520   0.0000       2.874225        78.2116 
 521   0.0000       2.890626        78.6579 
 522   0.0000       2.894068        78.7516 
 523   0.0000       2.901372        78.9504 
 524   0.0000       2.907571        79.1190 
 525   0.0000       2.916668        79.3666 
 526   0.0000       2.925935        79.6188 
 527   0.0000       2.955517        80.4237 
 528   0.0000       2.960043        80.5469 
 529   0.0000       2.968190        80.7686 
 530   0.0000       2.972384        80.8827 
 531   0.0000       2.982467        81.1570 
 532   0.0000       2.996876        81.5491 
 533   0.0000       3.000438        81.6461 
 534   0.0000       3.006216        81.8033 
 535   0.0000       3.015311        82.0508 
 536   0.0000       3.016744        82.0898 
 537   0.0000       3.032398        82.5157 
 538   0.0000       3.047998        82.9403 
 539   0.0000       3.062167        83.3258 
 540   0.0000       3.067135        83.4610 
 541   0.0000       3.070391        83.5496 
 542   0.0000       3.087520        84.0157 
 543   0.0000       3.094385        84.2025 
 544   0.0000       3.096473        84.2593 
 545   0.0000       3.123515        84.9952 
 546   0.0000       3.125652        85.0533 
 547   0.0000       3.139689        85.4353 
 548   0.0000       3.148952        85.6874 
 549   0.0000       3.152496        85.7838 
 550   0.0000       3.160075        85.9900 
 551   0.0000       3.171095        86.2899 
 552   0.0000       3.183409        86.6250 
 553   0.0000       3.191571        86.8470 
 554   0.0000       3.194902        86.9377 
 555   0.0000       3.208330        87.3031 
 556   0.0000       3.217345        87.5484 
 557   0.0000       3.228003        87.8384 
 558   0.0000       3.236003        88.0561 
 559   0.0000       3.251990        88.4912 
 560   0.0000       3.260504        88.7228 
 561   0.0000       3.273344        89.0722 
 562   0.0000       3.278361        89.2087 
 563   0.0000       3.290926        89.5506 
 564   0.0000       3.295294        89.6695 
 565   0.0000       3.303764        89.9000 
 566   0.0000       3.309987        90.0693 
 567   0.0000       3.310983        90.0964 
 568   0.0000       3.319354        90.3242 
 569   0.0000       3.329945        90.6124 
 570   0.0000       3.334559        90.7380 
 571   0.0000       3.345612        91.0387 
 572   0.0000       3.353146        91.2437 
 573   0.0000       3.354309        91.2754 
 574   0.0000       3.360263        91.4374 
 575   0.0000       3.368009        91.6482 
 576   0.0000       3.374561        91.8265 
 577   0.0000       3.380649        91.9921 
 578   0.0000       3.392697        92.3200 
 579   0.0000       3.397749        92.4575 
 580   0.0000       3.412014        92.8456 
 581   0.0000       3.417193        92.9866 
 582   0.0000       3.420251        93.0698 
 583   0.0000       3.421848        93.1132 
 584   0.0000       3.438537        93.5673 
 585   0.0000       3.445361        93.7530 
 586   0.0000       3.453323        93.9697 
 587   0.0000       3.457326        94.0786 
 588   0.0000       3.469990        94.4232 
 589   0.0000       3.477103        94.6168 
 590   0.0000       3.488924        94.9384 
 591   0.0000       3.491073        94.9969 
 592   0.0000       3.503422        95.3330 
 593   0.0000       3.516458        95.6877 
 594   0.0000       3.522883        95.8625 
 595   0.0000       3.531528        96.0978 
 596   0.0000       3.540432        96.3400 
 597   0.0000       3.549010        96.5735 
 598   0.0000       3.558105        96.8210 
 599   0.0000       3.573009        97.2265 
 600   0.0000       3.586950        97.6059 
 601   0.0000       3.590541        97.7036 
 602   0.0000       3.598166        97.9111 
 603   0.0000       3.611872        98.2840 
 604   0.0000       3.615167        98.3737 
 605   0.0000       3.620355        98.5149 
 606   0.0000       3.623393        98.5975 
 607   0.0000       3.629521        98.7643 
 608   0.0000       3.635901        98.9379 
 609   0.0000       3.647199        99.2453 
 610   0.0000       3.654918        99.4554 
 611   0.0000       3.664992        99.7295 
 612   0.0000       3.673926        99.9726 
 613   0.0000       3.679063       100.1124 
 614   0.0000       3.681640       100.1825 
 615   0.0000       3.691579       100.4530 
 616   0.0000       3.696416       100.5846 
 617   0.0000       3.704559       100.8062 
 618   0.0000       3.709703       100.9462 
 619   0.0000       3.724288       101.3430 
 620   0.0000       3.734529       101.6217 
 621   0.0000       3.739569       101.7588 
 622   0.0000       3.759496       102.3011 
 623   0.0000       3.772943       102.6670 
 624   0.0000       3.784840       102.9907 
 625   0.0000       3.799388       103.3866 
 626   0.0000       3.833543       104.3160 
 627   0.0000       3.850240       104.7704 
 628   0.0000       3.854667       104.8908 
 629   0.0000       3.872311       105.3709 
 630   0.0000       3.907075       106.3169 
 631   0.0000       3.914929       106.5306 
 632   0.0000       3.928563       106.9016 
 633   0.0000       3.939242       107.1922 
 634   0.0000       3.952865       107.5629 
 635   0.0000       3.961259       107.7913 
 636   0.0000       3.971046       108.0577 
 637   0.0000       3.976961       108.2186 
 638   0.0000       3.978844       108.2698 
 639   0.0000       4.004843       108.9773 
 640   0.0000       4.008216       109.0691 
 641   0.0000       4.018025       109.3360 
 642   0.0000       4.049835       110.2016 
 643   0.0000       4.067432       110.6805 
 644   0.0000       4.094057       111.4050 
 645   0.0000       4.095761       111.4513 
 646   0.0000       4.103998       111.6755 
 647   0.0000       4.117885       112.0534 
 648   0.0000       4.142675       112.7279 
 649   0.0000       4.154553       113.0511 
 650   0.0000       4.166171       113.3673 
 651   0.0000       4.170830       113.4941 
 652   0.0000       4.185659       113.8976 
 653   0.0000       4.195491       114.1651 
 654   0.0000       4.198486       114.2466 
 655   0.0000       4.203165       114.3739 
 656   0.0000       4.220445       114.8441 
 657   0.0000       4.239383       115.3595 
 658   0.0000       4.246750       115.5599 
 659   0.0000       4.256184       115.8166 
 660   0.0000       4.261349       115.9572 
 661   0.0000       4.274846       116.3245 
 662   0.0000       4.277795       116.4047 
 663   0.0000       4.292165       116.7958 
 664   0.0000       4.300690       117.0277 
 665   0.0000       4.338391       118.0536 
 666   0.0000       4.343942       118.2047 
 667   0.0000       4.368657       118.8772 
 668   0.0000       4.374767       119.0435 
 669   0.0000       4.389783       119.4521 
 670   0.0000       4.412879       120.0806 
 671   0.0000       4.427034       120.4657 
 672   0.0000       4.432365       120.6108 
 673   0.0000       4.441234       120.8521 
 674   0.0000       4.448039       121.0373 
 675   0.0000       4.482236       121.9678 
 676   0.0000       4.520977       123.0220 
 677   0.0000       4.523724       123.0968 
 678   0.0000       4.541228       123.5731 
 679   0.0000       4.551022       123.8396 
 680   0.0000       4.566087       124.2495 
 681   0.0000       4.566923       124.2723 
 682   0.0000       4.579588       124.6169 
 683   0.0000       4.586046       124.7926 
 684   0.0000       4.608375       125.4002 
 685   0.0000       4.617242       125.6415 
 686   0.0000       4.634020       126.0981 
 687   0.0000       4.651843       126.5831 
 688   0.0000       4.719175       128.4153 
 689   0.0000       4.728574       128.6710 
 690   0.0000       4.733101       128.7942 
 691   0.0000       4.750995       129.2811 
 692   0.0000       4.777343       129.9981 
 693   0.0000       4.798431       130.5719 
 694   0.0000       4.824863       131.2912 
 695   0.0000       4.858250       132.1997 
 696   0.0000       4.866147       132.4146 
 697   0.0000       4.895315       133.2083 
 698   0.0000       4.954256       134.8122 
 699   0.0000       5.048804       137.3849 
 700   0.0000       5.054234       137.5327 
 701   0.0000       5.071060       137.9906 
 702   0.0000       5.098068       138.7255 
 703   0.0000       5.104181       138.8918 
 704   0.0000       5.114334       139.1681 
 705   0.0000       5.131473       139.6345 
 706   0.0000       5.182514       141.0234 
 707   0.0000       5.207199       141.6951 
 708   0.0000       5.239476       142.5734 
 709   0.0000       5.251541       142.9017 
 710   0.0000       5.284193       143.7902 
 711   0.0000       5.284553       143.8000 
 712   0.0000       5.288861       143.9172 
 713   0.0000       5.289964       143.9472 
 714   0.0000       5.296721       144.1311 
 715   0.0000       5.300557       144.2355 
 716   0.0000       5.301582       144.2634 
 717   0.0000       5.302755       144.2953 
 718   0.0000       5.311714       144.5391 
 719   0.0000       5.333477       145.1313 
 720   0.0000       5.338534       145.2689 
 721   0.0000       5.360712       145.8724 
 722   0.0000       5.395830       146.8280 
 723   0.0000       5.419456       147.4709 
 724   0.0000       5.433610       147.8561 
 725   0.0000       5.447880       148.2444 
 726   0.0000       5.466476       148.7504 
 727   0.0000       5.493136       149.4758 
 728   0.0000       5.523872       150.3122 
 729   0.0000       5.534384       150.5983 
 730   0.0000       5.560206       151.3009 
 731   0.0000       5.601926       152.4361 
 732   0.0000       5.612717       152.7298 
 733   0.0000       5.661953       154.0696 
 734   0.0000       5.688164       154.7828 
 735   0.0000       5.700261       155.1120 
 736   0.0000       5.708454       155.3349 
 737   0.0000       5.724280       155.7656 
 738   0.0000       5.744286       156.3100 
 739   0.0000       5.754977       156.6009 
 740   0.0000       5.763326       156.8281 
 741   0.0000       5.770715       157.0291 
 742   0.0000       5.780566       157.2972 
 743   0.0000       5.783721       157.3830 
 744   0.0000       5.790041       157.5550 
 745   0.0000       5.793531       157.6500 
 746   0.0000       5.874397       159.8505 
 747   0.0000       5.906921       160.7355 
 748   0.0000       5.957585       162.1141 
 749   0.0000       6.030804       164.1065 
 750   0.0000       6.143150       167.1636 
 751   0.0000       6.229133       169.5033 
 752   0.0000       6.242548       169.8684 
 753   0.0000       6.282176       170.9467 
 754   0.0000       6.287350       171.0875 
 755   0.0000       6.381360       173.6456 
 756   0.0000       6.476069       176.2228 
 757   0.0000       6.490891       176.6261 
 758   0.0000       6.507870       177.0881 
 759   0.0000       6.645145       180.8236 
 760   0.0000       6.652227       181.0163 
 761   0.0000       6.656486       181.1322 
 762   0.0000       6.658187       181.1785 
 763   0.0000       6.662346       181.2916 
 764   0.0000       6.668665       181.4636 
 765   0.0000       6.675105       181.6388 
 766   0.0000       6.684045       181.8821 
 767   0.0000       6.689171       182.0216 
 768   0.0000       6.691328       182.0803 
 769   0.0000       6.694110       182.1560 
 770   0.0000       6.707966       182.5330 
 771   0.0000       6.714687       182.7159 
 772   0.0000       6.735822       183.2910 
 773   0.0000       6.813517       185.4052 
 774   0.0000       6.838925       186.0966 
 775   0.0000       6.864658       186.7968 
 776   0.0000       6.864950       186.8048 
 777   0.0000       6.876419       187.1169 
 778   0.0000       6.879365       187.1970 
 779   0.0000       6.952260       189.1806 
 780   0.0000       6.983425       190.0286 
 781   0.0000       7.027224       191.2205 
 782   0.0000       7.077677       192.5934 
 783   0.0000       7.088584       192.8902 
 784   0.0000       7.095833       193.0874 
 785   0.0000       7.104161       193.3140 
 786   0.0000       7.107974       193.4178 
 787   0.0000       7.113965       193.5808 
 788   0.0000       7.119954       193.7438 
 789   0.0000       7.134279       194.1336 
 790   0.0000       7.148108       194.5099 
 791   0.0000       7.166208       195.0024 
 792   0.0000       7.249464       197.2680 
 793   0.0000       7.326500       199.3642 
 794   0.0000       7.432597       202.2512 
 795   0.0000       7.437766       202.3919 
 796   0.0000       7.446612       202.6326 
 797   0.0000       7.506111       204.2517 
 798   0.0000       7.566403       205.8923 
 799   0.0000       7.586374       206.4357 
 800   0.0000       7.629734       207.6156 
 801   0.0000       7.739882       210.6129 
 802   0.0000       7.935883       215.9463 
 803   0.0000       8.078373       219.8237 
 804   0.0000       8.337363       226.8712 
 805   0.0000      23.678278       644.3187 
 806   0.0000      23.768647       646.7778 
 807   0.0000      23.829474       648.4329 
 808   0.0000      23.868555       649.4964 
 809   0.0000      23.903624       650.4507 
 810   0.0000      23.998999       653.0460 
 811   0.0000      24.197817       658.4561 
 812   0.0000      24.259945       660.1467 
 813   0.0000      24.323942       661.8881 
 814   0.0000      44.898662      1221.7547 
 815   0.0000      44.923003      1222.4171 
 816   0.0000      44.943006      1222.9614 
 817   0.0000      45.051422      1225.9115 
 818   0.0000      45.108328      1227.4600 
 819   0.0000      45.227632      1230.7064 
 820   0.0000      49.315477      1341.9424 
 821   0.0000      50.057015      1362.1206 
 822   0.0000      50.274747      1368.0454 
 823   0.0000      68.226035      1856.5248 
 824   0.0000     511.102737     13907.8125 

                    ********************************
                    * MULLIKEN POPULATION ANALYSIS *
                    ********************************

-----------------------
MULLIKEN ATOMIC CHARGES
-----------------------
   0 Re:    0.709592
   1 C :    0.362754
   2 C :    0.646634
   3 C :    0.193333
   4 Br:   -0.728351
   5 O :   -0.420858
   6 O :   -0.329166
   7 O :   -0.410432
   8 C :   -0.082840
   9 C :   -0.057591
  10 C :   -0.640413
  11 C :    0.925551
  12 O :   -0.458470
  13 O :   -0.340634
  14 C :    0.787668
  15 O :   -0.865999
  16 H :    0.411637
  17 C :   -0.126011
  18 H :    0.082619
  19 H :    0.139375
  20 H :    0.138165
  21 H :    0.068268
  22 H :   -0.030705
  23 H :    0.020592
  24 H :    0.005283
Sum of atomic charges:   -0.0000000

--------------------------------
MULLIKEN REDUCED ORBITAL CHARGES
--------------------------------
  0 Res       :     2.095159  s :     2.095159
      pz      :     2.200782  p :     6.575708
      px      :     2.335225
      py      :     2.039701
      dz2     :     0.635608  d :     5.441018
      dxz     :     1.436485
      dyz     :     1.256648
      dx2y2   :     0.897503
      dxy     :     1.214775
      f0      :     0.037636  f :     0.171695
      f+1     :     0.028280
      f-1     :     0.022192
      f+2     :     0.012326
      f-2     :     0.007687
      f+3     :     0.031066
      f-3     :     0.032507
      g0      :     0.001130  g :     0.006827
      g+1     :     0.000687
      g-1     :     0.001127
      g+2     :     0.000742
      g-2     :     0.000429
      g+3     :     0.000381
      g-3     :     0.000262
      g+4     :     0.000643
      g-4     :     0.001425
  1 C s       :     3.435357  s :     3.435357
      pz      :     0.862001  p :     2.055787
      px      :     0.602231
      py      :     0.591554
      dz2     :     0.003034  d :     0.126067
      dxz     :     0.064574
      dyz     :     0.042858
      dx2y2   :     0.009479
      dxy     :     0.006122
      f0      :     0.006086  f :     0.020035
      f+1     :     0.006041
      f-1     :     0.005724
      f+2     :     0.001018
      f-2     :     0.001067
      f+3     :     0.000050
      f-3     :     0.000049
  2 C s       :     3.173407  s :     3.173407
      pz      :     0.598887  p :     2.027078
      px      :     0.826971
      py      :     0.601221
      dz2     :     0.006359  d :     0.132039
      dxz     :     0.063347
      dyz     :     0.007378
      dx2y2   :     0.025677
      dxy     :     0.029279
      f0      :     0.002594  f :     0.020842
      f+1     :     0.002328
      f-1     :     0.000608
      f+2     :     0.003213
      f-2     :     0.001564
      f+3     :     0.005623
      f-3     :     0.004910
  3 C s       :     3.448653  s :     3.448653
      pz      :     0.642042  p :     2.148722
      px      :     0.677967
      py      :     0.828713
      dz2     :     0.020646  d :     0.188938
      dxz     :     0.016681
      dyz     :     0.060753
      dx2y2   :     0.036609
      dxy     :     0.054249
      f0      :     0.001993  f :     0.020354
      f+1     :     0.000630
      f-1     :     0.003211
      f+2     :     0.002861
      f-2     :     0.002228
      f+3     :     0.004224
      f-3     :     0.005208
  4 Brs       :     8.103296  s :     8.103296
      pz      :     5.974852  p :    17.598099
      px      :     5.916132
      py      :     5.707115
      dz2     :     2.002596  d :    10.024554
      dxz     :     2.001872
      dyz     :     2.007971
      dx2y2   :     2.005316
      dxy     :     2.006799
      f0      :     0.000264  f :     0.002402
      f+1     :     0.000089
      f-1     :     0.000321
      f+2     :     0.000325
      f-2     :     0.000291
      f+3     :     0.000476
      f-3     :     0.000636
  5 O s       :     3.970317  s :     3.970317
      pz      :     1.521537  p :     4.401054
      px      :     1.520996
      py      :     1.358521
      dz2     :     0.005233  d :     0.047702
      dxz     :     0.002329
      dyz     :     0.013614
      dx2y2   :     0.012747
      dxy     :     0.013779
      f0      :     0.000171  f :     0.001784
      f+1     :     0.000054
      f-1     :     0.000281
      f+2     :     0.000254
      f-2     :     0.000191
      f+3     :     0.000353
      f-3     :     0.000481
  6 O s       :     3.929941  s :     3.929941
      pz      :     1.342961  p :     4.345971
      px      :     1.526351
      py      :     1.476658
      dz2     :     0.014916  d :     0.051388
      dxz     :     0.017348
      dyz     :     0.017001
      dx2y2   :     0.000934
      dxy     :     0.001189
      f0      :     0.000518  f :     0.001867
      f+1     :     0.000607
      f-1     :     0.000550
      f+2     :     0.000093
      f-2     :     0.000094
      f+3     :     0.000003
      f-3     :     0.000003
  7 O s       :     3.969931  s :     3.969931
      pz      :     1.525320  p :     4.386899
      px      :     1.352999
      py      :     1.508579
      dz2     :     0.003989  d :     0.051798
      dxz     :     0.016483
      dyz     :     0.001541
      dx2y2   :     0.013541
      dxy     :     0.016244
      f0      :     0.000244  f :     0.001804
      f+1     :     0.000172
      f-1     :     0.000052
      f+2     :     0.000290
      f-2     :     0.000137
      f+3     :     0.000493
      f-3     :     0.000417
  8 C s       :     3.327529  s :     3.327529
      pz      :     1.003916  p :     2.732781
      px      :     1.006729
      py      :     0.722136
      dz2     :     0.001474  d :     0.014771
      dxz     :     0.001474
      dyz     :    -0.009754
      dx2y2   :     0.007634
      dxy     :     0.013944
      f0      :     0.001085  f :     0.007760
      f+1     :     0.000288
      f-1     :     0.000697
      f+2     :     0.001292
      f-2     :     0.000578
      f+3     :     0.001827
      f-3     :     0.001994
  9 C s       :     3.351629  s :     3.351629
      pz      :     0.960795  p :     2.734189
      px      :     0.937399
      py      :     0.835996
      dz2     :    -0.013661  d :    -0.036021
      dxz     :    -0.003209
      dyz     :    -0.039344
      dx2y2   :     0.004578
      dxy     :     0.015615
      f0      :     0.001057  f :     0.007794
      f+1     :     0.000367
      f-1     :     0.000897
      f+2     :     0.001421
      f-2     :     0.000888
      f+3     :     0.001524
      f-3     :     0.001641
 10 C s       :     3.757658  s :     3.757658
      pz      :     1.245325  p :     2.850118
      px      :     0.701691
      py      :     0.903102
      dz2     :     0.007566  d :     0.024868
      dxz     :     0.014076
      dyz     :     0.018066
      dx2y2   :    -0.016080
      dxy     :     0.001239
      f0      :     0.001563  f :     0.007769
      f+1     :     0.000822
      f-1     :     0.000855
      f+2     :     0.000440
      f-2     :     0.000447
      f+3     :     0.001423
      f-3     :     0.002219
 11 C s       :     2.949582  s :     2.949582
      pz      :     0.664001  p :     1.928030
      px      :     0.580586
      py      :     0.683443
      dz2     :    -0.001153  d :     0.170426
      dxz     :     0.065867
      dyz     :     0.057394
      dx2y2   :     0.031931
      dxy     :     0.016387
      f0      :     0.003516  f :     0.026411
      f+1     :     0.001445
      f-1     :     0.001284
      f+2     :     0.003930
      f-2     :     0.002524
      f+3     :     0.004394
      f-3     :     0.009317
 12 O s       :     3.944922  s :     3.944922
      pz      :     1.717458  p :     4.479736
      px      :     1.334165
      py      :     1.428113
      dz2     :     0.005312  d :     0.032278
      dxz     :    -0.000314
      dyz     :     0.010593
      dx2y2   :     0.013828
      dxy     :     0.002859
      f0      :     0.000259  f :     0.001534
      f+1     :     0.000190
      f-1     :     0.000258
      f+2     :     0.000077
      f-2     :     0.000146
      f+3     :     0.000346
      f-3     :     0.000258
 13 O s       :     3.858900  s :     3.858900
      pz      :     1.733736  p :     4.447221
      px      :     1.239326
      py      :     1.474159
      dz2     :     0.002385  d :     0.032254
      dxz     :     0.012636
      dyz     :     0.002229
      dx2y2   :     0.017547
      dxy     :    -0.002543
      f0      :     0.000310  f :     0.002259
      f+1     :     0.000389
      f-1     :     0.000220
      f+2     :     0.000267
      f-2     :     0.000089
      f+3     :     0.000542
      f-3     :     0.000441
[...]
      f+1     :     0.001459
      f-1     :     0.005971
      f+2     :     0.005277
      f-2     :     0.002800
      f+3     :     0.008042
      f-3     :     0.007925
  9 C s       :     2.746283  s :     2.746283
      pz      :     0.836497  p :     2.688149
      px      :     0.786484
      py      :     1.065168
      dz2     :     0.090718  d :     0.556990
      dxz     :     0.068096
      dyz     :     0.184068
      dx2y2   :     0.114007
      dxy     :     0.100101
      f0      :     0.005461  f :     0.037426
      f+1     :     0.001939
      f-1     :     0.006008
      f+2     :     0.005556
      f-2     :     0.003050
      f+3     :     0.008066
      f-3     :     0.007347
 10 C s       :     2.618935  s :     2.618935
      pz      :     0.875147  p :     2.674150
      px      :     0.910197
      py      :     0.888806
      dz2     :     0.061650  d :     0.550797
      dxz     :     0.064848
      dyz     :     0.038415
      dx2y2   :     0.178444
      dxy     :     0.207440
      f0      :     0.002728  f :     0.041160
      f+1     :     0.004543
      f-1     :     0.004109
      f+2     :     0.003292
      f-2     :     0.002883
      f+3     :     0.010817
      f-3     :     0.012788
 11 C s       :     2.595571  s :     2.595571
      pz      :     0.593884  p :     2.270579
      px      :     0.793705
      py      :     0.882990
      dz2     :     0.107092  d :     1.287678
      dxz     :     0.215131
      dyz     :     0.230219
      dx2y2   :     0.394487
      dxy     :     0.340748
      f0      :     0.011773  f :     0.159932
      f+1     :     0.010821
      f-1     :     0.009127
      f+2     :     0.025582
      f-2     :     0.017004
      f+3     :     0.027991
      f-3     :     0.057634
 12 O s       :     3.124902  s :     3.124902
      pz      :     1.457849  p :     4.216729
      px      :     1.325581
      py      :     1.433299
      dz2     :     0.042243  d :     0.311433
      dxz     :     0.021255
      dyz     :     0.046392
      dx2y2   :     0.114591
      dxy     :     0.086952
      f0      :     0.000349  f :     0.005991
      f+1     :     0.000499
      f-1     :     0.000544
      f+2     :     0.000459
      f-2     :     0.000424
      f+3     :     0.001815
      f-3     :     0.001901
 13 O s       :     3.162900  s :     3.162900
      pz      :     1.513258  p :     4.272685
      px      :     1.328382
      py      :     1.431046
      dz2     :     0.050634  d :     0.514571
      dxz     :     0.076087
      dyz     :     0.075143
      dx2y2   :     0.158928
      dxy     :     0.153779
      f0      :     0.000615  f :     0.006961
      f+1     :     0.000898
      f-1     :     0.000333
      f+2     :     0.000867
      f-2     :     0.000381
      f+3     :     0.001537
      f-3     :     0.002331
 14 C s       :     2.645690  s :     2.645690
      pz      :     0.578766  p :     2.377280
      px      :     0.935943
      py      :     0.862572
      dz2     :     0.078185  d :     0.965699
      dxz     :     0.187055
      dyz     :     0.098029
      dx2y2   :     0.297870
      dxy     :     0.304559
      f0      :     0.006967  f :     0.100173
      f+1     :     0.005632
      f-1     :     0.007747
      f+2     :     0.011794
      f-2     :     0.012742
      f+3     :     0.018477
      f-3     :     0.036815
 15 O s       :     3.242867  s :     3.242867
      pz      :     1.440075  p :     4.436789
      px      :     1.506328
      py      :     1.490385
      dz2     :     0.064148  d :     0.505305
      dxz     :     0.075769
      dyz     :     0.047640
      dx2y2   :     0.156518
      dxy     :     0.161230
      f0      :     0.000390  f :     0.005351
      f+1     :     0.000386
      f-1     :     0.000597
      f+2     :     0.000183
      f-2     :     0.000539
      f+3     :     0.001340
      f-3     :     0.001916
 16 H s       :     0.502207  s :     0.502207
      pz      :     0.114883  p :     0.616868
      px      :     0.331627
      py      :     0.170358
      dz2     :     0.008934  d :     0.091212
      dxz     :     0.026210
      dyz     :     0.000740
      dx2y2   :     0.024998
      dxy     :     0.030329
 17 C s       :     2.628552  s :     2.628552
      pz      :     0.936823  p :     2.530421
      px      :     0.855247
      py      :     0.738350
      dz2     :     0.087714  d :     0.578454
      dxz     :     0.034165
      dyz     :     0.171888
      dx2y2   :     0.177434
      dxy     :     0.107253
      f0      :     0.005510  f :     0.061969
      f+1     :     0.006230
      f-1     :     0.009509
      f+2     :     0.003808
      f-2     :     0.009233
      f+3     :     0.014546
      f-3     :     0.013132
 18 H s       :     0.702665  s :     0.702665
      pz      :     0.074268  p :     0.252370
      px      :     0.123445
      py      :     0.054657
      dz2     :     0.002854  d :     0.028943
      dxz     :     0.009210
      dyz     :     0.000934
      dx2y2   :     0.008434
      dxy     :     0.007511
 19 H s       :     0.692193  s :     0.692193
      pz      :     0.116646  p :     0.260129
      px      :     0.076463
      py      :     0.067019
      dz2     :     0.009680  d :     0.028869
      dxz     :     0.005685
      dyz     :     0.008172
      dx2y2   :     0.002399
      dxy     :     0.002933
 20 H s       :     0.692468  s :     0.692468
      pz      :     0.112134  p :     0.259984
      px      :     0.075426
      py      :     0.072424
      dz2     :     0.008998  d :     0.028861
      dxz     :     0.005099
      dyz     :     0.008313
      dx2y2   :     0.002956
      dxy     :     0.003496
 21 H s       :     0.714274  s :     0.714274
      pz      :     0.112221  p :     0.327826
      px      :     0.079693
      py      :     0.135912
      dz2     :     0.004868  d :     0.029608
      dxz     :     0.002512
      dyz     :     0.009431
      dx2y2   :     0.006493
      dxy     :     0.006304
 22 H s       :     0.690220  s :     0.690220
      pz      :     0.091099  p :     0.270109
      px      :     0.076584
      py      :     0.102426
      dz2     :     0.002791  d :     0.030523
      dxz     :     0.002808
      dyz     :     0.008054
      dx2y2   :     0.008386
      dxy     :     0.008484
 23 H s       :     0.717129  s :     0.717129
      pz      :     0.087779  p :     0.298284
      px      :     0.083147
      py      :     0.127359
      dz2     :     0.003260  d :     0.029276
      dxz     :     0.000869
      dyz     :     0.008478
      dx2y2   :     0.008613
      dxy     :     0.008057
 24 H s       :     0.690474  s :     0.690474
      pz      :     0.050175  p :     0.241623
      px      :     0.085957
      py      :     0.105491
      dz2     :     0.002951  d :     0.026453
      dxz     :     0.001554
      dyz     :     0.004203
      dx2y2   :     0.008808
      dxy     :     0.008936


                      *****************************
                      * MAYER POPULATION ANALYSIS *
                      *****************************

  NA   - Mulliken gross atomic population
  ZA   - Total nuclear charge
  QA   - Mulliken gross atomic charge
  VA   - Mayer's total valence
  BVA  - Mayer's bonded valence
  FA   - Mayer's free valence

  ATOM       NA         ZA         QA         VA         BVA        FA
  0 Re    14.2904    15.0000     0.7096     5.3784     5.3784     0.0000
  1 C      5.6372     6.0000     0.3628     3.2483     3.2483    -0.0000
  2 C      5.3534     6.0000     0.6466     3.2716     3.2716     0.0000
  3 C      5.8067     6.0000     0.1933     3.4274     3.4274    -0.0000
  4 Br    35.7284    35.0000    -0.7284     0.5231     0.5231    -0.0000
  5 O      8.4209     8.0000    -0.4209     2.1595     2.1595    -0.0000
  6 O      8.3292     8.0000    -0.3292     2.2084     2.2084    -0.0000
  7 O      8.4104     8.0000    -0.4104     2.2206     2.2206    -0.0000
  8 C      6.0828     6.0000    -0.0828     3.5662     3.5662     0.0000
  9 C      6.0576     6.0000    -0.0576     3.4136     3.4136    -0.0000
 10 C      6.6404     6.0000    -0.6404     3.0889     3.0889     0.0000
 11 C      5.0744     6.0000     0.9256     3.2378     3.2378    -0.0000
 12 O      8.4585     8.0000    -0.4585     1.7854     1.7854    -0.0000
 13 O      8.3406     8.0000    -0.3406     1.7250     1.7250     0.0000
 14 C      5.2123     6.0000     0.7877     3.3042     3.3042     0.0000
 15 O      8.8660     8.0000    -0.8660     1.7258     1.7258     0.0000
 16 H      0.5884     1.0000     0.4116     0.7531     0.7531    -0.0000
 17 C      6.1260     6.0000    -0.1260     3.7700     3.7700    -0.0000
 18 H      0.9174     1.0000     0.0826     1.0043     1.0043    -0.0000
 19 H      0.8606     1.0000     0.1394     1.0258     1.0258    -0.0000
 20 H      0.8618     1.0000     0.1382     1.0256     1.0256    -0.0000
 21 H      0.9317     1.0000     0.0683     1.0161     1.0161    -0.0000
 22 H      1.0307     1.0000    -0.0307     1.0443     1.0443     0.0000
 23 H      0.9794     1.0000     0.0206     1.0203     1.0203     0.0000
 24 H      0.9947     1.0000     0.0053     0.8837     0.8837    -0.0000

  Mayer bond orders larger than 0.100000
B(  0-Re,  1-C ) :   0.9674 B(  0-Re,  2-C ) :   1.4281 B(  0-Re,  3-C ) :   1.2254 
B(  0-Re,  4-Br) :   0.2343 B(  0-Re,  7-O ) :   0.1219 B(  0-Re,  8-C ) :   0.5857 
B(  0-Re,  9-C ) :   0.4129 B(  0-Re, 15-O ) :   0.2661 B(  1-C ,  2-C ) :  -0.1301 
B(  1-C ,  4-Br) :   0.1095 B(  1-C ,  6-O ) :   2.1039 B(  2-C ,  7-O ) :   2.0466 
B(  3-C ,  5-O ) :   2.0203 B(  3-C ,  8-C ) :   0.1054 B(  8-C ,  9-C ) :   1.9575 
B(  8-C , 21-H ) :  -0.1129 B(  8-C , 23-H ) :   1.1094 B(  9-C , 21-H ) :   1.1176 
B(  9-C , 23-H ) :  -0.1113 B( 10-C , 11-C ) :   0.9731 B( 10-C , 14-C ) :   1.0966 
B( 10-C , 22-H ) :   1.2230 B( 10-C , 24-H ) :  -0.1467 B( 11-C , 12-O ) :   1.0698 
B( 11-C , 13-O ) :   0.9912 B( 11-C , 15-O ) :   0.1645 B( 12-O , 16-H ) :   0.7480 
B( 13-O , 17-C ) :   0.7908 B( 14-C , 15-O ) :   1.0513 B( 14-C , 22-H ) :  -0.1234 
B( 14-C , 24-H ) :   1.0424 B( 17-C , 18-H ) :   1.0399 B( 17-C , 19-H ) :   0.9850 
B( 17-C , 20-H ) :   0.9845 

-------
TIMINGS
-------

Total SCF time: 0 days 0 hours 1 min 17 sec 

Total time                  ....      77.937 sec
Sum of individual times     ....      77.058 sec  ( 98.9%)

Fock matrix formation       ....      69.638 sec  ( 89.4%)
  XC integration            ....       5.155 sec  (  7.4% of F)
    Basis function eval.    ....       0.906 sec  ( 17.6% of XC)
    Density eval.           ....       1.637 sec  ( 31.8% of XC)
    XC-Functional eval.     ....       0.057 sec  (  1.1% of XC)
    XC-Potential eval.      ....       1.875 sec  ( 36.4% of XC)
Diagonalization             ....       2.570 sec  (  3.3%)
Density matrix formation    ....       0.103 sec  (  0.1%)
Population analysis         ....       0.147 sec  (  0.2%)
Initial guess               ....       2.028 sec  (  2.6%)
Orbital Transformation      ....       0.000 sec  (  0.0%)
Orbital Orthonormalization  ....       0.000 sec  (  0.0%)
DIIS solution               ....       1.452 sec  (  1.9%)
Grid generation             ....       1.120 sec  (  1.4%)


           ************************************************************
           *        Program running with 24 parallel MPI-processes    *
           *              working on a common directory               *
           ************************************************************

------------------------------------------------------------------------------
                                ORCA  MP2 
------------------------------------------------------------------------------

Freezing NCore=48 chemical core electrons

-------------
RI-MP2 ENERGY
-------------
Dimension of the basis                    ...  825
Memory devoted to MP2                     ... 5000 MB   
Data format for buffers                   ... DOUBLE
Compression type for matrix containers    ... UNCOMPRESSED
Overall scaling of the MP2 energy         ...   2.700e-01
Calculating two index integrals           ... done (    0.032 sec)
Cholesky decomposition of V**-1           ... done (    0.389 sec)

-----------------
RI-TRANSFORMATION (AUX index driven)
-----------------

Dimension of the orbital-basis         ... 825
Dimension of the aux-basis             ... 2060
Transformation of internal/external MOs...   24-  79 to   80- 824
Number Format for Storage              ... Double (8 Byte)
Integral mode                          ... Direct

First Phase: integral generation and transformation of MO indices
  Aux angular momentum 0               ... done (    0.164 sec)
  Aux angular momentum 1               ... done (    0.307 sec)
  Aux angular momentum 2               ... done (    0.374 sec)
  Aux angular momentum 3               ... done (    0.415 sec)
  Aux angular momentum 4               ... done (    0.124 sec)
  Aux angular momentum 5               ... done (    0.157 sec)
  Aux angular momentum 6               ... done (    0.206 sec)
Closing buffer VIA ( 0.64 GB; CompressionRatio= 1.00)
  Phase 1 completed in     1.868 sec
Second Phase: sorting and transformation of aux index

IA-Transformation
Memory available                       ... 4915 MB 
Max. # MO pairs treated in a batch     ... 3    
# of internal orbitals                 ... 56
# batches for internal orbitals        ... 1
Closing buffer IAV ( 0.03 GB; CompressionRatio= 1.00)
(ia|v) transformation done in     0.543 sec

  Phase 2 completed in     1.302 sec
RI-Integral transformation completed in     3.202 sec
Opening buffers                              ... done

Starting loop over batches of integrals:

Operator 0  - window                       ... ( 24- 79)x( 80-824)
Operator 0  - Memory available             ...  5000 MB
Operator 0  - Memory needed per MO         ...  11.7 MB
Operator 0  - Number of orbitals per batch ... 3
Operator 0  - Number of batches            ... 1

OPERATOR  0   PASS   0:  MOs    24 ...   26 +   27 ...   29 +   30 ...   32 +   33 ...   35
                            +   36 ...   38 +   39 ...   41 +   42 ...   44 +   45 ...   47
                            +   48 ...   50 +   51 ...   53 +   54 ...   56 +   57 ...   59
                            +   60 ...   62 +   63 ...   65 +   66 ...   68 +   69 ...   71
                            +   72 ...   74 +   75 ...   77 +   78 ...   79
  Reading integrals       ... ok
  Internal MO  26
Time spent in pair loops =     0.353 sec
Deleting buffer (Ka|jb)[aa] ...done

-----------------------------------------------
 RI-MP2 CORRELATION ENERGY:     -1.229127231 Eh
-----------------------------------------------


-------
TIMINGS
-------

Total time                :   11.132 sec
Integral trafo            :    3.215 sec ( 28.9%)
I/O of integrals          :    0.043 sec (  0.4%)
K(i,j) Operators          :    0.236 sec (  2.1%)
T(i,j) pair energies      :    0.040 sec (  0.4%)
V-calculation             :    0.032 sec (  0.3%)
V**(-1/2)                 :    0.389 sec (  3.5%)
Gamma(ia|P)               :    0.000 sec (  0.0%)
Gamma-Trafo               :    0.000 sec (  0.0%)
D(virtual)                :    0.000 sec (  0.0%)
D(internal)               :    0.000 sec (  0.0%)
W(virtual)                :    0.000 sec (  0.0%)
W(internal)               :    0.000 sec (  0.0%)
L(virtual)                :    0.000 sec (  0.0%)
L(internal)               :    0.000 sec (  0.0%)
G(D)                      :    0.000 sec (  0.0%)
G(Z)                      :    0.000 sec (  0.0%)
Z-Vector Solution         :    0.000 sec (  0.0%)
Z-Vector Solution         :    0.000 sec (  0.0%)
3-Index Derivative 
+ Separable RIJ part      :    0.000 sec (  0.0%)
2-Index Derivative 
+ Separable RIJ part      :    0.000 sec (  0.0%)
Separable Gradient (X)    :    0.000 sec (  0.0%)


---------------------------------------
MP2 TOTAL ENERGY:    -3450.958167853 Eh
---------------------------------------


-------------------------------------------------------------------------------
                          DFT DISPERSION CORRECTION                            
                                                                               
                              DFTD3 V3.1  Rev 1                                
                          USING Becke-Johnson damping                          
-------------------------------------------------------------------------------
The B2PLYP functional is recognized
Active option DFTDOPT                   ...         4   

molecular C6(AA) [au] = 12293.640027 


            DFT-D V3
 parameters
 s6 scaling factor         :     0.6400 
 a1 scaling factor         :     0.3065 
 s8 scaling factor         :     0.9147 
 a2 scaling factor         :     5.0570 
 ad hoc parameters k1-k3   :    16.0000     1.3333    -4.0000 

 Edisp/kcal,au: -19.147186403588  -0.030512980525 
 E6   /kcal   :  -9.421549021 
 E8   /kcal   :  -9.725637383 
 % E8         :  50.794081062 

-------------------------   ----------------
Dispersion correction           -0.030512981
-------------------------   ----------------


-------------------------   --------------------
FINAL SINGLE POINT ENERGY     -3450.988680833826
-------------------------   --------------------


                            ***************************************
                            *     ORCA property calculations      *
                            ***************************************


  WARNING: The energy has been calculated at the MP2 level but the densities
           used in the property calculations are still SCF densities
           MP2 response densities have not been calculated 
           use %mp2 Density relaxed end
           or  %mp2 Density unrelaxed end

                                    ---------------------
                                    Active property flags
                                    ---------------------
   (+) Dipole Moment


------------------------------------------------------------------------------
                       ORCA ELECTRIC PROPERTIES CALCULATION
------------------------------------------------------------------------------

Dipole Moment Calculation                       ... on
Quadrupole Moment Calculation                   ... off
Polarizability Calculation                      ... off
GBWName                                         ... TMB20_C1.gbw
Electron density file                           ... TMB20_C1.scfp
The origin for moment calculation is the CENTER OF MASS  = (-0.248651, -0.071111  0.004478)

-------------
DIPOLE MOMENT
-------------
                                X             Y             Z
Electronic contribution:   -158.38967      14.40743      -4.00862
Nuclear contribution   :    161.40681     -12.70221       3.21078
                        -----------------------------------------
Total Dipole Moment    :      3.01714       1.70521      -0.79784
                        -----------------------------------------
Magnitude (a.u.)       :      3.55632
Magnitude (Debye)      :      9.03945



--------------------
Rotational spectrum 
--------------------
 
Rotational constants in cm-1:     0.015589     0.006706     0.005713 
Rotational constants in MHz :   467.340547   201.035293   171.274519 

 Dipole components along the rotational axes: 
x,y,z [a.u.] :     3.017142     1.692744    -0.823954 
x,y,z [Debye]:     7.668966     4.302614    -2.094326 

 

Timings for individual modules:

Sum of individual times         ...       94.193 sec (=   1.570 min)
GTO integral calculation        ...        4.033 sec (=   0.067 min)   4.3 %
SCF iterations                  ...       78.333 sec (=   1.306 min)  83.2 %
MP2 module                      ...       11.827 sec (=   0.197 min)  12.6 %
                             ****ORCA TERMINATED NORMALLY****
TOTAL RUN TIME: 0 days 0 hours 1 minutes 34 seconds 827 msec
