
                                 *****************
                                 * O   R   C   A *
                                 *****************

           --- An Ab Initio, DFT and Semiempirical electronic structure package ---

                  #######################################################
                  #                        -***-                        #
                  #          Department of theory and spectroscopy      #
                  #               Directorship: Frank Neese             #
                  #        Max Planck Institute fuer Kohlenforschung    #
                  #                Kaiser Wilhelm Platz 1               #
                  #                 D-45470 Muelheim/Ruhr               #
                  #                      Germany                        #
                  #                                                     #
                  #                  All rights reserved                #
                  #                        -***-                        #
                  #######################################################


                         Program Version 4.2.0 -  RELEASE  -


 With contributions from (in alphabetic order):
   Daniel Aravena         : Magnetic Suceptibility
   Michael Atanasov       : Ab Initio Ligand Field Theory (pilot matlab implementation)
   Alexander A. Auer      : GIAO ZORA, VPT2
   Ute Becker             : Parallelization
   Giovanni Bistoni       : ED, misc. LED, open-shell LED, HFLED
   Martin Brehm           : Molecular dynamics
   Dmytro Bykov           : SCF Hessian
   Vijay G. Chilkuri      : MRCI spin determinant printing, contributions to CSF-ICE
   Dipayan Datta          : RHF DLPNO-CCSD density
   Achintya Kumar Dutta   : EOM-CC, STEOM-CC
   Dmitry Ganyushin       : Spin-Orbit,Spin-Spin,Magnetic field MRCI
   Miquel Garcia          : C-PCM Hessian, Gaussian charge scheme
   Yang Guo               : DLPNO-NEVPT2, CIM, IAO-localization
   Andreas Hansen         : Spin unrestricted coupled pair/coupled cluster methods
   Benjamin Helmich-Paris : CASSCF linear response (MC-RPA)
   Lee Huntington         : MR-EOM, pCC
   Robert Izsak           : Overlap fitted RIJCOSX, COSX-SCS-MP3, EOM
   Christian Kollmar      : KDIIS, OOCD, Brueckner-CCSD(T), CCSD density
   Simone Kossmann        : Meta GGA functionals, TD-DFT gradient, OOMP2, MP2 Hessian
   Martin Krupicka        : AUTO-CI
   Lucas Lang             : DCDCAS
   Dagmar Lenk            : GEPOL surface, SMD
   Dimitrios Liakos       : Extrapolation schemes; Compound Job, initial MDCI parallelization
   Dimitrios Manganas     : Further ROCIS development; embedding schemes
   Dimitrios Pantazis     : SARC Basis sets
   Taras Petrenko         : DFT Hessian,TD-DFT gradient, ASA, ECA, R-Raman, ABS, FL, XAS/XES, NRVS
   Peter Pinski           : DLPNO-MP2, DLPNO-MP2 Gradient
   Christoph Reimann      : Effective Core Potentials
   Marius Retegan         : Local ZFS, SOC
   Christoph Riplinger    : Optimizer, TS searches, QM/MM, DLPNO-CCSD(T), (RO)-DLPNO pert. Triples
   Tobias Risthaus        : Range-separated hybrids, TD-DFT gradient, RPA, STAB
   Michael Roemelt        : Original ROCIS implementation
   Masaaki Saitow         : Open-shell DLPNO-CCSD energy and density
   Barbara Sandhoefer     : DKH picture change effects
   Avijit Sen             : IP-ROCIS
   Kantharuban Sivalingam : CASSCF convergence, NEVPT2, FIC-MRCI
   Bernardo de Souza      : ESD, SOC TD-DFT
   Georgi Stoychev        : AutoAux, RI-MP2 NMR
   Willem Van den Heuvel  : Paramagnetic NMR
   Boris Wezisla          : Elementary symmetry handling
   Frank Wennmohs         : Technical directorship


 We gratefully acknowledge several colleagues who have allowed us to
 interface, adapt or use parts of their codes:
   Stefan Grimme, W. Hujo, H. Kruse,             : VdW corrections, initial TS optimization,
                  C. Bannwarth                     DFT functionals, gCP, sTDA/sTD-DF
   Ed Valeev, F. Pavosevic, A. Kumar             : LibInt (2-el integral package), F12 methods
   Garnet Chan, S. Sharma, J. Yang, R. Olivares  : DMRG
   Ulf Ekstrom                                   : XCFun DFT Library
   Mihaly Kallay                                 : mrcc  (arbitrary order and MRCC methods)
   Andreas Klamt, Michael Diedenhofen            : otool_cosmo (COSMO solvation model)
   Jiri Pittner, Ondrej Demel                    : Mk-CCSD
   Frank Weinhold                                : gennbo (NPA and NBO analysis)
   Christopher J. Cramer and Donald G. Truhlar   : smd solvation model
   Lars Goerigk                                  : TD-DFT with DH, B97 family of functionals
   V. Asgeirsson, H. Jonsson                     : NEB implementation
   FAccTs GmbH                                   : IRC, NEB, NEB-TS, Multilevel, MM, QM/MM, CI optimization
   S Lehtola, MJT Oliveira, MAL Marques          : LibXC Library


 Your calculation uses the libint2 library for the computation of 2-el integrals
 For citations please refer to: http://libint.valeyev.net

 Your ORCA version has been built with support for libXC version: 4.2.3
 For citations please refer to: https://tddft.org/programs/libxc/

 This ORCA versions uses:
   CBLAS   interface :  Fast vector & matrix operations
   LAPACKE interface :  Fast linear algebra routines
   SCALAPACK package :  Parallel linear algebra routines


Your calculation utilizes the atom-pairwise dispersion correction
with the Becke-Johnson damping scheme (D3BJ)
Cite in your paper:
S.Grimme, S.Ehrlich, L.Goerigk, J Comput Chem, (2011), 32, 1456–1465 
S.Grimme, J.Antony, S.Ehrlich and H.Krieg, J.Chem.Phys., 132, (2010), 154104 
   

----- Orbital basis set information -----
Your calculation utilizes the basis: def2-TZVPPD
   F. Weigend and R. Ahlrichs, Phys. Chem. Chem. Phys. 7, 3297 (2005).
   D. Rappoport and F. Furche, J. Chem. Phys. 133 134105 (2010).

----- AuxC basis set information -----
Your calculation utilizes the auxiliary basis: def2-TZVPPD/C
   A. Hellweg, C. Hattig, S. Hofener and W. Klopper, Theor. Chem. Acc. 117, 587 (2007).

----- AuxJK basis set information -----
Your calculation utilizes the auxiliary basis: def2/JK
   H-Ba, Hf-Rn: F. Weigend, J. Comput. Chem. 29, 167 (2008).

cite the ECPs for Re [Def2-ECP] as follows:
Ce-Yb(ecp-28): M. Dolg, H. Stoll, H.Preuss, J. Chem. Phys., 1989, 90, 1730-1734.
Y-Cd(ecp-28), Hf-Hg(ecp-46): D. Andrae,U. Haeussermann, M. Dolg, H. Stoll, H. Preuss, Theor. Chim. Acta, 1990, 77, 123-141.
In-Sb(ecp-28), Tl-Bi(ecp-46): B. Metz, H. Stoll, M. Dolg, J. Chem. Phys., 2000, 113, 2563-2569.
Te-Xe(ecp-28), Po-Rn(ecp-46): K. A. Peterson, D. Figgen, E. Goll, H. Stoll, M. Dolg, J. Chem. Phys., 2003, 119, 11113-11123.
Rb(ecp-28), Cs(ecp-46): T. Leininger, A. Nicklass, W. Kuechle, H. Stoll, M. Dolg, A. Bergner, Chem. Phys. Lett., 1996, 255, 274-280.
Sr(ecp-28), Ba(ecp-46): M. Kaupp, P. V. Schleyer, H. Stoll and H. Preuss, J. Chem. Phys., 1991, 94, 1360-1366.
La(ecp-46): M. Dolg, H. Stoll, A. Savin, H. Preuss, Theor. Chim. Acta, 1989, 75, 173-194.
Lu(ecp-28): X. Cao, M. Dolg, J. Chem. Phys., 2001, 115, 7348-7355.

ECP parameters for Re [Def2-ECP] have been obtained from:
TURBOMOLE (7.0.2)

================================================================================
                                        WARNINGS
                       Please study these warnings very carefully!
================================================================================


WARNING: No MP2 level density has been requested!
         To caclulate MP2 level properties use
         %mp2 Density relaxed end
         or
         %mp2 Density unrelaxed end
         Otherwise for double-hybrid DFT only the energy is correct!

WARNING: The frozen-core approximation is turned on by default for 
         the MP2 part of double-hybrid DFT.

INFO   : the flag for use of LIBINT has been found!

================================================================================
                                       INPUT FILE
================================================================================
NAME = TMB20_I1.in
|  1> #
|  2> # TMB20_I1 ri-B2PLYP-D3BJ/Def2-TZVPPD
|  3> #
|  4> ! rijk ri-b2plyp d3bj def2-tzvppd def2/jk def2-tzvppd/c grid4 nofinalgrid
|  5> 
|  6> *xyz 0 1
|  7> Re       0.721260    0.301703   -0.012347 
|  8> C        1.851141    0.452958   -1.678261 
|  9> C        1.971728    0.634914    1.425372 
| 10> C        0.763580    2.214165   -0.101283 
| 11> Br       1.710512   -2.064741    0.019177 
| 12> O        0.816608    3.358474   -0.166463 
| 13> O        2.493283    0.513036   -2.612271 
| 14> O        2.652573    0.808904    2.320449 
| 15> C       -1.780395   -0.133590    1.665167 
| 16> C       -0.470905   -0.371203    1.638632 
| 17> C       -2.365069    0.652857    0.526821 
| 18> C       -3.493010   -0.159458   -0.075600 
| 19> O       -3.300943   -1.161632   -0.733339 
| 20> O       -4.693453    0.297769    0.229376 
| 21> C       -1.280010    0.876972   -0.512116 
| 22> O       -0.953000   -0.240509   -1.297416 
| 23> H       -1.566319   -0.977006   -1.049921 
| 24> C       -5.797043   -0.483161   -0.244906 
| 25> H       -6.688437    0.024549    0.111717 
| 26> H       -5.787691   -0.527184   -1.333247 
| 27> H       -5.742358   -1.494851    0.155119 
| 28> H       -0.050439   -0.962173    2.449658 
| 29> H       -2.758296    1.619346    0.851818 
| 30> H       -2.454065   -0.501260    2.435709 
| 31> H       -1.435420    1.741704   -1.151672 
| 32> *
| 33> 
| 34> %maxcore 5000
| 35> 
| 36> %pal
| 37> nprocs = 24
| 38> end
| 39> 
| 40> 
| 41>                          ****END OF INPUT****
================================================================================

                       ****************************
                       * Single Point Calculation *
                       ****************************

---------------------------------
CARTESIAN COORDINATES (ANGSTROEM)
---------------------------------
  Re     0.721260    0.301703   -0.012347
  C      1.851141    0.452958   -1.678261
  C      1.971728    0.634914    1.425372
  C      0.763580    2.214165   -0.101283
  Br     1.710512   -2.064741    0.019177
  O      0.816608    3.358474   -0.166463
  O      2.493283    0.513036   -2.612271
  O      2.652573    0.808904    2.320449
  C     -1.780395   -0.133590    1.665167
  C     -0.470905   -0.371203    1.638632
  C     -2.365069    0.652857    0.526821
  C     -3.493010   -0.159458   -0.075600
  O     -3.300943   -1.161632   -0.733339
  O     -4.693453    0.297769    0.229376
  C     -1.280010    0.876972   -0.512116
  O     -0.953000   -0.240509   -1.297416
  H     -1.566319   -0.977006   -1.049921
  C     -5.797043   -0.483161   -0.244906
  H     -6.688437    0.024549    0.111717
  H     -5.787691   -0.527184   -1.333247
  H     -5.742358   -1.494851    0.155119
  H     -0.050439   -0.962173    2.449658
  H     -2.758296    1.619346    0.851818
  H     -2.454065   -0.501260    2.435709
  H     -1.435420    1.741704   -1.151672

----------------------------
CARTESIAN COORDINATES (A.U.)
----------------------------
  NO LB      ZA    FRAG     MASS         X           Y           Z
   0 Re   15.0000*   0   186.207    1.362984    0.570136   -0.023332
   1 C     6.0000    0    12.011    3.498150    0.855967   -3.171454
   2 C     6.0000    0    12.011    3.726026    1.199814    2.693563
   3 C     6.0000    0    12.011    1.442957    4.184165   -0.191397
   4 Br   35.0000    0    79.900    3.232399   -3.901795    0.036239
   5 O     8.0000    0    15.999    1.543165    6.346596   -0.314569
   6 O     8.0000    0    15.999    4.711622    0.969498   -4.936477
   7 O     8.0000    0    15.999    5.012637    1.528607    4.385013
   8 C     6.0000    0    12.011   -3.364459   -0.252449    3.146710
   9 C     6.0000    0    12.011   -0.889881   -0.701472    3.096566
  10 C     6.0000    0    12.011   -4.469333    1.233721    0.995547
  11 C     6.0000    0    12.011   -6.600832   -0.301332   -0.142863
  12 O     8.0000    0    15.999   -6.237878   -2.195166   -1.385810
  13 O     8.0000    0    15.999   -8.869341    0.562702    0.433458
  14 C     6.0000    0    12.011   -2.418868    1.657237   -0.967759
  15 O     8.0000    0    15.999   -1.800909   -0.454496   -2.451761
  16 H     1.0000    0     1.008   -2.959914   -1.846274   -1.984063
  17 C     6.0000    0    12.011  -10.954824   -0.913042   -0.462805
  18 H     1.0000    0     1.008  -12.639314    0.046391    0.211115
  19 H     1.0000    0     1.008  -10.937151   -0.996233   -2.519472
  20 H     1.0000    0     1.008  -10.851484   -2.824859    0.293132
  21 H     1.0000    0     1.008   -0.095316   -1.818243    4.629183
  22 H     1.0000    0     1.008   -5.212424    3.060120    1.609703
  23 H     1.0000    0     1.008   -4.637511   -0.947244    4.602823
  24 H     1.0000    0     1.008   -2.712551    3.291344   -2.176345
* core charge reduced due to ECP

--------------------------------
INTERNAL COORDINATES (ANGSTROEM)
--------------------------------
 Re     0   0   0     0.000000000000     0.00000000     0.00000000
 C      1   0   0     2.018608085930     0.00000000     0.00000000
 C      1   2   0     1.934356666312   103.80654022     0.00000000
 C      1   2   3     1.914996474133    82.78873306    79.12564351
 Br     1   2   3     2.565086838143    82.14904570   277.89406674
 O      4   1   2     1.147389859056   178.49391541   327.51252020
 O      2   1   3     1.135046428279   178.68609495    85.33200211
 O      3   1   2     1.137974195689   176.12648842   189.59702686
 C      1   2   3     3.043322354774   157.77851098   179.94088692
 C      9   1   2     1.331137898226    37.42944185   142.11684556
 C      9   1   2     1.502056651995    80.05745056   320.38587205
 C     11   9   1     1.514931556192   108.08544047   123.96679349
 O     12  11   9     1.214027615372   122.70308766   288.28179310
 O     12  11   9     1.320276594640   113.54196190   105.72491438
 C     11   9   1     1.518871507625   108.51615153     4.92357813
 O     15  11   9     1.404419956943   115.55716524    75.06443266
 H     16  15  11     0.989869588277   107.93539870     3.93651329
 C     14  12  11     1.432726759897   115.79356577   183.80260110
 H     18  14  12     1.086062922424   105.58700129   178.86376631
 H     18  14  12     1.089271140127   110.25308027   298.51319643
 H     18  14  12     1.089278250012   110.24300066    59.16322117
 H     10   9   1     1.088025905359   117.53306695   183.42949817
 H     11   9   1     1.092863903082   112.19249287   244.09671328
 H      9   1   2     1.087541940140   161.45769375   131.12866136
 H     15  11   9     1.086713199082   114.69643541   204.22702384

---------------------------
INTERNAL COORDINATES (A.U.)
---------------------------
 Re     0   0   0     0.000000000000     0.00000000     0.00000000
 C      1   0   0     3.814616454127     0.00000000     0.00000000
 C      1   2   0     3.655404344655   103.80654022     0.00000000
 C      1   2   3     3.618818883535    82.78873306    79.12564351
 Br     1   2   3     4.847311633817    82.14904570   277.89406674
 O      4   1   2     2.168252602455   178.49391541   327.51252020
 O      2   1   3     2.144926898732   178.68609495    85.33200211
 O      3   1   2     2.150459577321   176.12648842   189.59702686
 C      1   2   3     5.751045787764   157.77851098   179.94088692
 C      9   1   2     2.515486074131    37.42944185   142.11684556
 C      9   1   2     2.838475709904    80.05745056   320.38587205
 C     11   9   1     2.862805752838   108.08544047   123.96679349
 O     12  11   9     2.294179712071   122.70308766   288.28179310
 O     12  11   9     2.494961184896   113.54196190   105.72491438
 C     11   9   1     2.870251182027   108.51615153     4.92357813
 O     15  11   9     2.653969095637   115.55716524    75.06443266
 H     16  15  11     1.870582430140   107.93539870     3.93651329
 C     14  12  11     2.707461200945   115.79356577   183.80260110
 H     18  14  12     2.052361487588   105.58700129   178.86376631
 H     18  14  12     2.058424140425   110.25308027   298.51319643
 H     18  14  12     2.058437576160   110.24300066    59.16322117
 H     10   9   1     2.056070987740   117.53306695   183.42949817
 H     11   9   1     2.065213478473   112.19249287   244.09671328
 H      9   1   2     2.055156426018   161.45769375   131.12866136
 H     15  11   9     2.053590332383   114.69643541   204.22702384

---------------------
BASIS SET INFORMATION
---------------------
There are 5 groups of distinct atoms

 Group   1 Type Re  : 8s8p6d2f1g contracted to 6s5p3d2f1g pattern {311111/41111/411/11/1}
 Group   2 Type C   : 12s6p3d1f contracted to 6s3p3d1f pattern {621111/411/111/1}
 Group   3 Type Br  : 18s14p9d1f contracted to 7s6p5d1f pattern {8421111/641111/51111/1}
 Group   4 Type O   : 12s7p3d1f contracted to 6s4p3d1f pattern {621111/4111/111/1}
 Group   5 Type H   : 5s3p1d contracted to 3s3p1d pattern {311/111/1}

Atom   0Re   basis set group =>   1
Atom   1C    basis set group =>   2
Atom   2C    basis set group =>   2
Atom   3C    basis set group =>   2
Atom   4Br   basis set group =>   3
Atom   5O    basis set group =>   4
Atom   6O    basis set group =>   4
Atom   7O    basis set group =>   4
Atom   8C    basis set group =>   2
Atom   9C    basis set group =>   2
Atom  10C    basis set group =>   2
Atom  11C    basis set group =>   2
Atom  12O    basis set group =>   4
Atom  13O    basis set group =>   4
Atom  14C    basis set group =>   2
Atom  15O    basis set group =>   4
Atom  16H    basis set group =>   5
Atom  17C    basis set group =>   2
Atom  18H    basis set group =>   5
Atom  19H    basis set group =>   5
Atom  20H    basis set group =>   5
Atom  21H    basis set group =>   5
Atom  22H    basis set group =>   5
Atom  23H    basis set group =>   5
Atom  24H    basis set group =>   5
---------------------------------
AUXILIARY/C BASIS SET INFORMATION
---------------------------------
There are 5 groups of distinct atoms

 Group   1 Type Re  : 9s9p8d5f4g3h1i contracted to 9s9p8d5f4g3h1i pattern {111111111/111111111/11111111/11111/1111/111/1}
 Group   2 Type C   : 9s7p6d4f1g contracted to 9s7p5d4f1g pattern {111111111/1111111/21111/1111/1}
 Group   3 Type Br  : 11s10p9d7f4g1h contracted to 11s10p9d6f4g1h pattern {11111111111/1111111111/111111111/211111/1111/1}
 Group   4 Type O   : 9s7p6d4f1g contracted to 9s7p5d4f1g pattern {111111111/1111111/21111/1111/1}
 Group   5 Type H   : 5s4p3d1f contracted to 5s4p3d1f pattern {11111/1111/111/1}

Atom   0Re   basis set group =>   1
Atom   1C    basis set group =>   2
Atom   2C    basis set group =>   2
Atom   3C    basis set group =>   2
Atom   4Br   basis set group =>   3
Atom   5O    basis set group =>   4
Atom   6O    basis set group =>   4
Atom   7O    basis set group =>   4
Atom   8C    basis set group =>   2
Atom   9C    basis set group =>   2
Atom  10C    basis set group =>   2
Atom  11C    basis set group =>   2
Atom  12O    basis set group =>   4
Atom  13O    basis set group =>   4
Atom  14C    basis set group =>   2
Atom  15O    basis set group =>   4
Atom  16H    basis set group =>   5
Atom  17C    basis set group =>   2
Atom  18H    basis set group =>   5
Atom  19H    basis set group =>   5
Atom  20H    basis set group =>   5
Atom  21H    basis set group =>   5
Atom  22H    basis set group =>   5
Atom  23H    basis set group =>   5
Atom  24H    basis set group =>   5
----------------------------------
AUXILIARY/JK BASIS SET INFORMATION
----------------------------------
There are 5 groups of distinct atoms

 Group   1 Type Re  : 13s12p11d9f5g3h2i contracted to 11s9p9d7f4g3h2i pattern {31111111111/411111111/311111111/3111111/2111/111/11}
 Group   2 Type C   : 14s10p6d2f1g contracted to 10s8p5d1f1g pattern {5111111111/31111111/21111/2/1}
 Group   3 Type Br  : 20s14p13d10f7g3h contracted to 17s13p12d9f6g3h pattern {41111111111111111/2111111111111/211111111111/211111111/211111/111}
 Group   4 Type O   : 14s10p6d2f1g contracted to 10s8p4d2f1g pattern {5111111111/31111111/3111/11/1}
 Group   5 Type H   : 4s2p2d contracted to 2s2p2d pattern {31/11/11}

Atom   0Re   basis set group =>   1
Atom   1C    basis set group =>   2
Atom   2C    basis set group =>   2
Atom   3C    basis set group =>   2
Atom   4Br   basis set group =>   3
Atom   5O    basis set group =>   4
Atom   6O    basis set group =>   4
Atom   7O    basis set group =>   4
Atom   8C    basis set group =>   2
Atom   9C    basis set group =>   2
Atom  10C    basis set group =>   2
Atom  11C    basis set group =>   2
Atom  12O    basis set group =>   4
Atom  13O    basis set group =>   4
Atom  14C    basis set group =>   2
Atom  15O    basis set group =>   4
Atom  16H    basis set group =>   5
Atom  17C    basis set group =>   2
Atom  18H    basis set group =>   5
Atom  19H    basis set group =>   5
Atom  20H    basis set group =>   5
Atom  21H    basis set group =>   5
Atom  22H    basis set group =>   5
Atom  23H    basis set group =>   5
Atom  24H    basis set group =>   5
-------------------------
ECP PARAMETER INFORMATION
-------------------------

 Group 1, Type Re ECP Def2-ECP (replacing 60 core electrons, lmax=3)

Atom   0Re   ECP group =>   1



           ************************************************************
           *        Program running with 24 parallel MPI-processes    *
           *              working on a common directory               *
           ************************************************************
------------------------------------------------------------------------------
                           ORCA GTO INTEGRAL CALCULATION
                           -- RI-GTO INTEGRALS CHOSEN --
------------------------------------------------------------------------------

                         BASIS SET STATISTICS AND STARTUP INFO

Gaussian basis set:
 # of primitive gaussian shells          ...  475
 # of primitive gaussian functions       ... 1147
 # of contracted shells                  ...  293
 # of contracted basis functions         ...  825
 Highest angular momentum                ...    4
 Maximum contraction depth               ...    8
Auxiliary gaussian basis set:
 # of primitive gaussian shells          ...  681
 # of primitive gaussian functions       ... 2179
 # of contracted shells                  ...  528
 # of contracted aux-basis functions     ... 1774
 Highest angular momentum                ...    6
 Maximum contraction depth               ...    5
Ratio of auxiliary to basis functions    ...  2.15
Integral package used                  ... LIBINT
 One Electron integrals                  
   ECP integrals                         ... done
 Ordering auxiliary basis shells         ... done
 Integral threshhold             Thresh  ...  1.000e-10
 Primitive cut-off               TCut    ...  1.000e-11
 Pre-screening matrix                    ... done
 Shell pair data                         ... 
 Ordering of the shell pairs             ... done (   0.006 sec) 35291 of 43071 pairs
 Determination of significant pairs      ... done (   0.000 sec)
 Creation of shell pair data             ... done (   0.003 sec)
 Storage of shell pair data              ... done (   0.007 sec)
 Shell pair data done in (   0.017 sec)
 Computing two index integrals           ... done
 Cholesky decomposition of the V-matrix  ... done


Timings:
 Total evaluation time                   ...   3.620 sec (  0.060 min)
 One electron matrix time                ...   2.784 sec (  0.046 min) = 76.9%
 Schwartz matrix evaluation time         ...   0.470 sec (  0.008 min) = 13.0%
 Two index repulsion integral time       ...   0.188 sec (  0.003 min) =  5.2%
 Cholesky decomposition of V             ...   0.133 sec (  0.002 min) =  3.7%
 Three index repulsion integral time     ...   0.000 sec (  0.000 min) =  0.0%



           ************************************************************
           *        Program running with 24 parallel MPI-processes    *
           *              working on a common directory               *
           ************************************************************
-------------------------------------------------------------------------------
                                 ORCA SCF
-------------------------------------------------------------------------------

------------
SCF SETTINGS
------------
Hamiltonian:
 Density Functional     Method          .... DFT(GTOs)
 Exchange Functional    Exchange        .... B88
   X-Alpha parameter    XAlpha          ....  0.666667
   Becke's b parameter  XBeta           ....  0.004200
 Correlation Functional Correlation     .... LYP
 LDA part of GGA corr.  LDAOpt          .... VWN-3
 Gradients option       PostSCFGGA      .... off
 Hybrid DFT is turned on
   Fraction HF Exchange ScalHFX         ....  0.530000
   Scaling of DF-GGA-X  ScalDFX         ....  0.470000
   Scaling of DF-GGA-C  ScalDFC         ....  0.730000
   Scaling of DF-LDA-C  ScalLDAC        ....  0.730000
   Perturbative correction              ....  0.270000
   Density functional embedding theory  .... OFF
 RI-approximation to the Coulomb term is turned on
   Number of auxiliary basis functions  .... 1774
   RI-JK (J+K treated both via RI)      .... on


General Settings:
 Integral files         IntName         .... TMB20_I1
 Hartree-Fock type      HFTyp           .... RHF
 Total Charge           Charge          ....    0
 Multiplicity           Mult            ....    1
 Number of Electrons    NEL             ....  160
 Basis Dimension        Dim             ....  825
 Nuclear Repulsion      ENuc            ....   1785.3687109308 Eh

Convergence Acceleration:
 DIIS                   CNVDIIS         .... on
   Start iteration      DIISMaxIt       ....    12
   Startup error        DIISStart       ....  0.200000
   # of expansion vecs  DIISMaxEq       ....     5
   Bias factor          DIISBfac        ....   1.050
   Max. coefficient     DIISMaxC        ....  10.000
 Newton-Raphson         CNVNR           .... off
 SOSCF                  CNVSOSCF        .... off
 Level Shifting         CNVShift        .... on
   Level shift para.    LevelShift      ....    0.2500
   Turn off err/grad.   ShiftErr        ....    0.0010
 Zerner damping         CNVZerner       .... off
 Static damping         CNVDamp         .... on
   Fraction old density DampFac         ....    0.7000
   Max. Damping (<1)    DampMax         ....    0.9800
   Min. Damping (>=0)   DampMin         ....    0.0000
   Turn off err/grad.   DampErr         ....    0.1000
 Fernandez-Rico         CNVRico         .... off

SCF Procedure:
 Maximum # iterations   MaxIter         ....   125
 SCF integral mode      SCFMode         .... Direct
   Integral package                     .... LIBINT
 Reset frequency        DirectResetFreq ....    20
 Integral Threshold     Thresh          ....  1.000e-10 Eh
 Primitive CutOff       TCut            ....  1.000e-11 Eh

Convergence Tolerance:
 Convergence Check Mode ConvCheckMode   .... Total+1el-Energy
 Convergence forced     ConvForced      .... 0
 Energy Change          TolE            ....  1.000e-06 Eh
 1-El. energy change                    ....  1.000e-03 Eh
 DIIS Error             TolErr          ....  1.000e-06


Diagonalization of the overlap matrix:
Smallest eigenvalue                        ... 7.418e-07
Time for diagonalization                   ...    0.138 sec
Threshold for overlap eigenvalues          ... 1.000e-08
Number of eigenvalues below threshold      ... 0
Time for construction of square roots      ...    0.085 sec
Total time needed                          ...    0.226 sec

-------------------
DFT GRID GENERATION
-------------------

General Integration Accuracy     IntAcc      ...  4.670
Radial Grid Type                 RadialGrid  ... Gauss-Chebyshev
Angular Grid (max. acc.)         AngularGrid ... Lebedev-302
Angular grid pruning method      GridPruning ... 3 (G Style)
Weight generation scheme         WeightScheme... Becke
Basis function cutoff            BFCut       ...    1.0000e-10
Integration weight cutoff        WCut        ...    1.0000e-14
Grids for H and He will be reduced by one unit

# of grid points (after initial pruning)     ... 141600 (   0.0 sec)
# of grid points (after weights+screening)   ... 127291 (   0.1 sec)
nearest neighbour list constructed           ...    0.0 sec
Grid point re-assignment to atoms done       ...    0.0 sec
Grid point division into batches done        ...    0.5 sec
Reduced shell lists constructed in    1.0 sec

Total number of grid points                  ...   127291
Total number of batches                      ...     2003
Average number of points per batch           ...       63
Average number of grid points per atom       ...     5092
Average number of shells per batch           ...   189.67 (64.73%)
Average number of basis functions per batch  ...   553.22 (67.06%)
Average number of large shells per batch     ...   147.91 (77.98%)
Average number of large basis fcns per batch ...   431.65 (78.02%)
Average number of aux-shells per batch       ...   189.67 (35.92%)
Average number of aux functions per batch    ...   553.22 (31.19%)
Maximum spatial batch extension              ...   1.91,  1.88,  1.64 au
Average spatial batch extension              ...   0.04,  0.04,  0.04 au

Time for grid setup =    1.139 sec

------------------------------
INITIAL GUESS: MODEL POTENTIAL
------------------------------
Loading Hartree-Fock densities                     ... done
  calling /sw/apps/orca/orca_4_2_0_linux_x86-64_openmpi314/orca TMB20_I1_atom75.inp > TMB20_I1_atom75.out in order to generate an atomic fitting density for atom 0 (Re with ECP) on-the-fly... 
    atom 0 (Re), assumed electronic state with S=6: 1s2 2s2 2p6 3s2 3p6 4s2 3d10 4p6 5s2 4d10 5p6 6s2 4f14 5d5           ... done
Calculating cut-offs                               ... done
Setting up the integral package                    ... done
Initializing the effective Hamiltonian             ... done
Starting the Coulomb interaction                   ... done (   0.1 sec)
Reading the grid                                   ... done
Mapping shells                                     ... done
Starting the XC term evaluation                    ... done (   0.4 sec)
  promolecular density results
     # of electrons  =    219.998605157
     EX              =   -521.839138856
     EC              =     -3.485290280
     EX+EC           =   -525.324429136
Transforming the Hamiltonian                       ... done (   0.1 sec)
Diagonalizing the Hamiltonian                      ... done (   0.1 sec)
Back transforming the eigenvectors                 ... done (   0.0 sec)
Now organizing SCF variables                       ... done
                      ------------------
                      INITIAL GUESS DONE (   3.2 sec)
                      ------------------
--------------
SCF ITERATIONS
--------------
ITER       Energy         Delta-E        Max-DP      RMS-DP      [F,P]     Damp
  0  -3449.0548474905   0.000000000000 0.53990541  0.00245153  0.3481161 0.7000
  1  -3448.9237204910   0.131126999496 0.37447598  0.00195378  0.2659638 0.7000
                               ***Turning on DIIS***
  2  -3449.0793420217  -0.155621530726 0.20634786  0.00146398  0.1913775 0.7000
  3  -3449.3507887405  -0.271446718796 0.21764662  0.00112359  0.1304655 0.7000
  4  -3449.5571434148  -0.206354674232 0.44884297  0.00243250  0.0851585 0.0000
  5  -3449.7084106604  -0.151267245636 0.08707800  0.00036243  0.0374872 0.0000
  6  -3449.7182480822  -0.009837421830 0.03452770  0.00015914  0.0044892 0.0000
  7  -3449.7185611237  -0.000313041498 0.01025927  0.00005834  0.0025290 0.0000
  8  -3449.7186401233  -0.000078999536 0.03032298  0.00008065  0.0016755 0.0000
  9  -3449.7186684549  -0.000028331659 0.01433954  0.00005617  0.0006930 0.0000
 10  -3449.7186741294  -0.000005674485 0.01338476  0.00004645  0.0007299 0.0000
 11  -3449.7186766684  -0.000002539004 0.02808087  0.00008121  0.0002198 0.0000
 12  -3449.7186771749  -0.000000506537 0.01200576  0.00004769  0.0001175 0.0000
                 **** Energy Check signals convergence ****

               *****************************************************
               *                     SUCCESS                       *
               *           SCF CONVERGED AFTER  13 CYCLES          *
               *****************************************************


----------------
TOTAL SCF ENERGY
----------------

Total Energy       :        -3449.71867725 Eh          -93871.61755 eV

Components:
Nuclear Repulsion  :         1785.36871093 Eh           48582.35250 eV
Electronic Energy  :        -5235.08738818 Eh         -142453.97005 eV
One Electron Energy:        -8361.74904731 Eh         -227534.75922 eV
Two Electron Energy:         3126.66165912 Eh           85080.78917 eV

Virial components:
Potential Energy   :        -6843.24537738 Eh         -186214.17366 eV
Kinetic Energy     :         3393.52670013 Eh           92342.55612 eV
Virial Ratio       :            2.01655858


DFT components:
N(Alpha)           :       80.000053143859 electrons
N(Beta)            :       80.000053143859 electrons
N(Total)           :      160.000106287717 electrons
E(X)               :      -92.577119485854 Eh       
E(C)               :       -4.442909778203 Eh       
E(XC)              :      -97.020029264057 Eh       
DFET-embed. en.    :        0.000000000000 Eh       

---------------
SCF CONVERGENCE
---------------

  Last Energy change         ...   -7.5540e-08  Tolerance :   1.0000e-06
  Last MAX-Density change    ...    3.1652e-02  Tolerance :   1.0000e-05
  Last RMS-Density change    ...    8.2129e-05  Tolerance :   1.0000e-06
  Last DIIS Error            ...    6.4592e-05  Tolerance :   1.0000e-06

             **** THE GBW FILE WAS UPDATED (TMB20_I1.gbw) ****
             **** DENSITY FILE WAS UPDATED (TMB20_I1.scfp) ****
             **** ENERGY FILE WAS UPDATED (TMB20_I1.en.tmp) ****
             **** THE GBW FILE WAS UPDATED (TMB20_I1.gbw) ****
             **** DENSITY FILE WAS UPDATED (TMB20_I1.scfp) ****
----------------
ORBITAL ENERGIES
----------------

  NO   OCC          E(Eh)            E(eV) 
   0   2.0000    -485.809611    -13219.5516 
   1   2.0000     -63.560781     -1729.5768 
   2   2.0000     -57.183897     -1556.0529 
   3   2.0000     -57.182666     -1556.0194 
   4   2.0000     -57.182404     -1556.0123 
   5   2.0000     -19.836232      -539.7713 
   6   2.0000     -19.829090      -539.5770 
   7   2.0000     -19.818490      -539.2885 
   8   2.0000     -19.813960      -539.1653 
   9   2.0000     -19.812158      -539.1162 
  10   2.0000     -19.754036      -537.5347 
  11   2.0000     -10.792503      -293.6789 
  12   2.0000     -10.771099      -293.0965 
  13   2.0000     -10.770820      -293.0889 
  14   2.0000     -10.769166      -293.0439 
  15   2.0000     -10.727906      -291.9212 
  16   2.0000     -10.695721      -291.0454 
  17   2.0000     -10.667345      -290.2732 
  18   2.0000     -10.621298      -289.0202 
  19   2.0000     -10.603686      -288.5410 
  20   2.0000      -9.121054      -248.1965 
  21   2.0000      -6.857358      -186.5982 
  22   2.0000      -6.852880      -186.4763 
  23   2.0000      -6.852012      -186.4527 
  24   2.0000      -3.450665       -93.8974 
  25   2.0000      -2.817560       -76.6697 
  26   2.0000      -2.816272       -76.6347 
  27   2.0000      -2.815492       -76.6134 
  28   2.0000      -2.811258       -76.4982 
  29   2.0000      -2.811228       -76.4974 
  30   2.0000      -1.948010       -53.0080 
  31   2.0000      -1.943903       -52.8963 
  32   2.0000      -1.933780       -52.6208 
  33   2.0000      -1.317893       -35.8617 
  34   2.0000      -1.311404       -35.6851 
  35   2.0000      -1.303353       -35.4660 
  36   2.0000      -1.300783       -35.3961 
  37   2.0000      -1.255007       -34.1505 
  38   2.0000      -1.203147       -32.7393 
  39   2.0000      -0.967677       -26.3318 
  40   2.0000      -0.874987       -23.8096 
  41   2.0000      -0.840028       -22.8583 
  42   2.0000      -0.823925       -22.4201 
  43   2.0000      -0.785514       -21.3749 
  44   2.0000      -0.712087       -19.3769 
  45   2.0000      -0.700801       -19.0698 
  46   2.0000      -0.688943       -18.7471 
  47   2.0000      -0.682001       -18.5582 
  48   2.0000      -0.667189       -18.1551 
  49   2.0000      -0.635660       -17.2972 
  50   2.0000      -0.624582       -16.9958 
  51   2.0000      -0.617015       -16.7898 
  52   2.0000      -0.599233       -16.3060 
  53   2.0000      -0.598534       -16.2869 
  54   2.0000      -0.588891       -16.0245 
  55   2.0000      -0.580292       -15.7905 
  56   2.0000      -0.565901       -15.3990 
  57   2.0000      -0.565113       -15.3775 
  58   2.0000      -0.561348       -15.2751 
  59   2.0000      -0.557502       -15.1704 
  60   2.0000      -0.553709       -15.0672 
  61   2.0000      -0.539877       -14.6908 
  62   2.0000      -0.536666       -14.6034 
  63   2.0000      -0.532513       -14.4904 
  64   2.0000      -0.517223       -14.0744 
  65   2.0000      -0.503047       -13.6886 
  66   2.0000      -0.498141       -13.5551 
  67   2.0000      -0.469484       -12.7753 
  68   2.0000      -0.453280       -12.3344 
  69   2.0000      -0.447608       -12.1800 
  70   2.0000      -0.413279       -11.2459 
  71   2.0000      -0.406484       -11.0610 
  72   2.0000      -0.382846       -10.4178 
  73   2.0000      -0.365326        -9.9410 
  74   2.0000      -0.357262        -9.7216 
  75   2.0000      -0.339853        -9.2479 
  76   2.0000      -0.324315        -8.8250 
  77   2.0000      -0.306379        -8.3370 
  78   2.0000      -0.292142        -7.9496 
  79   2.0000      -0.278807        -7.5867 
  80   0.0000      -0.041007        -1.1159 
  81   0.0000      -0.003009        -0.0819 
  82   0.0000       0.008874         0.2415 
  83   0.0000       0.022972         0.6251 
  84   0.0000       0.030413         0.8276 
  85   0.0000       0.032783         0.8921 
  86   0.0000       0.033937         0.9235 
  87   0.0000       0.037835         1.0295 
  88   0.0000       0.039527         1.0756 
  89   0.0000       0.045643         1.2420 
  90   0.0000       0.047214         1.2848 
  91   0.0000       0.051060         1.3894 
  92   0.0000       0.054144         1.4733 
  93   0.0000       0.060739         1.6528 
  94   0.0000       0.062118         1.6903 
  95   0.0000       0.065325         1.7776 
  96   0.0000       0.067357         1.8329 
  97   0.0000       0.075596         2.0571 
  98   0.0000       0.079649         2.1674 
  99   0.0000       0.082315         2.2399 
 100   0.0000       0.085625         2.3300 
 101   0.0000       0.089661         2.4398 
 102   0.0000       0.090715         2.4685 
 103   0.0000       0.093843         2.5536 
 104   0.0000       0.099683         2.7125 
 105   0.0000       0.101079         2.7505 
 106   0.0000       0.103260         2.8098 
 107   0.0000       0.108802         2.9607 
 108   0.0000       0.109835         2.9888 
 109   0.0000       0.116183         3.1615 
 110   0.0000       0.118774         3.2320 
 111   0.0000       0.120269         3.2727 
 112   0.0000       0.129690         3.5290 
 113   0.0000       0.137574         3.7436 
 114   0.0000       0.140496         3.8231 
 115   0.0000       0.144779         3.9396 
 116   0.0000       0.150506         4.0955 
 117   0.0000       0.153119         4.1666 
 118   0.0000       0.154311         4.1990 
 119   0.0000       0.162903         4.4328 
 120   0.0000       0.168978         4.5981 
 121   0.0000       0.172706         4.6996 
 122   0.0000       0.175358         4.7717 
 123   0.0000       0.179264         4.8780 
 124   0.0000       0.181069         4.9271 
 125   0.0000       0.186544         5.0761 
 126   0.0000       0.190088         5.1726 
 127   0.0000       0.194444         5.2911 
 128   0.0000       0.196323         5.3422 
 129   0.0000       0.206294         5.6136 
 130   0.0000       0.209203         5.6927 
 131   0.0000       0.212450         5.7811 
 132   0.0000       0.219245         5.9660 
 133   0.0000       0.223175         6.0729 
 134   0.0000       0.226105         6.1526 
 135   0.0000       0.232324         6.3219 
 136   0.0000       0.235487         6.4079 
 137   0.0000       0.237608         6.4656 
 138   0.0000       0.241088         6.5603 
 139   0.0000       0.247942         6.7469 
 140   0.0000       0.250781         6.8241 
 141   0.0000       0.255668         6.9571 
 142   0.0000       0.259838         7.0705 
 143   0.0000       0.261426         7.1138 
 144   0.0000       0.261676         7.1206 
 145   0.0000       0.264847         7.2069 
 146   0.0000       0.269139         7.3236 
 147   0.0000       0.271607         7.3908 
 148   0.0000       0.274587         7.4719 
 149   0.0000       0.278597         7.5810 
 150   0.0000       0.279576         7.6076 
 151   0.0000       0.284550         7.7430 
 152   0.0000       0.288940         7.8625 
 153   0.0000       0.293982         7.9996 
 154   0.0000       0.297617         8.0986 
 155   0.0000       0.300191         8.1686 
 156   0.0000       0.302194         8.2231 
 157   0.0000       0.305854         8.3227 
 158   0.0000       0.311568         8.4782 
 159   0.0000       0.315228         8.5778 
 160   0.0000       0.318202         8.6587 
 161   0.0000       0.324231         8.8228 
 162   0.0000       0.326129         8.8744 
 163   0.0000       0.327535         8.9127 
 164   0.0000       0.331720         9.0266 
 165   0.0000       0.332842         9.0571 
 166   0.0000       0.337569         9.1857 
 167   0.0000       0.338955         9.2234 
 168   0.0000       0.343347         9.3430 
 169   0.0000       0.348065         9.4713 
 170   0.0000       0.349705         9.5160 
 171   0.0000       0.353636         9.6229 
 172   0.0000       0.359329         9.7778 
 173   0.0000       0.362250         9.8573 
 174   0.0000       0.364049         9.9063 
 175   0.0000       0.367768        10.0075 
 176   0.0000       0.368857        10.0371 
 177   0.0000       0.371803        10.1173 
 178   0.0000       0.378186        10.2910 
 179   0.0000       0.385273        10.4838 
 180   0.0000       0.387429        10.5425 
 181   0.0000       0.394804        10.7432 
 182   0.0000       0.398402        10.8411 
 183   0.0000       0.400532        10.8990 
 184   0.0000       0.402111        10.9420 
 185   0.0000       0.406607        11.0643 
 186   0.0000       0.407083        11.0773 
 187   0.0000       0.411779        11.2051 
 188   0.0000       0.415228        11.2989 
 189   0.0000       0.418553        11.3894 
 190   0.0000       0.424302        11.5459 
 191   0.0000       0.428672        11.6647 
 192   0.0000       0.432891        11.7796 
 193   0.0000       0.439070        11.9477 
 194   0.0000       0.446029        12.1371 
 195   0.0000       0.447240        12.1700 
 196   0.0000       0.447906        12.1882 
 197   0.0000       0.452285        12.3073 
 198   0.0000       0.460010        12.5175 
 199   0.0000       0.467952        12.7336 
 200   0.0000       0.468512        12.7489 
 201   0.0000       0.472273        12.8512 
 202   0.0000       0.473494        12.8844 
 203   0.0000       0.477835        13.0026 
 204   0.0000       0.485509        13.2114 
 205   0.0000       0.487655        13.2698 
 206   0.0000       0.491935        13.3862 
 207   0.0000       0.502543        13.6749 
 208   0.0000       0.505533        13.7563 
 209   0.0000       0.506737        13.7890 
 210   0.0000       0.511728        13.9248 
 211   0.0000       0.515258        14.0209 
 212   0.0000       0.521515        14.1911 
 213   0.0000       0.522456        14.2168 
 214   0.0000       0.528011        14.3679 
 215   0.0000       0.533103        14.5065 
 216   0.0000       0.537539        14.6272 
 217   0.0000       0.539575        14.6826 
 218   0.0000       0.543777        14.7969 
 219   0.0000       0.550001        14.9663 
 220   0.0000       0.555243        15.1089 
 221   0.0000       0.561441        15.2776 
 222   0.0000       0.563727        15.3398 
 223   0.0000       0.566580        15.4174 
 224   0.0000       0.570364        15.5204 
 225   0.0000       0.573113        15.5952 
 226   0.0000       0.575869        15.6702 
 227   0.0000       0.581974        15.8363 
 228   0.0000       0.584114        15.8945 
 229   0.0000       0.589464        16.0401 
 230   0.0000       0.593306        16.1447 
 231   0.0000       0.600692        16.3456 
 232   0.0000       0.602798        16.4030 
 233   0.0000       0.611677        16.6446 
 234   0.0000       0.612448        16.6655 
 235   0.0000       0.615910        16.7598 
 236   0.0000       0.619953        16.8698 
 237   0.0000       0.626173        17.0390 
 238   0.0000       0.629031        17.1168 
 239   0.0000       0.633605        17.2413 
 240   0.0000       0.637244        17.3403 
 241   0.0000       0.642189        17.4749 
 242   0.0000       0.645342        17.5606 
 243   0.0000       0.646370        17.5886 
 244   0.0000       0.655778        17.8446 
 245   0.0000       0.657376        17.8881 
 246   0.0000       0.666465        18.1354 
 247   0.0000       0.666788        18.1442 
 248   0.0000       0.671309        18.2673 
 249   0.0000       0.672522        18.3003 
 250   0.0000       0.675900        18.3922 
 251   0.0000       0.679523        18.4908 
 252   0.0000       0.686895        18.6914 
 253   0.0000       0.691226        18.8092 
 254   0.0000       0.695905        18.9365 
 255   0.0000       0.698496        19.0070 
 256   0.0000       0.703088        19.1320 
 257   0.0000       0.705411        19.1952 
 258   0.0000       0.711133        19.3509 
 259   0.0000       0.713244        19.4084 
 260   0.0000       0.715477        19.4691 
 261   0.0000       0.722823        19.6690 
 262   0.0000       0.724284        19.7088 
 263   0.0000       0.731774        19.9126 
 264   0.0000       0.733029        19.9467 
 265   0.0000       0.741487        20.1769 
 266   0.0000       0.744623        20.2622 
 267   0.0000       0.752538        20.4776 
 268   0.0000       0.754103        20.5202 
 269   0.0000       0.755748        20.5649 
 270   0.0000       0.758440        20.6382 
 271   0.0000       0.762729        20.7549 
 272   0.0000       0.772282        21.0149 
 273   0.0000       0.775212        21.0946 
 274   0.0000       0.776436        21.1279 
 275   0.0000       0.779616        21.2144 
 276   0.0000       0.789338        21.4790 
 277   0.0000       0.795675        21.6514 
 278   0.0000       0.795943        21.6587 
 279   0.0000       0.801435        21.8082 
 280   0.0000       0.802694        21.8424 
 281   0.0000       0.805509        21.9190 
 282   0.0000       0.809642        22.0315 
 283   0.0000       0.813272        22.1303 
 284   0.0000       0.818092        22.2614 
 285   0.0000       0.819409        22.2972 
 286   0.0000       0.827287        22.5116 
 287   0.0000       0.836549        22.7637 
 288   0.0000       0.839548        22.8453 
 289   0.0000       0.841675        22.9031 
 290   0.0000       0.847080        23.0502 
 291   0.0000       0.849352        23.1120 
 292   0.0000       0.856077        23.2950 
 293   0.0000       0.860159        23.4061 
 294   0.0000       0.861384        23.4395 
 295   0.0000       0.873595        23.7717 
 296   0.0000       0.876783        23.8585 
 297   0.0000       0.879013        23.9192 
 298   0.0000       0.884905        24.0795 
 299   0.0000       0.895560        24.3694 
 300   0.0000       0.899172        24.4677 
 301   0.0000       0.907275        24.6882 
 302   0.0000       0.913592        24.8601 
 303   0.0000       0.918588        24.9960 
 304   0.0000       0.922928        25.1141 
 305   0.0000       0.924785        25.1647 
 306   0.0000       0.935328        25.4516 
 307   0.0000       0.939328        25.5604 
 308   0.0000       0.944977        25.7141 
 309   0.0000       0.949605        25.8401 
 310   0.0000       0.952818        25.9275 
 311   0.0000       0.963459        26.2171 
 312   0.0000       0.965447        26.2711 
 313   0.0000       0.971945        26.4480 
 314   0.0000       0.984768        26.7969 
 315   0.0000       0.988463        26.8974 
 316   0.0000       0.993734        27.0409 
 317   0.0000       1.004542        27.3350 
 318   0.0000       1.010666        27.5016 
 319   0.0000       1.021139        27.7866 
 320   0.0000       1.023642        27.8547 
 321   0.0000       1.034052        28.1380 
 322   0.0000       1.042834        28.3769 
 323   0.0000       1.052153        28.6305 
 324   0.0000       1.054855        28.7041 
 325   0.0000       1.061793        28.8929 
 326   0.0000       1.065366        28.9901 
 327   0.0000       1.073342        29.2071 
 328   0.0000       1.076788        29.3009 
 329   0.0000       1.086104        29.5544 
 330   0.0000       1.094112        29.7723 
 331   0.0000       1.101877        29.9836 
 332   0.0000       1.103344        30.0235 
 333   0.0000       1.112081        30.2613 
 334   0.0000       1.113136        30.2900 
 335   0.0000       1.115328        30.3496 
 336   0.0000       1.130416        30.7602 
 337   0.0000       1.133113        30.8336 
 338   0.0000       1.142343        31.0847 
 339   0.0000       1.147802        31.2333 
 340   0.0000       1.152405        31.3585 
 341   0.0000       1.154787        31.4234 
 342   0.0000       1.176317        32.0092 
 343   0.0000       1.183007        32.1912 
 344   0.0000       1.188492        32.3405 
 345   0.0000       1.205555        32.8048 
 346   0.0000       1.208561        32.8866 
 347   0.0000       1.218365        33.1534 
 348   0.0000       1.225072        33.3359 
 349   0.0000       1.232600        33.5407 
 350   0.0000       1.235206        33.6117 
 351   0.0000       1.245499        33.8917 
 352   0.0000       1.250648        34.0319 
 353   0.0000       1.254581        34.1389 
 354   0.0000       1.265365        34.4323 
 355   0.0000       1.269969        34.5576 
 356   0.0000       1.279461        34.8159 
 357   0.0000       1.284853        34.9626 
 358   0.0000       1.288033        35.0492 
 359   0.0000       1.305210        35.5166 
 360   0.0000       1.311919        35.6991 
 361   0.0000       1.323273        36.0081 
 362   0.0000       1.327581        36.1253 
 363   0.0000       1.334090        36.3024 
 364   0.0000       1.345494        36.6127 
 365   0.0000       1.348186        36.6860 
 366   0.0000       1.352627        36.8068 
 367   0.0000       1.364898        37.1408 
 368   0.0000       1.374135        37.3921 
 369   0.0000       1.381692        37.5977 
 370   0.0000       1.390155        37.8280 
 371   0.0000       1.391135        37.8547 
 372   0.0000       1.405307        38.2404 
 373   0.0000       1.410363        38.3779 
 374   0.0000       1.418483        38.5989 
 375   0.0000       1.422167        38.6991 
 376   0.0000       1.430598        38.9286 
 377   0.0000       1.443953        39.2920 
 378   0.0000       1.446866        39.3712 
 379   0.0000       1.457006        39.6471 
 380   0.0000       1.464401        39.8484 
 381   0.0000       1.472413        40.0664 
 382   0.0000       1.475564        40.1521 
 383   0.0000       1.483791        40.3760 
 384   0.0000       1.495642        40.6985 
 385   0.0000       1.506290        40.9882 
 386   0.0000       1.515623        41.2422 
 387   0.0000       1.528089        41.5814 
 388   0.0000       1.529132        41.6098 
 389   0.0000       1.546474        42.0817 
 390   0.0000       1.549080        42.1526 
 391   0.0000       1.557818        42.3904 
 392   0.0000       1.565112        42.5889 
 393   0.0000       1.577056        42.9139 
 394   0.0000       1.588636        43.2290 
 395   0.0000       1.596583        43.4452 
 396   0.0000       1.610769        43.8313 
 397   0.0000       1.617388        44.0114 
 398   0.0000       1.626726        44.2655 
 399   0.0000       1.640735        44.6467 
 400   0.0000       1.642989        44.7080 
 401   0.0000       1.655329        45.0438 
 402   0.0000       1.667117        45.3646 
 403   0.0000       1.669814        45.4379 
 404   0.0000       1.676022        45.6069 
 405   0.0000       1.692520        46.0558 
 406   0.0000       1.693660        46.0868 
 407   0.0000       1.699623        46.2491 
 408   0.0000       1.710476        46.5444 
 409   0.0000       1.717305        46.7302 
 410   0.0000       1.721723        46.8505 
 411   0.0000       1.729797        47.0702 
 412   0.0000       1.736406        47.2500 
 413   0.0000       1.751054        47.6486 
 414   0.0000       1.761165        47.9237 
 415   0.0000       1.775428        48.3118 
 416   0.0000       1.786048        48.6008 
 417   0.0000       1.805344        49.1259 
 418   0.0000       1.812206        49.3126 
 419   0.0000       1.823501        49.6200 
 420   0.0000       1.836564        49.9755 
 421   0.0000       1.839675        50.0601 
 422   0.0000       1.848811        50.3087 
 423   0.0000       1.863669        50.7130 
 424   0.0000       1.865713        50.7686 
 425   0.0000       1.872673        50.9580 
 426   0.0000       1.882192        51.2170 
 427   0.0000       1.889963        51.4285 
 428   0.0000       1.891724        51.4764 
 429   0.0000       1.898698        51.6662 
 430   0.0000       1.904028        51.8112 
 431   0.0000       1.909226        51.9527 
 432   0.0000       1.917639        52.1816 
 433   0.0000       1.930097        52.5206 
 434   0.0000       1.931055        52.5467 
 435   0.0000       1.940253        52.7970 
 436   0.0000       1.942758        52.8651 
 437   0.0000       1.947081        52.9828 
 438   0.0000       1.952844        53.1396 
 439   0.0000       1.962854        53.4120 
 440   0.0000       1.967455        53.5372 
 441   0.0000       1.976809        53.7917 
 442   0.0000       1.985660        54.0326 
 443   0.0000       1.997941        54.3667 
 444   0.0000       2.005534        54.5734 
 445   0.0000       2.012660        54.7673 
 446   0.0000       2.014846        54.8267 
 447   0.0000       2.019604        54.9562 
 448   0.0000       2.030880        55.2631 
 449   0.0000       2.040926        55.5364 
 450   0.0000       2.051118        55.8137 
 451   0.0000       2.056246        55.9533 
 452   0.0000       2.064930        56.1896 
 453   0.0000       2.089384        56.8550 
 454   0.0000       2.096944        57.0607 
 455   0.0000       2.117013        57.6069 
 456   0.0000       2.130101        57.9630 
 457   0.0000       2.136739        58.1436 
 458   0.0000       2.145887        58.3926 
 459   0.0000       2.173208        59.1360 
 460   0.0000       2.177595        59.2554 
 461   0.0000       2.180502        59.3345 
 462   0.0000       2.187561        59.5266 
 463   0.0000       2.211927        60.1896 
 464   0.0000       2.231393        60.7193 
 465   0.0000       2.238252        60.9059 
 466   0.0000       2.250076        61.2277 
 467   0.0000       2.256672        61.4072 
 468   0.0000       2.283633        62.1408 
 469   0.0000       2.292209        62.3742 
 470   0.0000       2.293575        62.4114 
 471   0.0000       2.306910        62.7742 
 472   0.0000       2.309551        62.8461 
 473   0.0000       2.324762        63.2600 
 474   0.0000       2.336527        63.5801 
 475   0.0000       2.354656        64.0734 
 476   0.0000       2.354768        64.0765 
 477   0.0000       2.369579        64.4795 
 478   0.0000       2.376501        64.6679 
 479   0.0000       2.405592        65.4595 
 480   0.0000       2.417364        65.7798 
 481   0.0000       2.427747        66.0624 
 482   0.0000       2.438184        66.3464 
 483   0.0000       2.451033        66.6960 
 484   0.0000       2.455436        66.8158 
 485   0.0000       2.468528        67.1721 
 486   0.0000       2.484267        67.6003 
 487   0.0000       2.495678        67.9109 
 488   0.0000       2.516467        68.4766 
 489   0.0000       2.518697        68.5372 
 490   0.0000       2.527696        68.7821 
 491   0.0000       2.541601        69.1605 
 492   0.0000       2.558406        69.6178 
 493   0.0000       2.573476        70.0278 
 494   0.0000       2.575345        70.0787 
 495   0.0000       2.597133        70.6716 
 496   0.0000       2.605175        70.8904 
 497   0.0000       2.615657        71.1757 
 498   0.0000       2.618299        71.2475 
 499   0.0000       2.632176        71.6251 
 500   0.0000       2.659498        72.3686 
 501   0.0000       2.687040        73.1181 
 502   0.0000       2.713972        73.8509 
 503   0.0000       2.723394        74.1073 
 504   0.0000       2.734328        74.4049 
 505   0.0000       2.738682        74.5233 
 506   0.0000       2.752128        74.8892 
 507   0.0000       2.765019        75.2400 
 508   0.0000       2.769159        75.3526 
 509   0.0000       2.799437        76.1766 
 510   0.0000       2.800972        76.2183 
 511   0.0000       2.816986        76.6541 
 512   0.0000       2.825007        76.8724 
 513   0.0000       2.841492        77.3209 
 514   0.0000       2.855899        77.7130 
 515   0.0000       2.856774        77.7368 
 516   0.0000       2.868304        78.0505 
 517   0.0000       2.871953        78.1498 
 518   0.0000       2.888917        78.6114 
 519   0.0000       2.896798        78.8259 
 520   0.0000       2.909332        79.1669 
 521   0.0000       2.914939        79.3195 
 522   0.0000       2.928309        79.6833 
 523   0.0000       2.943504        80.0968 
 524   0.0000       2.961193        80.5782 
 525   0.0000       2.966679        80.7274 
 526   0.0000       2.970236        80.8242 
 527   0.0000       2.986527        81.2675 
 528   0.0000       2.995755        81.5186 
 529   0.0000       3.017122        82.1001 
 530   0.0000       3.021393        82.2163 
 531   0.0000       3.022050        82.2342 
 532   0.0000       3.038060        82.6698 
 533   0.0000       3.044462        82.8440 
 534   0.0000       3.051123        83.0253 
 535   0.0000       3.058194        83.2177 
 536   0.0000       3.066348        83.4396 
 537   0.0000       3.081189        83.8434 
 538   0.0000       3.088182        84.0337 
 539   0.0000       3.101433        84.3943 
 540   0.0000       3.114748        84.7566 
 541   0.0000       3.119122        84.8756 
 542   0.0000       3.127211        85.0957 
 543   0.0000       3.133116        85.2564 
 544   0.0000       3.136635        85.3522 
 545   0.0000       3.147080        85.6364 
 546   0.0000       3.167005        86.1786 
 547   0.0000       3.179099        86.5077 
 548   0.0000       3.185892        86.6925 
 549   0.0000       3.192850        86.8819 
 550   0.0000       3.204904        87.2099 
 551   0.0000       3.214146        87.4614 
 552   0.0000       3.221823        87.6703 
 553   0.0000       3.230144        87.8967 
 554   0.0000       3.234025        88.0023 
 555   0.0000       3.240889        88.1891 
 556   0.0000       3.249205        88.4153 
 557   0.0000       3.252564        88.5068 
 558   0.0000       3.258443        88.6667 
 559   0.0000       3.266455        88.8848 
 560   0.0000       3.278571        89.2145 
 561   0.0000       3.285039        89.3905 
 562   0.0000       3.300722        89.8172 
 563   0.0000       3.316756        90.2535 
 564   0.0000       3.326014        90.5054 
 565   0.0000       3.337157        90.8086 
 566   0.0000       3.341152        90.9174 
 567   0.0000       3.342980        90.9671 
 568   0.0000       3.366325        91.6024 
 569   0.0000       3.373468        91.7967 
 570   0.0000       3.378417        91.9314 
 571   0.0000       3.388938        92.2177 
 572   0.0000       3.398473        92.4771 
 573   0.0000       3.405897        92.6792 
 574   0.0000       3.413389        92.8830 
 575   0.0000       3.424695        93.1907 
 576   0.0000       3.430491        93.3484 
 577   0.0000       3.446312        93.7789 
 578   0.0000       3.447620        93.8145 
 579   0.0000       3.462243        94.2124 
 580   0.0000       3.473009        94.5054 
 581   0.0000       3.476594        94.6029 
 582   0.0000       3.482116        94.7532 
 583   0.0000       3.488807        94.9353 
 584   0.0000       3.503751        95.3419 
 585   0.0000       3.507133        95.4340 
 586   0.0000       3.517949        95.7283 
 587   0.0000       3.529499        96.0426 
 588   0.0000       3.543137        96.4137 
 589   0.0000       3.548486        96.5592 
 590   0.0000       3.555916        96.7614 
 591   0.0000       3.558009        96.8184 
 592   0.0000       3.575053        97.2821 
 593   0.0000       3.580161        97.4211 
 594   0.0000       3.586032        97.5809 
 595   0.0000       3.590923        97.7140 
 596   0.0000       3.606935        98.1497 
 597   0.0000       3.608115        98.1818 
 598   0.0000       3.617410        98.4347 
 599   0.0000       3.642050        99.1052 
 600   0.0000       3.647356        99.2496 
 601   0.0000       3.651624        99.3657 
 602   0.0000       3.654720        99.4500 
 603   0.0000       3.669066        99.8404 
 604   0.0000       3.677358       100.0660 
 605   0.0000       3.685182       100.2789 
 606   0.0000       3.691566       100.4526 
 607   0.0000       3.694387       100.5294 
 608   0.0000       3.709070       100.9289 
 609   0.0000       3.715844       101.1132 
 610   0.0000       3.726132       101.3932 
 611   0.0000       3.737716       101.7084 
 612   0.0000       3.738854       101.7394 
 613   0.0000       3.748479       102.0013 
 614   0.0000       3.765905       102.4755 
 615   0.0000       3.775995       102.7500 
 616   0.0000       3.781240       102.8928 
 617   0.0000       3.792156       103.1898 
 618   0.0000       3.802462       103.4703 
 619   0.0000       3.809844       103.6711 
 620   0.0000       3.832540       104.2887 
 621   0.0000       3.840827       104.5142 
 622   0.0000       3.864659       105.1627 
 623   0.0000       3.891464       105.8921 
 624   0.0000       3.894094       105.9637 
 625   0.0000       3.905491       106.2738 
 626   0.0000       3.914154       106.5096 
 627   0.0000       3.927111       106.8621 
 628   0.0000       3.937791       107.1528 
 629   0.0000       3.946943       107.4018 
 630   0.0000       3.968866       107.9983 
 631   0.0000       3.992802       108.6497 
 632   0.0000       4.013096       109.2019 
 633   0.0000       4.019637       109.3799 
 634   0.0000       4.025816       109.5480 
 635   0.0000       4.037945       109.8781 
 636   0.0000       4.050948       110.2319 
 637   0.0000       4.056186       110.3744 
 638   0.0000       4.076097       110.9162 
 639   0.0000       4.086487       111.1990 
 640   0.0000       4.091845       111.3448 
 641   0.0000       4.118444       112.0686 
 642   0.0000       4.126998       112.3013 
 643   0.0000       4.142108       112.7125 
 644   0.0000       4.147553       112.8607 
 645   0.0000       4.174483       113.5935 
 646   0.0000       4.192020       114.0707 
 647   0.0000       4.202610       114.3588 
 648   0.0000       4.206406       114.4621 
 649   0.0000       4.211826       114.6096 
 650   0.0000       4.227146       115.0265 
 651   0.0000       4.234410       115.2242 
 652   0.0000       4.242711       115.4500 
 653   0.0000       4.251327       115.6845 
 654   0.0000       4.262482       115.9880 
 655   0.0000       4.268944       116.1639 
 656   0.0000       4.294549       116.8606 
 657   0.0000       4.311897       117.3327 
 658   0.0000       4.332883       117.9037 
 659   0.0000       4.336717       118.0081 
 660   0.0000       4.367872       118.8558 
 661   0.0000       4.386806       119.3711 
 662   0.0000       4.389662       119.4488 
 663   0.0000       4.404063       119.8407 
 664   0.0000       4.418796       120.2416 
 665   0.0000       4.428600       120.5083 
 666   0.0000       4.446072       120.9838 
 667   0.0000       4.450984       121.1174 
 668   0.0000       4.459528       121.3499 
 669   0.0000       4.468528       121.5948 
 670   0.0000       4.480668       121.9252 
 671   0.0000       4.498889       122.4210 
 672   0.0000       4.511989       122.7775 
 673   0.0000       4.525297       123.1396 
 674   0.0000       4.549237       123.7910 
 675   0.0000       4.551738       123.8591 
 676   0.0000       4.558422       124.0410 
 677   0.0000       4.572596       124.4267 
 678   0.0000       4.584870       124.7606 
 679   0.0000       4.595351       125.0459 
 680   0.0000       4.622270       125.7784 
 681   0.0000       4.638553       126.2215 
 682   0.0000       4.657268       126.7307 
 683   0.0000       4.661205       126.8378 
 684   0.0000       4.685317       127.4940 
 685   0.0000       4.705966       128.0558 
 686   0.0000       4.718650       128.4010 
 687   0.0000       4.733742       128.8117 
 688   0.0000       4.747369       129.1825 
 689   0.0000       4.760506       129.5399 
 690   0.0000       4.780791       130.0919 
 691   0.0000       4.798237       130.5667 
 692   0.0000       4.812434       130.9530 
 693   0.0000       4.838302       131.6569 
 694   0.0000       4.879266       132.7716 
 695   0.0000       4.930804       134.1740 
 696   0.0000       4.947123       134.6181 
 697   0.0000       4.963958       135.0762 
 698   0.0000       5.008122       136.2779 
 699   0.0000       5.032473       136.9406 
 700   0.0000       5.073409       138.0545 
 701   0.0000       5.087592       138.4404 
 702   0.0000       5.102588       138.8485 
 703   0.0000       5.117868       139.2643 
 704   0.0000       5.133066       139.6778 
 705   0.0000       5.161783       140.4593 
 706   0.0000       5.188498       141.1862 
 707   0.0000       5.203679       141.5993 
 708   0.0000       5.214297       141.8882 
 709   0.0000       5.231347       142.3522 
 710   0.0000       5.256029       143.0238 
 711   0.0000       5.257362       143.0601 
 712   0.0000       5.261743       143.1793 
 713   0.0000       5.269447       143.3889 
 714   0.0000       5.270934       143.4294 
 715   0.0000       5.274752       143.5333 
 716   0.0000       5.277428       143.6061 
 717   0.0000       5.279323       143.6577 
 718   0.0000       5.298502       144.1796 
 719   0.0000       5.317451       144.6952 
 720   0.0000       5.337156       145.2314 
 721   0.0000       5.361650       145.8979 
 722   0.0000       5.371288       146.1602 
 723   0.0000       5.389024       146.6428 
 724   0.0000       5.406429       147.1164 
 725   0.0000       5.419111       147.4615 
 726   0.0000       5.441234       148.0635 
 727   0.0000       5.445015       148.1664 
 728   0.0000       5.488035       149.3370 
 729   0.0000       5.517952       150.1511 
 730   0.0000       5.544520       150.8741 
 731   0.0000       5.597489       152.3154 
 732   0.0000       5.604736       152.5126 
 733   0.0000       5.657585       153.9507 
 734   0.0000       5.681405       154.5989 
 735   0.0000       5.683535       154.6568 
 736   0.0000       5.693705       154.9336 
 737   0.0000       5.701262       155.1392 
 738   0.0000       5.710764       155.3978 
 739   0.0000       5.714716       155.5053 
 740   0.0000       5.727789       155.8611 
 741   0.0000       5.740633       156.2106 
 742   0.0000       5.747310       156.3923 
 743   0.0000       5.754942       156.5999 
 744   0.0000       5.776656       157.1908 
 745   0.0000       5.781310       157.3175 
 746   0.0000       5.787558       157.4874 
 747   0.0000       5.816401       158.2723 
 748   0.0000       5.857170       159.3817 
 749   0.0000       5.897868       160.4891 
 750   0.0000       5.950650       161.9254 
 751   0.0000       6.041553       164.3990 
 752   0.0000       6.087281       165.6433 
 753   0.0000       6.120700       166.5527 
 754   0.0000       6.233052       169.6100 
 755   0.0000       6.267366       170.5437 
 756   0.0000       6.439193       175.2193 
 757   0.0000       6.452683       175.5864 
 758   0.0000       6.455963       175.6757 
 759   0.0000       6.577383       178.9797 
 760   0.0000       6.594235       179.4382 
 761   0.0000       6.607948       179.8114 
 762   0.0000       6.615804       180.0252 
 763   0.0000       6.624923       180.2733 
 764   0.0000       6.631175       180.4434 
 765   0.0000       6.635619       180.5644 
 766   0.0000       6.636424       180.5863 
 767   0.0000       6.651771       181.0039 
 768   0.0000       6.656350       181.1285 
 769   0.0000       6.673084       181.5839 
 770   0.0000       6.687669       181.9807 
 771   0.0000       6.693054       182.1273 
 772   0.0000       6.724870       182.9930 
 773   0.0000       6.758436       183.9064 
 774   0.0000       6.797069       184.9576 
 775   0.0000       6.811774       185.3578 
 776   0.0000       6.829769       185.8474 
 777   0.0000       6.862404       186.7355 
 778   0.0000       6.881827       187.2640 
 779   0.0000       6.980842       189.9584 
 780   0.0000       6.999219       190.4584 
 781   0.0000       7.022417       191.0897 
 782   0.0000       7.065203       192.2540 
 783   0.0000       7.074079       192.4955 
 784   0.0000       7.080372       192.6667 
 785   0.0000       7.085215       192.7985 
 786   0.0000       7.087415       192.8584 
 787   0.0000       7.092316       192.9917 
 788   0.0000       7.105874       193.3607 
 789   0.0000       7.132687       194.0903 
 790   0.0000       7.187806       195.5902 
 791   0.0000       7.193064       195.7332 
 792   0.0000       7.214004       196.3030 
 793   0.0000       7.312911       198.9944 
 794   0.0000       7.400484       201.3774 
 795   0.0000       7.412733       201.7107 
 796   0.0000       7.425048       202.0458 
 797   0.0000       7.433540       202.2769 
 798   0.0000       7.500711       204.1047 
 799   0.0000       7.531155       204.9332 
 800   0.0000       7.630824       207.6453 
 801   0.0000       7.677037       208.9028 
 802   0.0000       7.788499       211.9358 
 803   0.0000       7.955873       216.4903 
 804   0.0000       8.341138       226.9739 
 805   0.0000      23.519571       640.0001 
 806   0.0000      23.699157       644.8868 
 807   0.0000      23.797525       647.5636 
 808   0.0000      23.806565       647.8096 
 809   0.0000      23.869493       649.5219 
 810   0.0000      24.021633       653.6619 
 811   0.0000      24.074236       655.0933 
 812   0.0000      24.130551       656.6257 
 813   0.0000      24.233858       659.4368 
 814   0.0000      44.836508      1220.0634 
 815   0.0000      44.908294      1222.0168 
 816   0.0000      44.953490      1223.2467 
 817   0.0000      44.988020      1224.1863 
 818   0.0000      45.137059      1228.2418 
 819   0.0000      45.247724      1231.2532 
 820   0.0000      49.269217      1340.6836 
 821   0.0000      50.079747      1362.7392 
 822   0.0000      50.506500      1374.3517 
 823   0.0000      68.288538      1858.2256 
 824   0.0000     511.142478     13908.8939 

                    ********************************
                    * MULLIKEN POPULATION ANALYSIS *
                    ********************************

-----------------------
MULLIKEN ATOMIC CHARGES
-----------------------
   0 Re:    0.647603
   1 C :    0.410582
   2 C :    0.668257
   3 C :   -0.000797
   4 Br:   -0.630433
   5 O :   -0.386066
   6 O :   -0.297444
   7 O :   -0.331967
   8 C :   -0.985557
   9 C :    0.120467
  10 C :    1.627648
  11 C :    0.342911
  12 O :   -0.638793
  13 O :   -0.312043
  14 C :   -0.160780
  15 O :   -0.453249
  16 H :    0.260107
  17 C :   -0.161154
  18 H :    0.079795
  19 H :    0.125116
  20 H :    0.135359
  21 H :   -0.098594
  22 H :    0.001656
  23 H :   -0.098910
  24 H :    0.136286
Sum of atomic charges:    0.0000000

--------------------------------
MULLIKEN REDUCED ORBITAL CHARGES
--------------------------------
  0 Res       :     2.732369  s :     2.732369
      pz      :     2.290297  p :     6.128204
      px      :     2.044853
      py      :     1.793053
      dz2     :     1.134885  d :     5.298998
      dxz     :     0.721930
      dyz     :     1.366561
      dx2y2   :     0.970034
      dxy     :     1.105588
      f0      :     0.014247  f :     0.184896
      f+1     :     0.050129
      f-1     :     0.017591
      f+2     :     0.031671
      f-2     :     0.022068
      f+3     :     0.015391
      f-3     :     0.033799
      g0      :     0.000813  g :     0.007930
      g+1     :     0.001145
      g-1     :     0.000340
      g+2     :     0.001473
      g-2     :     0.000693
      g+3     :     0.000719
      g-3     :     0.000953
      g+4     :     0.001166
      g-4     :     0.000628
  1 C s       :     3.426770  s :     3.426770
      pz      :     0.791194  p :     2.032207
      px      :     0.658879
      py      :     0.582134
      dz2     :     0.036975  d :     0.111377
      dxz     :    -0.003054
      dyz     :     0.044388
      dx2y2   :     0.009873
      dxy     :     0.023196
      f0      :     0.004805  f :     0.019064
      f+1     :     0.003885
      f-1     :     0.002452
      f+2     :     0.002929
      f-2     :     0.003698
      f+3     :     0.000587
      f-3     :     0.000707
  2 C s       :     3.189675  s :     3.189675
      pz      :     0.737323  p :     1.992998
      px      :     0.661265
      py      :     0.594410
      dz2     :     0.051856  d :     0.128134
      dxz     :    -0.010357
      dyz     :     0.038108
      dx2y2   :     0.015405
      dxy     :     0.033123
      f0      :     0.004571  f :     0.020936
      f+1     :     0.004327
      f-1     :     0.002119
      f+2     :     0.003629
      f-2     :     0.004254
      f+3     :     0.000969
      f-3     :     0.001067
  3 C s       :     3.523184  s :     3.523184
      pz      :     0.674710  p :     2.255064
      px      :     0.615255
      py      :     0.965099
      dz2     :     0.003618  d :     0.201764
      dxz     :     0.004203
      dyz     :     0.100516
      dx2y2   :     0.009454
      dxy     :     0.083973
      f0      :     0.002641  f :     0.020785
      f+1     :     0.000470
      f-1     :     0.002517
      f+2     :     0.004337
      f-2     :     0.000231
      f+3     :     0.006406
      f-3     :     0.004182
  4 Brs       :     8.107279  s :     8.107279
      pz      :     5.961166  p :    17.487677
      px      :     5.896247
      py      :     5.630264
      dz2     :     2.004506  d :    10.032568
      dxz     :     2.001128
      dyz     :     2.008712
      dx2y2   :     2.012491
      dxy     :     2.005731
      f0      :     0.000384  f :     0.002909
      f+1     :     0.000095
      f-1     :     0.000392
      f+2     :     0.000447
      f-2     :     0.000273
      f+3     :     0.000659
      f-3     :     0.000658
  5 O s       :     3.962282  s :     3.962282
      pz      :     1.536818  p :     4.375205
      px      :     1.513063
      py      :     1.325324
      dz2     :     0.003080  d :     0.046727
      dxz     :    -0.000001
      dyz     :     0.016895
      dx2y2   :     0.010358
      dxy     :     0.016395
      f0      :     0.000260  f :     0.001851
      f+1     :     0.000046
      f-1     :     0.000186
      f+2     :     0.000417
      f-2     :     0.000010
      f+3     :     0.000648
      f-3     :     0.000284
  6 O s       :     3.930552  s :     3.930552
      pz      :     1.383138  p :     4.312267
      px      :     1.440519
      py      :     1.488610
      dz2     :     0.016382  d :     0.052711
      dxz     :     0.012136
      dyz     :     0.012291
      dx2y2   :     0.005984
      dxy     :     0.005917
      f0      :     0.000524  f :     0.001915
      f+1     :     0.000312
      f-1     :     0.000268
      f+2     :     0.000275
      f-2     :     0.000403
      f+3     :     0.000060
      f-3     :     0.000074
  7 O s       :     3.946844  s :     3.946844
      pz      :     1.398699  p :     4.329309
      px      :     1.451657
      py      :     1.478954
      dz2     :     0.016621  d :     0.053910
      dxz     :     0.012664
      dyz     :     0.011513
      dx2y2   :     0.006465
      dxy     :     0.006647
      f0      :     0.000450  f :     0.001904
      f+1     :     0.000346
      f-1     :     0.000210
      f+2     :     0.000319
      f-2     :     0.000407
      f+3     :     0.000086
      f-3     :     0.000087
  8 C s       :     3.735428  s :     3.735428
      pz      :     1.052454  p :     3.094145
      px      :     0.992179
      py      :     1.049511
      dz2     :     0.032874  d :     0.148298
      dxz     :     0.035162
      dyz     :     0.030920
      dx2y2   :     0.038024
      dxy     :     0.011318
      f0      :     0.000979  f :     0.007686
      f+1     :     0.000850
      f-1     :     0.000976
      f+2     :     0.001698
      f-2     :     0.000960
      f+3     :     0.000858
      f-3     :     0.001365
  9 C s       :     3.129216  s :     3.129216
      pz      :     1.038031  p :     2.802650
      px      :     0.941971
      py      :     0.822648
      dz2     :    -0.011267  d :    -0.058418
      dxz     :     0.000459
      dyz     :    -0.023364
      dx2y2   :     0.008281
      dxy     :    -0.032526
      f0      :     0.000697  f :     0.006085
      f+1     :     0.000723
      f-1     :     0.000622
      f+2     :     0.001186
      f-2     :     0.000620
      f+3     :     0.000872
      f-3     :     0.001366
 10 C s       :     1.989357  s :     1.989357
      pz      :     0.807047  p :     2.351286
      px      :     0.811374
      py      :     0.732864
      dz2     :     0.029149  d :     0.023511
      dxz     :     0.012370
      dyz     :     0.004846
      dx2y2   :     0.044400
      dxy     :    -0.067255
      f0      :     0.000910  f :     0.008199
      f+1     :     0.001475
      f-1     :     0.000772
      f+2     :     0.001591
      f-2     :     0.001584
      f+3     :     0.000939
      f-3     :     0.000927
 11 C s       :     3.403011  s :     3.403011
      pz      :     0.620637  p :     1.983137
      px      :     0.721468
      py      :     0.641033
      dz2     :     0.045879  d :     0.244142
      dxz     :     0.063676
      dyz     :     0.009498
      dx2y2   :     0.027522
      dxy     :     0.097567
      f0      :     0.001898  f :     0.026799
      f+1     :     0.002341
      f-1     :     0.003990
      f+2     :     0.003856
      f-2     :     0.004094
      f+3     :     0.006223
      f-3     :     0.004398
 12 O s       :     3.960887  s :     3.960887
      pz      :     1.442495  p :     4.642354
      px      :     1.833023
      py      :     1.366835
      dz2     :     0.010959  d :     0.033675
      dxz     :    -0.000431
      dyz     :     0.013117
      dx2y2   :     0.009938
      dxy     :     0.000091
      f0      :     0.000137  f :     0.001877
      f+1     :     0.000046
      f-1     :     0.000519
      f+2     :     0.000341
      f-2     :     0.000300
      f+3     :     0.000259
      f-3     :     0.000276
 13 O s       :     3.837566  s :     3.837566
      pz      :     1.689009  p :     4.446827
      px      :     1.153790
      py      :     1.604029
      dz2     :     0.001186  d :     0.025487
      dxz     :     0.010879
      dyz     :     0.003571
      dx2y2   :    -0.000511
      dxy     :     0.010362
      f0      :     0.000262  f :     0.002163
      f+1     :     0.000349
      f-1     :     0.000126
      f+2     :     0.000229
[...]
      f+1     :     0.005750
      f-1     :     0.004957
      f+2     :     0.008722
      f-2     :     0.004520
      f+3     :     0.006023
      f-3     :     0.006657
  9 C s       :     2.726568  s :     2.726568
      pz      :     0.884810  p :     2.653221
      px      :     1.002258
      py      :     0.766153
      dz2     :     0.101778  d :     0.681711
      dxz     :     0.189365
      dyz     :     0.090090
      dx2y2   :     0.135199
      dxy     :     0.165278
      f0      :     0.004926  f :     0.034092
      f+1     :     0.004842
      f-1     :     0.002902
      f+2     :     0.005950
      f-2     :     0.002445
      f+3     :     0.005929
      f-3     :     0.007098
 10 C s       :     2.579911  s :     2.579911
      pz      :     0.861427  p :     2.572074
      px      :     0.833089
      py      :     0.877557
      dz2     :     0.187610  d :     0.903098
      dxz     :     0.205359
      dyz     :     0.171362
      dx2y2   :     0.173052
      dxy     :     0.165714
      f0      :     0.007924  f :     0.054219
      f+1     :     0.008799
      f-1     :     0.005906
      f+2     :     0.009226
      f-2     :     0.008553
      f+3     :     0.006839
      f-3     :     0.006971
 11 C s       :     2.606055  s :     2.606055
      pz      :     0.671393  p :     2.278614
      px      :     0.803797
      py      :     0.803424
      dz2     :     0.203150  d :     1.354522
      dxz     :     0.275807
      dyz     :     0.201090
      dx2y2   :     0.306497
      dxy     :     0.367977
      f0      :     0.013867  f :     0.164663
      f+1     :     0.014563
      f-1     :     0.018756
      f+2     :     0.023809
      f-2     :     0.026227
      f+3     :     0.038300
      f-3     :     0.029142
 12 O s       :     3.277425  s :     3.277425
      pz      :     1.358189  p :     4.325095
      px      :     1.544225
      py      :     1.422680
      dz2     :     0.036773  d :     0.273605
      dxz     :     0.034005
      dyz     :     0.065305
      dx2y2   :     0.076499
      dxy     :     0.061023
      f0      :     0.000522  f :     0.006156
      f+1     :     0.000125
      f-1     :     0.000980
      f+2     :     0.001457
      f-2     :     0.001194
      f+3     :     0.001017
      f-3     :     0.000861
 13 O s       :     3.174558  s :     3.174558
      pz      :     1.507728  p :     4.280448
      px      :     1.271413
      py      :     1.501306
      dz2     :     0.072146  d :     0.509944
      dxz     :     0.106012
      dyz     :     0.043492
      dx2y2   :     0.154030
      dxy     :     0.134263
      f0      :     0.000424  f :     0.006871
      f+1     :     0.001090
      f-1     :     0.000358
      f+2     :     0.000571
      f-2     :     0.001293
      f+3     :     0.001827
      f-3     :     0.001307
 14 C s       :     2.627065  s :     2.627065
      pz      :     0.831796  p :     2.438852
      px      :     0.819890
      py      :     0.787166
      dz2     :     0.167643  d :     0.998448
      dxz     :     0.194656
      dyz     :     0.242481
      dx2y2   :     0.197589
      dxy     :     0.196078
      f0      :     0.009675  f :     0.080772
      f+1     :     0.006746
      f-1     :     0.017472
      f+2     :     0.012917
      f-2     :     0.012779
      f+3     :     0.010936
      f-3     :     0.010246
 15 O s       :     3.148923  s :     3.148923
      pz      :     1.536518  p :     4.289698
      px      :     1.450248
      py      :     1.302933
      dz2     :     0.089567  d :     0.440478
      dxz     :     0.067165
      dyz     :     0.082174
      dx2y2   :     0.096632
      dxy     :     0.104940
      f0      :     0.000297  f :     0.005285
      f+1     :     0.000389
      f-1     :     0.001060
      f+2     :     0.000981
      f-2     :     0.001163
      f+3     :     0.000793
      f-3     :     0.000603
 16 H s       :     0.522555  s :     0.522555
      pz      :     0.133847  p :     0.547380
      px      :     0.247609
      py      :     0.165924
      dz2     :     0.010406  d :     0.095268
      dxz     :     0.012877
      dyz     :     0.018839
      dx2y2   :     0.028622
      dxy     :     0.024525
 17 C s       :     2.630266  s :     2.630266
      pz      :     0.909606  p :     2.536469
      px      :     0.761474
      py      :     0.865390
      dz2     :     0.139008  d :     0.583832
      dxz     :     0.095559
      dyz     :     0.067405
      dx2y2   :     0.141284
      dxy     :     0.140576
      f0      :     0.008726  f :     0.062058
      f+1     :     0.006705
      f-1     :     0.003431
      f+2     :     0.007956
      f-2     :     0.012831
      f+3     :     0.009838
      f-3     :     0.012572
 18 H s       :     0.704976  s :     0.704976
      pz      :     0.077483  p :     0.253821
      px      :     0.098395
      py      :     0.077943
      dz2     :     0.004560  d :     0.028926
      dxz     :     0.006971
      dyz     :     0.002344
      dx2y2   :     0.007311
      dxy     :     0.007741
 19 H s       :     0.694235  s :     0.694235
      pz      :     0.134675  p :     0.262333
      px      :     0.063352
      py      :     0.064306
      dz2     :     0.011549  d :     0.028862
      dxz     :     0.007854
      dyz     :     0.009273
      dx2y2   :     0.000038
      dxy     :     0.000148
 20 H s       :     0.692823  s :     0.692823
      pz      :     0.077157  p :     0.262243
      px      :     0.063297
      py      :     0.121788
      dz2     :     0.004831  d :     0.028883
      dxz     :     0.000722
      dyz     :     0.008669
      dx2y2   :     0.007479
      dxy     :     0.007182
 21 H s       :     0.720580  s :     0.720580
      pz      :     0.123070  p :     0.315367
      px      :     0.091132
      py      :     0.101165
      dz2     :     0.007763  d :     0.029483
      dxz     :     0.006093
      dyz     :     0.007479
      dx2y2   :     0.004057
      dxy     :     0.004092
 22 H s       :     0.661944  s :     0.661944
      pz      :     0.071341  p :     0.254366
      px      :     0.075017
      py      :     0.108008
      dz2     :     0.003570  d :     0.030185
      dxz     :     0.002380
      dyz     :     0.008149
      dx2y2   :     0.008016
      dxy     :     0.008071
 23 H s       :     0.699969  s :     0.699969
      pz      :     0.095478  p :     0.266581
      px      :     0.088866
      py      :     0.082236
      dz2     :     0.007080  d :     0.028618
      dxz     :     0.007514
      dyz     :     0.005387
      dx2y2   :     0.004103
      dxy     :     0.004534
 24 H s       :     0.682940  s :     0.682940
      pz      :     0.085664  p :     0.264159
      px      :     0.081622
      py      :     0.096872
      dz2     :     0.004742  d :     0.030267
      dxz     :     0.004022
      dyz     :     0.009455
      dx2y2   :     0.006244
      dxy     :     0.005803


                      *****************************
                      * MAYER POPULATION ANALYSIS *
                      *****************************

  NA   - Mulliken gross atomic population
  ZA   - Total nuclear charge
  QA   - Mulliken gross atomic charge
  VA   - Mayer's total valence
  BVA  - Mayer's bonded valence
  FA   - Mayer's free valence

  ATOM       NA         ZA         QA         VA         BVA        FA
  0 Re    14.3524    15.0000     0.6476     5.4738     5.4738     0.0000
  1 C      5.5894     6.0000     0.4106     3.0222     3.0222    -0.0000
  2 C      5.3317     6.0000     0.6683     3.1952     3.1952    -0.0000
  3 C      6.0008     6.0000    -0.0008     3.5621     3.5621     0.0000
  4 Br    35.6304    35.0000    -0.6304     0.6646     0.6646    -0.0000
  5 O      8.3861     8.0000    -0.3861     2.1733     2.1733     0.0000
  6 O      8.2974     8.0000    -0.2974     2.2867     2.2867     0.0000
  7 O      8.3320     8.0000    -0.3320     2.2692     2.2692    -0.0000
  8 C      6.9856     6.0000    -0.9856     4.0306     4.0306     0.0000
  9 C      5.8795     6.0000     0.1205     3.3746     3.3746     0.0000
 10 C      4.3724     6.0000     1.6276     1.3486     1.3486    -0.0000
 11 C      5.6571     6.0000     0.3429     3.4316     3.4316     0.0000
 12 O      8.6388     8.0000    -0.6388     1.6198     1.6198     0.0000
 13 O      8.3120     8.0000    -0.3120     1.7668     1.7668    -0.0000
 14 C      6.1608     6.0000    -0.1608     3.9123     3.9123     0.0000
 15 O      8.4532     8.0000    -0.4532     1.8587     1.8587     0.0000
 16 H      0.7399     1.0000     0.2601     0.9984     0.9984     0.0000
 17 C      6.1612     6.0000    -0.1612     3.7800     3.7800    -0.0000
 18 H      0.9202     1.0000     0.0798     1.0225     1.0225     0.0000
 19 H      0.8749     1.0000     0.1251     1.0459     1.0459    -0.0000
 20 H      0.8646     1.0000     0.1354     1.0362     1.0362    -0.0000
 21 H      1.0986     1.0000    -0.0986     1.0571     1.0571     0.0000
 22 H      0.9983     1.0000     0.0017     0.9123     0.9123    -0.0000
 23 H      1.0989     1.0000    -0.0989     1.0142     1.0142     0.0000
 24 H      0.8637     1.0000     0.1363     0.9001     0.9001     0.0000

  Mayer bond orders larger than 0.100000
B(  0-Re,  1-C ) :   0.8142 B(  0-Re,  2-C ) :   1.0892 B(  0-Re,  3-C ) :   1.2567 
B(  0-Re,  4-Br) :   0.3834 B(  0-Re,  9-C ) :   0.6632 B(  0-Re, 14-C ) :   0.6594 
B(  0-Re, 15-O ) :   0.4014 B(  1-C ,  6-O ) :   2.2027 B(  2-C ,  7-O ) :   2.1485 
B(  3-C ,  5-O ) :   2.0340 B(  3-C , 14-C ) :   0.2184 B(  8-C ,  9-C ) :   1.8681 
B(  8-C , 11-C ) :   0.4543 B(  8-C , 14-C ) :   0.3679 B(  8-C , 23-H ) :   1.2460 
B(  9-C , 10-C ) :  -0.1280 B(  9-C , 21-H ) :   1.0916 B(  9-C , 23-H ) :  -0.1124 
B( 10-C , 11-C ) :   0.1585 B( 10-C , 12-O ) :  -0.1250 B( 10-C , 14-C ) :   0.5838 
B( 10-C , 22-H ) :   1.0401 B( 10-C , 23-H ) :  -0.2447 B( 11-C , 12-O ) :   1.4701 
B( 11-C , 13-O ) :   0.8543 B( 11-C , 14-C ) :   0.4015 B( 12-O , 14-C ) :   0.1179 
B( 13-O , 17-C ) :   0.7964 B( 14-C , 15-O ) :   0.6058 B( 14-C , 24-H ) :   0.9687 
B( 15-O , 16-H ) :   0.8830 B( 17-C , 18-H ) :   1.0492 B( 17-C , 19-H ) :   0.9869 
B( 17-C , 20-H ) :   0.9802 

-------
TIMINGS
-------

Total SCF time: 0 days 0 hours 1 min 22 sec 

Total time                  ....      82.699 sec
Sum of individual times     ....      81.776 sec  ( 98.9%)

Fock matrix formation       ....      74.040 sec  ( 89.5%)
  XC integration            ....       6.023 sec  (  8.1% of F)
    Basis function eval.    ....       1.072 sec  ( 17.8% of XC)
    Density eval.           ....       1.983 sec  ( 32.9% of XC)
    XC-Functional eval.     ....       0.061 sec  (  1.0% of XC)
    XC-Potential eval.      ....       2.305 sec  ( 38.3% of XC)
Diagonalization             ....       2.766 sec  (  3.3%)
Density matrix formation    ....       0.096 sec  (  0.1%)
Population analysis         ....       0.142 sec  (  0.2%)
Initial guess               ....       2.033 sec  (  2.5%)
Orbital Transformation      ....       0.000 sec  (  0.0%)
Orbital Orthonormalization  ....       0.000 sec  (  0.0%)
DIIS solution               ....       1.559 sec  (  1.9%)
Grid generation             ....       1.139 sec  (  1.4%)


           ************************************************************
           *        Program running with 24 parallel MPI-processes    *
           *              working on a common directory               *
           ************************************************************

------------------------------------------------------------------------------
                                ORCA  MP2 
------------------------------------------------------------------------------

Freezing NCore=48 chemical core electrons

-------------
RI-MP2 ENERGY
-------------
Dimension of the basis                    ...  825
Memory devoted to MP2                     ... 5000 MB   
Data format for buffers                   ... DOUBLE
Compression type for matrix containers    ... UNCOMPRESSED
Overall scaling of the MP2 energy         ...   2.700e-01
Calculating two index integrals           ... done (    0.041 sec)
Cholesky decomposition of V**-1           ... done (    0.389 sec)

-----------------
RI-TRANSFORMATION (AUX index driven)
-----------------

Dimension of the orbital-basis         ... 825
Dimension of the aux-basis             ... 2060
Transformation of internal/external MOs...   24-  79 to   80- 824
Number Format for Storage              ... Double (8 Byte)
Integral mode                          ... Direct

First Phase: integral generation and transformation of MO indices
  Aux angular momentum 0               ... done (    0.168 sec)
  Aux angular momentum 1               ... done (    0.320 sec)
  Aux angular momentum 2               ... done (    0.407 sec)
  Aux angular momentum 3               ... done (    0.462 sec)
  Aux angular momentum 4               ... done (    0.134 sec)
  Aux angular momentum 5               ... done (    0.172 sec)
  Aux angular momentum 6               ... done (    0.219 sec)
Closing buffer VIA ( 0.64 GB; CompressionRatio= 1.00)
  Phase 1 completed in     1.996 sec
Second Phase: sorting and transformation of aux index

IA-Transformation
Memory available                       ... 4915 MB 
Max. # MO pairs treated in a batch     ... 3    
# of internal orbitals                 ... 56
# batches for internal orbitals        ... 1
Closing buffer IAV ( 0.03 GB; CompressionRatio= 1.00)
(ia|v) transformation done in     0.524 sec

  Phase 2 completed in     1.136 sec
RI-Integral transformation completed in     3.147 sec
Opening buffers                              ... done

Starting loop over batches of integrals:

Operator 0  - window                       ... ( 24- 79)x( 80-824)
Operator 0  - Memory available             ...  5000 MB
Operator 0  - Memory needed per MO         ...  11.7 MB
Operator 0  - Number of orbitals per batch ... 3
Operator 0  - Number of batches            ... 1

OPERATOR  0   PASS   0:  MOs    24 ...   26 +   27 ...   29 +   30 ...   32 +   33 ...   35
                            +   36 ...   38 +   39 ...   41 +   42 ...   44 +   45 ...   47
                            +   48 ...   50 +   51 ...   53 +   54 ...   56 +   57 ...   59
                            +   60 ...   62 +   63 ...   65 +   66 ...   68 +   69 ...   71
                            +   72 ...   74 +   75 ...   77 +   78 ...   79
  Reading integrals       ... ok
  Internal MO  26
Time spent in pair loops =     0.331 sec
Deleting buffer (Ka|jb)[aa] ...done

-----------------------------------------------
 RI-MP2 CORRELATION ENERGY:     -1.234148881 Eh
-----------------------------------------------


-------
TIMINGS
-------

Total time                :   10.710 sec
Integral trafo            :    3.158 sec ( 29.5%)
I/O of integrals          :    0.030 sec (  0.3%)
K(i,j) Operators          :    0.227 sec (  2.1%)
T(i,j) pair energies      :    0.042 sec (  0.4%)
V-calculation             :    0.041 sec (  0.4%)
V**(-1/2)                 :    0.389 sec (  3.6%)
Gamma(ia|P)               :    0.000 sec (  0.0%)
Gamma-Trafo               :    0.000 sec (  0.0%)
D(virtual)                :    0.000 sec (  0.0%)
D(internal)               :    0.000 sec (  0.0%)
W(virtual)                :    0.000 sec (  0.0%)
W(internal)               :    0.000 sec (  0.0%)
L(virtual)                :    0.000 sec (  0.0%)
L(internal)               :    0.000 sec (  0.0%)
G(D)                      :    0.000 sec (  0.0%)
G(Z)                      :    0.000 sec (  0.0%)
Z-Vector Solution         :    0.000 sec (  0.0%)
Z-Vector Solution         :    0.000 sec (  0.0%)
3-Index Derivative 
+ Separable RIJ part      :    0.000 sec (  0.0%)
2-Index Derivative 
+ Separable RIJ part      :    0.000 sec (  0.0%)
Separable Gradient (X)    :    0.000 sec (  0.0%)


---------------------------------------
MP2 TOTAL ENERGY:    -3450.952826131 Eh
---------------------------------------


-------------------------------------------------------------------------------
                          DFT DISPERSION CORRECTION                            
                                                                               
                              DFTD3 V3.1  Rev 1                                
                          USING Becke-Johnson damping                          
-------------------------------------------------------------------------------
The B2PLYP functional is recognized
Active option DFTDOPT                   ...         4   

molecular C6(AA) [au] = 12002.907786 


            DFT-D V3
 parameters
 s6 scaling factor         :     0.6400 
 a1 scaling factor         :     0.3065 
 s8 scaling factor         :     0.9147 
 a2 scaling factor         :     5.0570 
 ad hoc parameters k1-k3   :    16.0000     1.3333    -4.0000 

 Edisp/kcal,au: -20.654964941687  -0.032915778314 
 E6   /kcal   : -10.188205857 
 E8   /kcal   : -10.466759084 
 % E8         :  50.674300896 

-------------------------   ----------------
Dispersion correction           -0.032915778
-------------------------   ----------------


-------------------------   --------------------
FINAL SINGLE POINT ENERGY     -3450.985741909632
-------------------------   --------------------


                            ***************************************
                            *     ORCA property calculations      *
                            ***************************************


  WARNING: The energy has been calculated at the MP2 level but the densities
           used in the property calculations are still SCF densities
           MP2 response densities have not been calculated 
           use %mp2 Density relaxed end
           or  %mp2 Density unrelaxed end

                                    ---------------------
                                    Active property flags
                                    ---------------------
   (+) Dipole Moment


------------------------------------------------------------------------------
                       ORCA ELECTRIC PROPERTIES CALCULATION
------------------------------------------------------------------------------

Dipole Moment Calculation                       ... on
Quadrupole Moment Calculation                   ... off
Polarizability Calculation                      ... off
GBWName                                         ... TMB20_I1.gbw
Electron density file                           ... TMB20_I1.scfp
The origin for moment calculation is the CENTER OF MASS  = ( 0.273450, -0.033238 -0.010571)

-------------
DIPOLE MOMENT
-------------
                                X             Y             Z
Electronic contribution:    123.10372      30.02504      -3.26376
Nuclear contribution   :   -125.53088     -28.89018       3.09124
                        -----------------------------------------
Total Dipole Moment    :     -2.42716       1.13487      -0.17251
                        -----------------------------------------
Magnitude (a.u.)       :      2.68492
Magnitude (Debye)      :      6.82452



--------------------
Rotational spectrum 
--------------------
 
Rotational constants in cm-1:     0.016025     0.007116     0.006337 
Rotational constants in MHz :   480.407323   213.341783   189.987107 

 Dipole components along the rotational axes: 
x,y,z [a.u.] :    -2.454842     1.072252    -0.181130 
x,y,z [Debye]:    -6.239713     2.725449    -0.460396 

 

Timings for individual modules:

Sum of individual times         ...       98.392 sec (=   1.640 min)
GTO integral calculation        ...        3.978 sec (=   0.066 min)   4.0 %
SCF iterations                  ...       83.078 sec (=   1.385 min)  84.4 %
MP2 module                      ...       11.336 sec (=   0.189 min)  11.5 %
                             ****ORCA TERMINATED NORMALLY****
TOTAL RUN TIME: 0 days 0 hours 1 minutes 39 seconds 23 msec
