
                                 *****************
                                 * O   R   C   A *
                                 *****************

           --- An Ab Initio, DFT and Semiempirical electronic structure package ---

                  #######################################################
                  #                        -***-                        #
                  #          Department of theory and spectroscopy      #
                  #               Directorship: Frank Neese             #
                  #        Max Planck Institute fuer Kohlenforschung    #
                  #                Kaiser Wilhelm Platz 1               #
                  #                 D-45470 Muelheim/Ruhr               #
                  #                      Germany                        #
                  #                                                     #
                  #                  All rights reserved                #
                  #                        -***-                        #
                  #######################################################


                         Program Version 4.2.0 -  RELEASE  -


 With contributions from (in alphabetic order):
   Daniel Aravena         : Magnetic Suceptibility
   Michael Atanasov       : Ab Initio Ligand Field Theory (pilot matlab implementation)
   Alexander A. Auer      : GIAO ZORA, VPT2
   Ute Becker             : Parallelization
   Giovanni Bistoni       : ED, misc. LED, open-shell LED, HFLED
   Martin Brehm           : Molecular dynamics
   Dmytro Bykov           : SCF Hessian
   Vijay G. Chilkuri      : MRCI spin determinant printing, contributions to CSF-ICE
   Dipayan Datta          : RHF DLPNO-CCSD density
   Achintya Kumar Dutta   : EOM-CC, STEOM-CC
   Dmitry Ganyushin       : Spin-Orbit,Spin-Spin,Magnetic field MRCI
   Miquel Garcia          : C-PCM Hessian, Gaussian charge scheme
   Yang Guo               : DLPNO-NEVPT2, CIM, IAO-localization
   Andreas Hansen         : Spin unrestricted coupled pair/coupled cluster methods
   Benjamin Helmich-Paris : CASSCF linear response (MC-RPA)
   Lee Huntington         : MR-EOM, pCC
   Robert Izsak           : Overlap fitted RIJCOSX, COSX-SCS-MP3, EOM
   Christian Kollmar      : KDIIS, OOCD, Brueckner-CCSD(T), CCSD density
   Simone Kossmann        : Meta GGA functionals, TD-DFT gradient, OOMP2, MP2 Hessian
   Martin Krupicka        : AUTO-CI
   Lucas Lang             : DCDCAS
   Dagmar Lenk            : GEPOL surface, SMD
   Dimitrios Liakos       : Extrapolation schemes; Compound Job, initial MDCI parallelization
   Dimitrios Manganas     : Further ROCIS development; embedding schemes
   Dimitrios Pantazis     : SARC Basis sets
   Taras Petrenko         : DFT Hessian,TD-DFT gradient, ASA, ECA, R-Raman, ABS, FL, XAS/XES, NRVS
   Peter Pinski           : DLPNO-MP2, DLPNO-MP2 Gradient
   Christoph Reimann      : Effective Core Potentials
   Marius Retegan         : Local ZFS, SOC
   Christoph Riplinger    : Optimizer, TS searches, QM/MM, DLPNO-CCSD(T), (RO)-DLPNO pert. Triples
   Tobias Risthaus        : Range-separated hybrids, TD-DFT gradient, RPA, STAB
   Michael Roemelt        : Original ROCIS implementation
   Masaaki Saitow         : Open-shell DLPNO-CCSD energy and density
   Barbara Sandhoefer     : DKH picture change effects
   Avijit Sen             : IP-ROCIS
   Kantharuban Sivalingam : CASSCF convergence, NEVPT2, FIC-MRCI
   Bernardo de Souza      : ESD, SOC TD-DFT
   Georgi Stoychev        : AutoAux, RI-MP2 NMR
   Willem Van den Heuvel  : Paramagnetic NMR
   Boris Wezisla          : Elementary symmetry handling
   Frank Wennmohs         : Technical directorship


 We gratefully acknowledge several colleagues who have allowed us to
 interface, adapt or use parts of their codes:
   Stefan Grimme, W. Hujo, H. Kruse,             : VdW corrections, initial TS optimization,
                  C. Bannwarth                     DFT functionals, gCP, sTDA/sTD-DF
   Ed Valeev, F. Pavosevic, A. Kumar             : LibInt (2-el integral package), F12 methods
   Garnet Chan, S. Sharma, J. Yang, R. Olivares  : DMRG
   Ulf Ekstrom                                   : XCFun DFT Library
   Mihaly Kallay                                 : mrcc  (arbitrary order and MRCC methods)
   Andreas Klamt, Michael Diedenhofen            : otool_cosmo (COSMO solvation model)
   Jiri Pittner, Ondrej Demel                    : Mk-CCSD
   Frank Weinhold                                : gennbo (NPA and NBO analysis)
   Christopher J. Cramer and Donald G. Truhlar   : smd solvation model
   Lars Goerigk                                  : TD-DFT with DH, B97 family of functionals
   V. Asgeirsson, H. Jonsson                     : NEB implementation
   FAccTs GmbH                                   : IRC, NEB, NEB-TS, Multilevel, MM, QM/MM, CI optimization
   S Lehtola, MJT Oliveira, MAL Marques          : LibXC Library


 Your calculation uses the libint2 library for the computation of 2-el integrals
 For citations please refer to: http://libint.valeyev.net

 Your ORCA version has been built with support for libXC version: 4.2.3
 For citations please refer to: https://tddft.org/programs/libxc/

 This ORCA versions uses:
   CBLAS   interface :  Fast vector & matrix operations
   LAPACKE interface :  Fast linear algebra routines
   SCALAPACK package :  Parallel linear algebra routines


Your calculation utilizes the atom-pairwise dispersion correction
with the Becke-Johnson damping scheme (D3BJ)
Cite in your paper:
S.Grimme, S.Ehrlich, L.Goerigk, J Comput Chem, (2011), 32, 1456–1465 
S.Grimme, J.Antony, S.Ehrlich and H.Krieg, J.Chem.Phys., 132, (2010), 154104 
   

----- Orbital basis set information -----
Your calculation utilizes the basis: def2-TZVPPD
   F. Weigend and R. Ahlrichs, Phys. Chem. Chem. Phys. 7, 3297 (2005).
   D. Rappoport and F. Furche, J. Chem. Phys. 133 134105 (2010).

----- AuxC basis set information -----
Your calculation utilizes the auxiliary basis: def2-TZVPPD/C
   A. Hellweg, C. Hattig, S. Hofener and W. Klopper, Theor. Chem. Acc. 117, 587 (2007).

----- AuxJK basis set information -----
Your calculation utilizes the auxiliary basis: def2/JK
   H-Ba, Hf-Rn: F. Weigend, J. Comput. Chem. 29, 167 (2008).

cite the ECPs for Re [Def2-ECP] as follows:
Ce-Yb(ecp-28): M. Dolg, H. Stoll, H.Preuss, J. Chem. Phys., 1989, 90, 1730-1734.
Y-Cd(ecp-28), Hf-Hg(ecp-46): D. Andrae,U. Haeussermann, M. Dolg, H. Stoll, H. Preuss, Theor. Chim. Acta, 1990, 77, 123-141.
In-Sb(ecp-28), Tl-Bi(ecp-46): B. Metz, H. Stoll, M. Dolg, J. Chem. Phys., 2000, 113, 2563-2569.
Te-Xe(ecp-28), Po-Rn(ecp-46): K. A. Peterson, D. Figgen, E. Goll, H. Stoll, M. Dolg, J. Chem. Phys., 2003, 119, 11113-11123.
Rb(ecp-28), Cs(ecp-46): T. Leininger, A. Nicklass, W. Kuechle, H. Stoll, M. Dolg, A. Bergner, Chem. Phys. Lett., 1996, 255, 274-280.
Sr(ecp-28), Ba(ecp-46): M. Kaupp, P. V. Schleyer, H. Stoll and H. Preuss, J. Chem. Phys., 1991, 94, 1360-1366.
La(ecp-46): M. Dolg, H. Stoll, A. Savin, H. Preuss, Theor. Chim. Acta, 1989, 75, 173-194.
Lu(ecp-28): X. Cao, M. Dolg, J. Chem. Phys., 2001, 115, 7348-7355.

ECP parameters for Re [Def2-ECP] have been obtained from:
TURBOMOLE (7.0.2)

================================================================================
                                        WARNINGS
                       Please study these warnings very carefully!
================================================================================


WARNING: No MP2 level density has been requested!
         To caclulate MP2 level properties use
         %mp2 Density relaxed end
         or
         %mp2 Density unrelaxed end
         Otherwise for double-hybrid DFT only the energy is correct!

WARNING: The frozen-core approximation is turned on by default for 
         the MP2 part of double-hybrid DFT.

INFO   : the flag for use of LIBINT has been found!

================================================================================
                                       INPUT FILE
================================================================================
NAME = TMB20_T1.in
|  1> #
|  2> # TMB20_T1 ri-B2PLYP-D3BJ/Def2-TZVPPD
|  3> #
|  4> ! rijk ri-b2plyp d3bj def2-tzvppd def2/jk def2-tzvppd/c grid4 nofinalgrid
|  5> 
|  6> *xyz 0 1
|  7> Re       1.075850    0.159419    0.019780 
|  8> C        2.196750   -0.403878   -1.423482 
|  9> C        2.402994   -0.436307    1.215711 
| 10> C        1.922458    1.855293   -0.011396 
| 11> Br      -0.261613   -2.102343    0.064683 
| 12> O        2.449833    2.881230   -0.022028 
| 13> O        2.868443   -0.722069   -2.296753 
| 14> O        3.210599   -0.792996    1.955405 
| 15> C       -1.539667    1.495797    1.625423 
| 16> C       -0.428781    0.920088    1.558456 
| 17> C       -2.591644    1.677755   -0.408432 
| 18> C       -3.343269    0.487162   -0.270226 
| 19> O       -2.954237   -0.721219   -0.381568 
| 20> O       -4.608112    0.658864    0.009021 
| 21> C       -1.326616    1.715594   -1.019432 
| 22> O       -0.664105    0.697605   -1.265770 
| 23> H       -1.956019   -0.923705   -0.405218 
| 24> C       -5.425994   -0.504251    0.214760 
| 25> H       -6.403655   -0.115620    0.482117 
| 26> H       -5.482311   -1.089893   -0.701194 
| 27> H       -5.017526   -1.116193    1.017061 
| 28> H        0.138084    0.692302    2.461523 
| 29> H       -3.155110    2.594425   -0.305352 
| 30> H       -2.375145    2.018826    2.037613 
| 31> H       -0.897368    2.710605   -1.208716 
| 32> *
| 33> 
| 34> %maxcore 5000
| 35> 
| 36> %pal
| 37> nprocs = 24
| 38> end
| 39> 
| 40> 
| 41>                          ****END OF INPUT****
================================================================================

                       ****************************
                       * Single Point Calculation *
                       ****************************

---------------------------------
CARTESIAN COORDINATES (ANGSTROEM)
---------------------------------
  Re     1.075850    0.159419    0.019780
  C      2.196750   -0.403878   -1.423482
  C      2.402994   -0.436307    1.215711
  C      1.922458    1.855293   -0.011396
  Br    -0.261613   -2.102343    0.064683
  O      2.449833    2.881230   -0.022028
  O      2.868443   -0.722069   -2.296753
  O      3.210599   -0.792996    1.955405
  C     -1.539667    1.495797    1.625423
  C     -0.428781    0.920088    1.558456
  C     -2.591644    1.677755   -0.408432
  C     -3.343269    0.487162   -0.270226
  O     -2.954237   -0.721219   -0.381568
  O     -4.608112    0.658864    0.009021
  C     -1.326616    1.715594   -1.019432
  O     -0.664105    0.697605   -1.265770
  H     -1.956019   -0.923705   -0.405218
  C     -5.425994   -0.504251    0.214760
  H     -6.403655   -0.115620    0.482117
  H     -5.482311   -1.089893   -0.701194
  H     -5.017526   -1.116193    1.017061
  H      0.138084    0.692302    2.461523
  H     -3.155110    2.594425   -0.305352
  H     -2.375145    2.018826    2.037613
  H     -0.897368    2.710605   -1.208716

----------------------------
CARTESIAN COORDINATES (A.U.)
----------------------------
  NO LB      ZA    FRAG     MASS         X           Y           Z
   0 Re   15.0000*   0   186.207    2.033062    0.301258    0.037379
   1 C     6.0000    0    12.011    4.151256   -0.763219   -2.689991
   2 C     6.0000    0    12.011    4.541001   -0.824501    2.297361
   3 C     6.0000    0    12.011    3.632919    3.505996   -0.021535
   4 Br   35.0000    0    79.900   -0.494377   -3.972853    0.122233
   5 O     8.0000    0    15.999    4.629513    5.444736   -0.041627
   6 O     8.0000    0    15.999    5.420572   -1.364513   -4.340234
   7 O     8.0000    0    15.999    6.067153   -1.498545    3.695180
   8 C     6.0000    0    12.011   -2.909549    2.826647    3.071604
   9 C     6.0000    0    12.011   -0.810279    1.738714    2.945055
  10 C     6.0000    0    12.011   -4.897497    3.170497   -0.771825
  11 C     6.0000    0    12.011   -6.317863    0.920603   -0.510653
  12 O     8.0000    0    15.999   -5.582699   -1.362906   -0.721059
  13 O     8.0000    0    15.999   -8.708070    1.245073    0.017047
  14 C     6.0000    0    12.011   -2.506941    3.242003   -1.926447
  15 O     8.0000    0    15.999   -1.254977    1.318282   -2.391959
  16 H     1.0000    0     1.008   -3.696340   -1.745549   -0.765751
  17 C     6.0000    0    12.011  -10.253643   -0.952896    0.405838
  18 H     1.0000    0     1.008  -12.101154   -0.218490    0.911069
  19 H     1.0000    0     1.008  -10.360066   -2.059599   -1.325065
  20 H     1.0000    0     1.008   -9.481750   -2.109299    1.921967
  21 H     1.0000    0     1.008    0.260941    1.308261    4.651604
  22 H     1.0000    0     1.008   -5.962294    4.902753   -0.577032
  23 H     1.0000    0     1.008   -4.488374    3.815028    3.850531
  24 H     1.0000    0     1.008   -1.695780    5.122301   -2.284142
* core charge reduced due to ECP

--------------------------------
INTERNAL COORDINATES (ANGSTROEM)
--------------------------------
 Re     0   0   0     0.000000000000     0.00000000     0.00000000
 C      1   0   0     1.912256656637     0.00000000     0.00000000
 C      1   2   0     1.883202490592    88.45452712     0.00000000
 C      1   2   3     1.895707169506    89.38867851    88.79598737
 Br     1   2   3     2.628001312865    93.30733532   265.74777922
 O      4   1   2     1.153596184988   179.20725912   279.50190469
 O      2   1   3     1.146742882328   178.94583896   237.02254696
 O      3   1   2     1.151781269331   179.40405255   155.30035905
 C      1   2   3     3.347375804959   159.65896846   177.09594184
 C      9   1   2     1.252993669883    25.60226126   179.95863656
 C      9   1   2     2.297026443757    87.98006171     8.65040723
 C     11   9   1     1.414762429071    95.17221284    97.45738772
 O     12  11   9     1.274334170910   128.84911834   284.49313003
 O     12  11   9     1.306632419031   115.12361232   104.53029385
 C     11   9   1     1.405364234177    88.55847477   334.53739383
 O     15  11   9     1.239316279037   123.05866112    81.75371659
 H     13  12  11     1.018822397781   119.31402339    12.62642587
 C     14  12  11     1.436696211894   118.37839573   182.32564502
 H     18  14  12     1.085511331369   104.96019297   176.98298992
 H     18  14  12     1.088632117278   110.15020797   296.16038259
 H     18  14  12     1.088579814708   110.30593508    57.40293649
 H     10   9   1     1.090299223383   120.84219174   175.74015309
 H     11   9   1     1.080927059730   102.79555539   214.88609378
 H      9   1   2     1.068402274158   172.53118452   322.66132534
 H     15  11   9     1.100058711288   116.76946106   266.36220820

---------------------------
INTERNAL COORDINATES (A.U.)
---------------------------
 Re     0   0   0     0.000000000000     0.00000000     0.00000000
 C      1   0   0     3.613641378812     0.00000000     0.00000000
 C      1   2   0     3.558736961938    88.45452712     0.00000000
 C      1   2   3     3.582367380477    89.38867851    88.79598737
 Br     1   2   3     4.966202760901    93.30733532   265.74777922
 O      4   1   2     2.179980858763   179.20725912   279.50190469
 O      2   1   3     2.167029993624   178.94583896   237.02254696
 O      3   1   2     2.176551165216   179.40405255   155.30035905
 C      1   2   3     6.325623538686   159.65896846   177.09594184
 C      9   1   2     2.367814883615    25.60226126   179.95863656
 C      9   1   2     4.340750901075    87.98006171     8.65040723
 C     11   9   1     2.673513535505    95.17221284    97.45738772
 O     12  11   9     2.408142586118   128.84911834   284.49313003
 O     12  11   9     2.469177429671   115.12361232   104.53029385
 C     11   9   1     2.655753521003    88.55847477   334.53739383
 O     15  11   9     2.341968360690   123.05866112    81.75371659
 H     13  12  11     1.925295310911   119.31402339    12.62642587
 C     14  12  11     2.714962378121   118.37839573   182.32564502
 H     18  14  12     2.051319131556   104.96019297   176.98298992
 H     18  14  12     2.057216562246   110.15020797   296.16038259
 H     18  14  12     2.057117724712   110.30593508    57.40293649
 H     10   9   1     2.060366936221   120.84219174   175.74015309
 H     11   9   1     2.042656113634   102.79555539   214.88609378
 H      9   1   2     2.018987699016   172.53118452   322.66132534
 H     15  11   9     2.078809695569   116.76946106   266.36220820

---------------------
BASIS SET INFORMATION
---------------------
There are 5 groups of distinct atoms

 Group   1 Type Re  : 8s8p6d2f1g contracted to 6s5p3d2f1g pattern {311111/41111/411/11/1}
 Group   2 Type C   : 12s6p3d1f contracted to 6s3p3d1f pattern {621111/411/111/1}
 Group   3 Type Br  : 18s14p9d1f contracted to 7s6p5d1f pattern {8421111/641111/51111/1}
 Group   4 Type O   : 12s7p3d1f contracted to 6s4p3d1f pattern {621111/4111/111/1}
 Group   5 Type H   : 5s3p1d contracted to 3s3p1d pattern {311/111/1}

Atom   0Re   basis set group =>   1
Atom   1C    basis set group =>   2
Atom   2C    basis set group =>   2
Atom   3C    basis set group =>   2
Atom   4Br   basis set group =>   3
Atom   5O    basis set group =>   4
Atom   6O    basis set group =>   4
Atom   7O    basis set group =>   4
Atom   8C    basis set group =>   2
Atom   9C    basis set group =>   2
Atom  10C    basis set group =>   2
Atom  11C    basis set group =>   2
Atom  12O    basis set group =>   4
Atom  13O    basis set group =>   4
Atom  14C    basis set group =>   2
Atom  15O    basis set group =>   4
Atom  16H    basis set group =>   5
Atom  17C    basis set group =>   2
Atom  18H    basis set group =>   5
Atom  19H    basis set group =>   5
Atom  20H    basis set group =>   5
Atom  21H    basis set group =>   5
Atom  22H    basis set group =>   5
Atom  23H    basis set group =>   5
Atom  24H    basis set group =>   5
---------------------------------
AUXILIARY/C BASIS SET INFORMATION
---------------------------------
There are 5 groups of distinct atoms

 Group   1 Type Re  : 9s9p8d5f4g3h1i contracted to 9s9p8d5f4g3h1i pattern {111111111/111111111/11111111/11111/1111/111/1}
 Group   2 Type C   : 9s7p6d4f1g contracted to 9s7p5d4f1g pattern {111111111/1111111/21111/1111/1}
 Group   3 Type Br  : 11s10p9d7f4g1h contracted to 11s10p9d6f4g1h pattern {11111111111/1111111111/111111111/211111/1111/1}
 Group   4 Type O   : 9s7p6d4f1g contracted to 9s7p5d4f1g pattern {111111111/1111111/21111/1111/1}
 Group   5 Type H   : 5s4p3d1f contracted to 5s4p3d1f pattern {11111/1111/111/1}

Atom   0Re   basis set group =>   1
Atom   1C    basis set group =>   2
Atom   2C    basis set group =>   2
Atom   3C    basis set group =>   2
Atom   4Br   basis set group =>   3
Atom   5O    basis set group =>   4
Atom   6O    basis set group =>   4
Atom   7O    basis set group =>   4
Atom   8C    basis set group =>   2
Atom   9C    basis set group =>   2
Atom  10C    basis set group =>   2
Atom  11C    basis set group =>   2
Atom  12O    basis set group =>   4
Atom  13O    basis set group =>   4
Atom  14C    basis set group =>   2
Atom  15O    basis set group =>   4
Atom  16H    basis set group =>   5
Atom  17C    basis set group =>   2
Atom  18H    basis set group =>   5
Atom  19H    basis set group =>   5
Atom  20H    basis set group =>   5
Atom  21H    basis set group =>   5
Atom  22H    basis set group =>   5
Atom  23H    basis set group =>   5
Atom  24H    basis set group =>   5
----------------------------------
AUXILIARY/JK BASIS SET INFORMATION
----------------------------------
There are 5 groups of distinct atoms

 Group   1 Type Re  : 13s12p11d9f5g3h2i contracted to 11s9p9d7f4g3h2i pattern {31111111111/411111111/311111111/3111111/2111/111/11}
 Group   2 Type C   : 14s10p6d2f1g contracted to 10s8p5d1f1g pattern {5111111111/31111111/21111/2/1}
 Group   3 Type Br  : 20s14p13d10f7g3h contracted to 17s13p12d9f6g3h pattern {41111111111111111/2111111111111/211111111111/211111111/211111/111}
 Group   4 Type O   : 14s10p6d2f1g contracted to 10s8p4d2f1g pattern {5111111111/31111111/3111/11/1}
 Group   5 Type H   : 4s2p2d contracted to 2s2p2d pattern {31/11/11}

Atom   0Re   basis set group =>   1
Atom   1C    basis set group =>   2
Atom   2C    basis set group =>   2
Atom   3C    basis set group =>   2
Atom   4Br   basis set group =>   3
Atom   5O    basis set group =>   4
Atom   6O    basis set group =>   4
Atom   7O    basis set group =>   4
Atom   8C    basis set group =>   2
Atom   9C    basis set group =>   2
Atom  10C    basis set group =>   2
Atom  11C    basis set group =>   2
Atom  12O    basis set group =>   4
Atom  13O    basis set group =>   4
Atom  14C    basis set group =>   2
Atom  15O    basis set group =>   4
Atom  16H    basis set group =>   5
Atom  17C    basis set group =>   2
Atom  18H    basis set group =>   5
Atom  19H    basis set group =>   5
Atom  20H    basis set group =>   5
Atom  21H    basis set group =>   5
Atom  22H    basis set group =>   5
Atom  23H    basis set group =>   5
Atom  24H    basis set group =>   5
-------------------------
ECP PARAMETER INFORMATION
-------------------------

 Group 1, Type Re ECP Def2-ECP (replacing 60 core electrons, lmax=3)

Atom   0Re   ECP group =>   1



           ************************************************************
           *        Program running with 24 parallel MPI-processes    *
           *              working on a common directory               *
           ************************************************************
------------------------------------------------------------------------------
                           ORCA GTO INTEGRAL CALCULATION
                           -- RI-GTO INTEGRALS CHOSEN --
------------------------------------------------------------------------------

                         BASIS SET STATISTICS AND STARTUP INFO

Gaussian basis set:
 # of primitive gaussian shells          ...  475
 # of primitive gaussian functions       ... 1147
 # of contracted shells                  ...  293
 # of contracted basis functions         ...  825
 Highest angular momentum                ...    4
 Maximum contraction depth               ...    8
Auxiliary gaussian basis set:
 # of primitive gaussian shells          ...  681
 # of primitive gaussian functions       ... 2179
 # of contracted shells                  ...  528
 # of contracted aux-basis functions     ... 1774
 Highest angular momentum                ...    6
 Maximum contraction depth               ...    5
Ratio of auxiliary to basis functions    ...  2.15
Integral package used                  ... LIBINT
 One Electron integrals                  
   ECP integrals                         ... done
 Ordering auxiliary basis shells         ... done
 Integral threshhold             Thresh  ...  1.000e-10
 Primitive cut-off               TCut    ...  1.000e-11
 Pre-screening matrix                    ... done
 Shell pair data                         ... 
 Ordering of the shell pairs             ... done (   0.006 sec) 35052 of 43071 pairs
 Determination of significant pairs      ... done (   0.000 sec)
 Creation of shell pair data             ... done (   0.004 sec)
 Storage of shell pair data              ... done (   0.015 sec)
 Shell pair data done in (   0.025 sec)
 Computing two index integrals           ... done
 Cholesky decomposition of the V-matrix  ... done


Timings:
 Total evaluation time                   ...   3.512 sec (  0.059 min)
 One electron matrix time                ...   2.640 sec (  0.044 min) = 75.2%
 Schwartz matrix evaluation time         ...   0.456 sec (  0.008 min) = 13.0%
 Two index repulsion integral time       ...   0.185 sec (  0.003 min) =  5.3%
 Cholesky decomposition of V             ...   0.175 sec (  0.003 min) =  5.0%
 Three index repulsion integral time     ...   0.000 sec (  0.000 min) =  0.0%



           ************************************************************
           *        Program running with 24 parallel MPI-processes    *
           *              working on a common directory               *
           ************************************************************
-------------------------------------------------------------------------------
                                 ORCA SCF
-------------------------------------------------------------------------------

------------
SCF SETTINGS
------------
Hamiltonian:
 Density Functional     Method          .... DFT(GTOs)
 Exchange Functional    Exchange        .... B88
   X-Alpha parameter    XAlpha          ....  0.666667
   Becke's b parameter  XBeta           ....  0.004200
 Correlation Functional Correlation     .... LYP
 LDA part of GGA corr.  LDAOpt          .... VWN-3
 Gradients option       PostSCFGGA      .... off
 Hybrid DFT is turned on
   Fraction HF Exchange ScalHFX         ....  0.530000
   Scaling of DF-GGA-X  ScalDFX         ....  0.470000
   Scaling of DF-GGA-C  ScalDFC         ....  0.730000
   Scaling of DF-LDA-C  ScalLDAC        ....  0.730000
   Perturbative correction              ....  0.270000
   Density functional embedding theory  .... OFF
 RI-approximation to the Coulomb term is turned on
   Number of auxiliary basis functions  .... 1774
   RI-JK (J+K treated both via RI)      .... on


General Settings:
 Integral files         IntName         .... TMB20_T1
 Hartree-Fock type      HFTyp           .... RHF
 Total Charge           Charge          ....    0
 Multiplicity           Mult            ....    1
 Number of Electrons    NEL             ....  160
 Basis Dimension        Dim             ....  825
 Nuclear Repulsion      ENuc            ....   1782.4012873980 Eh

Convergence Acceleration:
 DIIS                   CNVDIIS         .... on
   Start iteration      DIISMaxIt       ....    12
   Startup error        DIISStart       ....  0.200000
   # of expansion vecs  DIISMaxEq       ....     5
   Bias factor          DIISBfac        ....   1.050
   Max. coefficient     DIISMaxC        ....  10.000
 Newton-Raphson         CNVNR           .... off
 SOSCF                  CNVSOSCF        .... off
 Level Shifting         CNVShift        .... on
   Level shift para.    LevelShift      ....    0.2500
   Turn off err/grad.   ShiftErr        ....    0.0010
 Zerner damping         CNVZerner       .... off
 Static damping         CNVDamp         .... on
   Fraction old density DampFac         ....    0.7000
   Max. Damping (<1)    DampMax         ....    0.9800
   Min. Damping (>=0)   DampMin         ....    0.0000
   Turn off err/grad.   DampErr         ....    0.1000
 Fernandez-Rico         CNVRico         .... off

SCF Procedure:
 Maximum # iterations   MaxIter         ....   125
 SCF integral mode      SCFMode         .... Direct
   Integral package                     .... LIBINT
 Reset frequency        DirectResetFreq ....    20
 Integral Threshold     Thresh          ....  1.000e-10 Eh
 Primitive CutOff       TCut            ....  1.000e-11 Eh

Convergence Tolerance:
 Convergence Check Mode ConvCheckMode   .... Total+1el-Energy
 Convergence forced     ConvForced      .... 0
 Energy Change          TolE            ....  1.000e-06 Eh
 1-El. energy change                    ....  1.000e-03 Eh
 DIIS Error             TolErr          ....  1.000e-06


Diagonalization of the overlap matrix:
Smallest eigenvalue                        ... 5.557e-07
Time for diagonalization                   ...    0.115 sec
Threshold for overlap eigenvalues          ... 1.000e-08
Number of eigenvalues below threshold      ... 0
Time for construction of square roots      ...    0.093 sec
Total time needed                          ...    0.210 sec

-------------------
DFT GRID GENERATION
-------------------

General Integration Accuracy     IntAcc      ...  4.670
Radial Grid Type                 RadialGrid  ... Gauss-Chebyshev
Angular Grid (max. acc.)         AngularGrid ... Lebedev-302
Angular grid pruning method      GridPruning ... 3 (G Style)
Weight generation scheme         WeightScheme... Becke
Basis function cutoff            BFCut       ...    1.0000e-10
Integration weight cutoff        WCut        ...    1.0000e-14
Grids for H and He will be reduced by one unit

# of grid points (after initial pruning)     ... 141600 (   0.0 sec)
# of grid points (after weights+screening)   ... 127622 (   0.1 sec)
nearest neighbour list constructed           ...    0.0 sec
Grid point re-assignment to atoms done       ...    0.0 sec
Grid point division into batches done        ...    0.5 sec
Reduced shell lists constructed in    1.0 sec

Total number of grid points                  ...   127622
Total number of batches                      ...     2006
Average number of points per batch           ...       63
Average number of grid points per atom       ...     5105
Average number of shells per batch           ...   183.13 (62.50%)
Average number of basis functions per batch  ...   529.84 (64.22%)
Average number of large shells per batch     ...   140.98 (76.98%)
Average number of large basis fcns per batch ...   408.08 (77.02%)
Average number of aux-shells per batch       ...   183.13 (34.68%)
Average number of aux functions per batch    ...   529.84 (29.87%)
Maximum spatial batch extension              ...   1.80,  1.67,  1.90 au
Average spatial batch extension              ...   0.04,  0.04,  0.04 au

Time for grid setup =    1.135 sec

------------------------------
INITIAL GUESS: MODEL POTENTIAL
------------------------------
Loading Hartree-Fock densities                     ... done
  calling /sw/apps/orca/orca_4_2_0_linux_x86-64_openmpi314/orca TMB20_T1_atom75.inp > TMB20_T1_atom75.out in order to generate an atomic fitting density for atom 0 (Re with ECP) on-the-fly... 
    atom 0 (Re), assumed electronic state with S=6: 1s2 2s2 2p6 3s2 3p6 4s2 3d10 4p6 5s2 4d10 5p6 6s2 4f14 5d5           ... done
Calculating cut-offs                               ... done
Setting up the integral package                    ... done
Initializing the effective Hamiltonian             ... done
Starting the Coulomb interaction                   ... done (   0.1 sec)
Reading the grid                                   ... done
Mapping shells                                     ... done
Starting the XC term evaluation                    ... done (   0.4 sec)
  promolecular density results
     # of electrons  =    219.998602657
     EX              =   -521.771642900
     EC              =     -3.472388894
     EX+EC           =   -525.244031794
Transforming the Hamiltonian                       ... done (   0.1 sec)
Diagonalizing the Hamiltonian                      ... done (   0.1 sec)
Back transforming the eigenvectors                 ... done (   0.0 sec)
Now organizing SCF variables                       ... done
                      ------------------
                      INITIAL GUESS DONE (   3.2 sec)
                      ------------------
--------------
SCF ITERATIONS
--------------
ITER       Energy         Delta-E        Max-DP      RMS-DP      [F,P]     Damp
  0  -3449.0319260599   0.000000000000 1.15350172  0.00420418  0.3513948 0.7000
  1  -3448.8713217293   0.160604330670 0.92446947  0.00330814  0.2666185 0.7000
                               ***Turning on DIIS***
  2  -3449.0296744200  -0.158352690716 0.97479221  0.00292313  0.1905851 0.7000
  3  -3449.3004985581  -0.270824138101 0.83254985  0.00238226  0.1298459 0.7000
  4  -3449.5138608704  -0.213362312361 1.70444846  0.00503812  0.0849529 0.0000
  5  -3449.6574973291  -0.143636458691 0.16434792  0.00049233  0.0316800 0.0000
  6  -3449.6672377302  -0.009740401071 0.06414863  0.00020596  0.0041688 0.0000
  7  -3449.6675460913  -0.000308361048 0.05795135  0.00014175  0.0027612 0.0000
  8  -3449.6676222956  -0.000076204391 0.01098338  0.00005868  0.0015444 0.0000
  9  -3449.6676495813  -0.000027285614 0.02126688  0.00006971  0.0007799 0.0000
 10  -3449.6676565814  -0.000007000167 0.04786488  0.00011455  0.0005950 0.0000
 11  -3449.6676588300  -0.000002248540 0.07499078  0.00018697  0.0002318 0.0000
 12  -3449.6676595554  -0.000000725449 0.02978879  0.00008574  0.0000696 0.0000
                 **** Energy Check signals convergence ****

               *****************************************************
               *                     SUCCESS                       *
               *           SCF CONVERGED AFTER  13 CYCLES          *
               *****************************************************


----------------
TOTAL SCF ENERGY
----------------

Total Energy       :        -3449.66765960 Eh          -93870.22929 eV

Components:
Nuclear Repulsion  :         1782.40128740 Eh           48501.60480 eV
Electronic Energy  :        -5232.06894700 Eh         -142371.83409 eV
One Electron Energy:        -8357.28556263 Eh         -227413.30163 eV
Two Electron Energy:         3125.21661563 Eh           85041.46754 eV

Virial components:
Potential Energy   :        -6843.24741381 Eh         -186214.22908 eV
Kinetic Energy     :         3393.57975421 Eh           92343.99979 eV
Virial Ratio       :            2.01652765


DFT components:
N(Alpha)           :       80.000050397525 electrons
N(Beta)            :       80.000050397525 electrons
N(Total)           :      160.000100795051 electrons
E(X)               :      -92.565890506980 Eh       
E(C)               :       -4.433875025594 Eh       
E(XC)              :      -96.999765532574 Eh       
DFET-embed. en.    :        0.000000000000 Eh       

---------------
SCF CONVERGENCE
---------------

  Last Energy change         ...   -4.4784e-08  Tolerance :   1.0000e-06
  Last MAX-Density change    ...    6.7235e-03  Tolerance :   1.0000e-05
  Last RMS-Density change    ...    2.7916e-05  Tolerance :   1.0000e-06
  Last DIIS Error            ...    4.8410e-05  Tolerance :   1.0000e-06

             **** THE GBW FILE WAS UPDATED (TMB20_T1.gbw) ****
             **** DENSITY FILE WAS UPDATED (TMB20_T1.scfp) ****
             **** ENERGY FILE WAS UPDATED (TMB20_T1.en.tmp) ****
             **** THE GBW FILE WAS UPDATED (TMB20_T1.gbw) ****
             **** DENSITY FILE WAS UPDATED (TMB20_T1.scfp) ****
----------------
ORBITAL ENERGIES
----------------

  NO   OCC          E(Eh)            E(eV) 
   0   2.0000    -485.793613    -13219.1163 
   1   2.0000     -63.545060     -1729.1490 
   2   2.0000     -57.167757     -1555.6137 
   3   2.0000     -57.167159     -1555.5975 
   4   2.0000     -57.166898     -1555.5904 
   5   2.0000     -19.843527      -539.9698 
   6   2.0000     -19.827068      -539.5219 
   7   2.0000     -19.780974      -538.2677 
   8   2.0000     -19.775710      -538.1244 
   9   2.0000     -19.771934      -538.0217 
  10   2.0000     -19.755206      -537.5665 
  11   2.0000     -10.840172      -294.9761 
  12   2.0000     -10.753258      -292.6110 
  13   2.0000     -10.722599      -291.7768 
  14   2.0000     -10.720830      -291.7286 
  15   2.0000     -10.718686      -291.6703 
  16   2.0000     -10.717437      -291.6363 
  17   2.0000     -10.703381      -291.2538 
  18   2.0000     -10.667753      -290.2843 
  19   2.0000     -10.645838      -289.6880 
  20   2.0000      -9.105412      -247.7708 
  21   2.0000      -6.840323      -186.1346 
  22   2.0000      -6.838156      -186.0757 
  23   2.0000      -6.837149      -186.0483 
  24   2.0000      -3.396063       -92.4116 
  25   2.0000      -2.800640       -76.2093 
  26   2.0000      -2.800105       -76.1947 
  27   2.0000      -2.799138       -76.1684 
  28   2.0000      -2.797096       -76.1129 
  29   2.0000      -2.797055       -76.1117 
  30   2.0000      -1.893646       -51.5287 
  31   2.0000      -1.888403       -51.3861 
  32   2.0000      -1.888097       -51.3777 
  33   2.0000      -1.349483       -36.7213 
  34   2.0000      -1.261492       -34.3269 
  35   2.0000      -1.258531       -34.2464 
  36   2.0000      -1.255386       -34.1608 
  37   2.0000      -1.251982       -34.0682 
  38   2.0000      -1.228105       -33.4184 
  39   2.0000      -0.968170       -26.3452 
  40   2.0000      -0.921306       -25.0700 
  41   2.0000      -0.882101       -24.0032 
  42   2.0000      -0.817302       -22.2399 
  43   2.0000      -0.782642       -21.2968 
  44   2.0000      -0.758290       -20.6341 
  45   2.0000      -0.697221       -18.9723 
  46   2.0000      -0.684555       -18.6277 
  47   2.0000      -0.667896       -18.1744 
  48   2.0000      -0.642427       -17.4813 
  49   2.0000      -0.641392       -17.4532 
  50   2.0000      -0.636812       -17.3285 
  51   2.0000      -0.628464       -17.1014 
  52   2.0000      -0.617658       -16.8073 
  53   2.0000      -0.587954       -15.9990 
  54   2.0000      -0.572169       -15.5695 
  55   2.0000      -0.561689       -15.2843 
  56   2.0000      -0.551288       -15.0013 
  57   2.0000      -0.541644       -14.7389 
  58   2.0000      -0.530492       -14.4354 
  59   2.0000      -0.529764       -14.4156 
  60   2.0000      -0.523155       -14.2358 
  61   2.0000      -0.518144       -14.0994 
  62   2.0000      -0.515105       -14.0167 
  63   2.0000      -0.505597       -13.7580 
  64   2.0000      -0.501815       -13.6551 
  65   2.0000      -0.497880       -13.5480 
  66   2.0000      -0.494882       -13.4664 
  67   2.0000      -0.492892       -13.4123 
  68   2.0000      -0.491267       -13.3681 
  69   2.0000      -0.459238       -12.4965 
  70   2.0000      -0.406229       -11.0540 
  71   2.0000      -0.395660       -10.7664 
  72   2.0000      -0.389454       -10.5976 
  73   2.0000      -0.344220        -9.3667 
  74   2.0000      -0.337168        -9.1748 
  75   2.0000      -0.321520        -8.7490 
  76   2.0000      -0.315581        -8.5874 
  77   2.0000      -0.272574        -7.4171 
  78   2.0000      -0.266304        -7.2465 
  79   2.0000      -0.259306        -7.0561 
  80   0.0000      -0.047934        -1.3044 
  81   0.0000      -0.035516        -0.9664 
  82   0.0000       0.000782         0.0213 
  83   0.0000       0.016741         0.4556 
  84   0.0000       0.017340         0.4719 
  85   0.0000       0.028129         0.7654 
  86   0.0000       0.032462         0.8833 
  87   0.0000       0.033362         0.9078 
  88   0.0000       0.040810         1.1105 
  89   0.0000       0.051323         1.3966 
  90   0.0000       0.052848         1.4381 
  91   0.0000       0.059613         1.6221 
  92   0.0000       0.063788         1.7357 
  93   0.0000       0.066063         1.7977 
  94   0.0000       0.070126         1.9082 
  95   0.0000       0.072946         1.9850 
  96   0.0000       0.077477         2.1083 
  97   0.0000       0.081503         2.2178 
  98   0.0000       0.082524         2.2456 
  99   0.0000       0.087437         2.3793 
 100   0.0000       0.093766         2.5515 
 101   0.0000       0.097012         2.6398 
 102   0.0000       0.098472         2.6796 
 103   0.0000       0.103231         2.8091 
 104   0.0000       0.105552         2.8722 
 105   0.0000       0.108114         2.9419 
 106   0.0000       0.109530         2.9805 
 107   0.0000       0.112990         3.0746 
 108   0.0000       0.114999         3.1293 
 109   0.0000       0.117859         3.2071 
 110   0.0000       0.121565         3.3079 
 111   0.0000       0.126479         3.4417 
 112   0.0000       0.130354         3.5471 
 113   0.0000       0.132429         3.6036 
 114   0.0000       0.143265         3.8985 
 115   0.0000       0.147052         4.0015 
 116   0.0000       0.152216         4.1420 
 117   0.0000       0.155491         4.2311 
 118   0.0000       0.156522         4.2592 
 119   0.0000       0.160026         4.3545 
 120   0.0000       0.162062         4.4099 
 121   0.0000       0.167977         4.5709 
 122   0.0000       0.170589         4.6420 
 123   0.0000       0.177166         4.8209 
 124   0.0000       0.184360         5.0167 
 125   0.0000       0.188710         5.1350 
 126   0.0000       0.189056         5.1445 
 127   0.0000       0.192757         5.2452 
 128   0.0000       0.196169         5.3380 
 129   0.0000       0.198923         5.4130 
 130   0.0000       0.199397         5.4259 
 131   0.0000       0.206282         5.6132 
 132   0.0000       0.211133         5.7452 
 133   0.0000       0.216379         5.8880 
 134   0.0000       0.217113         5.9079 
 135   0.0000       0.220130         5.9901 
 136   0.0000       0.222890         6.0651 
 137   0.0000       0.230823         6.2810 
 138   0.0000       0.232741         6.3332 
 139   0.0000       0.238637         6.4936 
 140   0.0000       0.244208         6.6452 
 141   0.0000       0.249236         6.7821 
 142   0.0000       0.251155         6.8343 
 143   0.0000       0.253808         6.9065 
 144   0.0000       0.256085         6.9684 
 145   0.0000       0.264136         7.1875 
 146   0.0000       0.265354         7.2206 
 147   0.0000       0.268766         7.3135 
 148   0.0000       0.274774         7.4770 
 149   0.0000       0.278617         7.5816 
 150   0.0000       0.279451         7.6042 
 151   0.0000       0.281612         7.6630 
 152   0.0000       0.285735         7.7753 
 153   0.0000       0.286924         7.8076 
 154   0.0000       0.292295         7.9537 
 155   0.0000       0.295973         8.0538 
 156   0.0000       0.297089         8.0842 
 157   0.0000       0.298961         8.1351 
 158   0.0000       0.300572         8.1790 
 159   0.0000       0.305629         8.3166 
 160   0.0000       0.309862         8.4318 
 161   0.0000       0.313260         8.5242 
 162   0.0000       0.315944         8.5973 
 163   0.0000       0.317988         8.6529 
 164   0.0000       0.321038         8.7359 
 165   0.0000       0.325587         8.8597 
 166   0.0000       0.329819         8.9748 
 167   0.0000       0.334555         9.1037 
 168   0.0000       0.340101         9.2546 
 169   0.0000       0.343056         9.3350 
 170   0.0000       0.347365         9.4523 
 171   0.0000       0.349210         9.5025 
 172   0.0000       0.355035         9.6610 
 173   0.0000       0.358829         9.7642 
 174   0.0000       0.359665         9.7870 
 175   0.0000       0.364656         9.9228 
 176   0.0000       0.368461        10.0263 
 177   0.0000       0.372697        10.1416 
 178   0.0000       0.376331        10.2405 
 179   0.0000       0.380461        10.3529 
 180   0.0000       0.384966        10.4755 
 181   0.0000       0.391608        10.6562 
 182   0.0000       0.393194        10.6993 
 183   0.0000       0.394971        10.7477 
 184   0.0000       0.397925        10.8281 
 185   0.0000       0.405195        11.0259 
 186   0.0000       0.405484        11.0338 
 187   0.0000       0.412663        11.2291 
 188   0.0000       0.414750        11.2859 
 189   0.0000       0.418581        11.3902 
 190   0.0000       0.423722        11.5301 
 191   0.0000       0.424524        11.5519 
 192   0.0000       0.430014        11.7013 
 193   0.0000       0.433508        11.7964 
 194   0.0000       0.435553        11.8520 
 195   0.0000       0.437746        11.9117 
 196   0.0000       0.441475        12.0131 
 197   0.0000       0.444051        12.0832 
 198   0.0000       0.446796        12.1579 
 199   0.0000       0.453129        12.3303 
 200   0.0000       0.459231        12.4963 
 201   0.0000       0.465455        12.6657 
 202   0.0000       0.466596        12.6967 
 203   0.0000       0.476576        12.9683 
 204   0.0000       0.477089        12.9822 
 205   0.0000       0.482393        13.1266 
 206   0.0000       0.489020        13.3069 
 207   0.0000       0.492153        13.3922 
 208   0.0000       0.498851        13.5744 
 209   0.0000       0.500804        13.6276 
 210   0.0000       0.507212        13.8019 
 211   0.0000       0.510783        13.8991 
 212   0.0000       0.513437        13.9713 
 213   0.0000       0.523743        14.2518 
 214   0.0000       0.527979        14.3670 
 215   0.0000       0.528894        14.3919 
 216   0.0000       0.531490        14.4626 
 217   0.0000       0.538097        14.6424 
 218   0.0000       0.539608        14.6835 
 219   0.0000       0.547261        14.8917 
 220   0.0000       0.550810        14.9883 
 221   0.0000       0.553729        15.0677 
 222   0.0000       0.557864        15.1802 
 223   0.0000       0.563070        15.3219 
 224   0.0000       0.565561        15.3897 
 225   0.0000       0.570142        15.5143 
 226   0.0000       0.575407        15.6576 
 227   0.0000       0.579896        15.7798 
 228   0.0000       0.585313        15.9272 
 229   0.0000       0.587683        15.9917 
 230   0.0000       0.591229        16.0882 
 231   0.0000       0.596633        16.2352 
 232   0.0000       0.599073        16.3016 
 233   0.0000       0.606082        16.4923 
 234   0.0000       0.608380        16.5549 
 235   0.0000       0.609947        16.5975 
 236   0.0000       0.616378        16.7725 
 237   0.0000       0.625414        17.0184 
 238   0.0000       0.630195        17.1485 
 239   0.0000       0.632263        17.2048 
 240   0.0000       0.635039        17.2803 
 241   0.0000       0.641282        17.4502 
 242   0.0000       0.644351        17.5337 
 243   0.0000       0.646524        17.5928 
 244   0.0000       0.650085        17.6897 
 245   0.0000       0.652320        17.7505 
 246   0.0000       0.656182        17.8556 
 247   0.0000       0.660453        17.9718 
 248   0.0000       0.661972        18.0132 
 249   0.0000       0.665104        18.0984 
 250   0.0000       0.672941        18.3117 
 251   0.0000       0.675522        18.3819 
 252   0.0000       0.676748        18.4152 
 253   0.0000       0.682099        18.5609 
 254   0.0000       0.686145        18.6710 
 255   0.0000       0.690975        18.8024 
 256   0.0000       0.692683        18.8489 
 257   0.0000       0.698585        19.0095 
 258   0.0000       0.701267        19.0824 
 259   0.0000       0.708085        19.2680 
 260   0.0000       0.708968        19.2920 
 261   0.0000       0.712396        19.3853 
 262   0.0000       0.716080        19.4855 
 263   0.0000       0.719849        19.5881 
 264   0.0000       0.730244        19.8710 
 265   0.0000       0.734692        19.9920 
 266   0.0000       0.736234        20.0339 
 267   0.0000       0.738992        20.1090 
 268   0.0000       0.744404        20.2563 
 269   0.0000       0.750379        20.4189 
 270   0.0000       0.753689        20.5089 
 271   0.0000       0.757076        20.6011 
 272   0.0000       0.763117        20.7655 
 273   0.0000       0.765805        20.8386 
 274   0.0000       0.771879        21.0039 
 275   0.0000       0.777139        21.1470 
 276   0.0000       0.782015        21.2797 
 277   0.0000       0.786968        21.4145 
 278   0.0000       0.788950        21.4684 
 279   0.0000       0.792347        21.5609 
 280   0.0000       0.796186        21.6653 
 281   0.0000       0.800980        21.7958 
 282   0.0000       0.803331        21.8598 
 283   0.0000       0.806000        21.9324 
 284   0.0000       0.810753        22.0617 
 285   0.0000       0.812857        22.1190 
 286   0.0000       0.821290        22.3484 
 287   0.0000       0.826062        22.4783 
 288   0.0000       0.827723        22.5235 
 289   0.0000       0.831802        22.6345 
 290   0.0000       0.834933        22.7197 
 291   0.0000       0.837879        22.7998 
 292   0.0000       0.852568        23.1996 
 293   0.0000       0.857965        23.3464 
 294   0.0000       0.863243        23.4900 
 295   0.0000       0.868179        23.6243 
 296   0.0000       0.873427        23.7672 
 297   0.0000       0.873875        23.7793 
 298   0.0000       0.879827        23.9413 
 299   0.0000       0.885390        24.0927 
 300   0.0000       0.889828        24.2134 
 301   0.0000       0.895420        24.3656 
 302   0.0000       0.903810        24.5939 
 303   0.0000       0.909735        24.7552 
 304   0.0000       0.915550        24.9134 
 305   0.0000       0.918794        25.0016 
 306   0.0000       0.926220        25.2037 
 307   0.0000       0.932183        25.3660 
 308   0.0000       0.934723        25.4351 
 309   0.0000       0.937143        25.5009 
 310   0.0000       0.947852        25.7924 
 311   0.0000       0.955921        26.0119 
 312   0.0000       0.959423        26.1072 
 313   0.0000       0.963251        26.2114 
 314   0.0000       0.968060        26.3423 
 315   0.0000       0.969223        26.3739 
 316   0.0000       0.987107        26.8606 
 317   0.0000       0.992859        27.0171 
 318   0.0000       1.000176        27.2162 
 319   0.0000       1.006300        27.3828 
 320   0.0000       1.007051        27.4033 
 321   0.0000       1.016977        27.6733 
 322   0.0000       1.021184        27.7878 
 323   0.0000       1.026656        27.9367 
 324   0.0000       1.029228        28.0067 
 325   0.0000       1.035171        28.1684 
 326   0.0000       1.048105        28.5204 
 327   0.0000       1.054316        28.6894 
 328   0.0000       1.061199        28.8767 
 329   0.0000       1.064126        28.9563 
 330   0.0000       1.069880        29.1129 
 331   0.0000       1.081923        29.4406 
 332   0.0000       1.092086        29.7172 
 333   0.0000       1.095881        29.8204 
 334   0.0000       1.100781        29.9538 
 335   0.0000       1.108530        30.1646 
 336   0.0000       1.115411        30.3519 
 337   0.0000       1.124190        30.5908 
 338   0.0000       1.127428        30.6789 
 339   0.0000       1.132304        30.8116 
 340   0.0000       1.139030        30.9946 
 341   0.0000       1.148363        31.2486 
 342   0.0000       1.151934        31.3457 
 343   0.0000       1.162335        31.6287 
 344   0.0000       1.166487        31.7417 
 345   0.0000       1.184637        32.2356 
 346   0.0000       1.190302        32.3898 
 347   0.0000       1.200098        32.6563 
 348   0.0000       1.202341        32.7174 
 349   0.0000       1.204338        32.7717 
 350   0.0000       1.212987        33.0071 
 351   0.0000       1.227254        33.3953 
 352   0.0000       1.233871        33.5753 
 353   0.0000       1.240043        33.7433 
 354   0.0000       1.247096        33.9352 
 355   0.0000       1.254862        34.1465 
 356   0.0000       1.258776        34.2530 
 357   0.0000       1.276477        34.7347 
 358   0.0000       1.281161        34.8622 
 359   0.0000       1.282427        34.8966 
 360   0.0000       1.293389        35.1949 
 361   0.0000       1.304525        35.4979 
 362   0.0000       1.311915        35.6990 
 363   0.0000       1.322764        35.9942 
 364   0.0000       1.327948        36.1353 
 365   0.0000       1.335282        36.3349 
 366   0.0000       1.339074        36.4381 
 367   0.0000       1.359057        36.9818 
 368   0.0000       1.365850        37.1667 
 369   0.0000       1.370109        37.2826 
 370   0.0000       1.374946        37.4142 
 371   0.0000       1.377364        37.4800 
 372   0.0000       1.386460        37.7275 
 373   0.0000       1.396518        38.0012 
 374   0.0000       1.400452        38.1082 
 375   0.0000       1.408074        38.3156 
 376   0.0000       1.412597        38.4387 
 377   0.0000       1.416099        38.5340 
 378   0.0000       1.419424        38.6245 
 379   0.0000       1.427561        38.8459 
 380   0.0000       1.433044        38.9951 
 381   0.0000       1.449380        39.4396 
 382   0.0000       1.457378        39.6573 
 383   0.0000       1.461691        39.7746 
 384   0.0000       1.471880        40.0519 
 385   0.0000       1.475282        40.1445 
 386   0.0000       1.485223        40.4150 
 387   0.0000       1.501326        40.8531 
 388   0.0000       1.509782        41.0833 
 389   0.0000       1.520878        41.3852 
 390   0.0000       1.527090        41.5542 
 391   0.0000       1.538859        41.8745 
 392   0.0000       1.543697        42.0061 
 393   0.0000       1.551340        42.2141 
 394   0.0000       1.555661        42.3317 
 395   0.0000       1.556212        42.3467 
 396   0.0000       1.567407        42.6513 
 397   0.0000       1.580089        42.9964 
 398   0.0000       1.592658        43.3384 
 399   0.0000       1.611544        43.8523 
 400   0.0000       1.619098        44.0579 
 401   0.0000       1.626852        44.2689 
 402   0.0000       1.640322        44.6354 
 403   0.0000       1.655826        45.0573 
 404   0.0000       1.665227        45.3131 
 405   0.0000       1.675291        45.5870 
 406   0.0000       1.693559        46.0841 
 407   0.0000       1.703985        46.3678 
 408   0.0000       1.707774        46.4709 
 409   0.0000       1.733630        47.1745 
 410   0.0000       1.737274        47.2736 
 411   0.0000       1.741873        47.3988 
 412   0.0000       1.744973        47.4831 
 413   0.0000       1.754684        47.7474 
 414   0.0000       1.764107        48.0038 
 415   0.0000       1.776211        48.3332 
 416   0.0000       1.786146        48.6035 
 417   0.0000       1.802954        49.0609 
 418   0.0000       1.814181        49.3664 
 419   0.0000       1.825409        49.6719 
 420   0.0000       1.834772        49.9267 
 421   0.0000       1.837124        49.9907 
 422   0.0000       1.846690        50.2510 
 423   0.0000       1.852760        50.4162 
 424   0.0000       1.863079        50.6969 
 425   0.0000       1.875729        51.0412 
 426   0.0000       1.883889        51.2632 
 427   0.0000       1.898017        51.6477 
 428   0.0000       1.899612        51.6911 
 429   0.0000       1.904078        51.8126 
 430   0.0000       1.910340        51.9830 
 431   0.0000       1.917715        52.1837 
 432   0.0000       1.921167        52.2776 
 433   0.0000       1.925980        52.4086 
 434   0.0000       1.936086        52.6836 
 435   0.0000       1.940143        52.7940 
 436   0.0000       1.946338        52.9626 
 437   0.0000       1.948864        53.0313 
 438   0.0000       1.966686        53.5162 
 439   0.0000       1.970776        53.6275 
 440   0.0000       1.980583        53.8944 
 441   0.0000       1.986170        54.0464 
 442   0.0000       1.989738        54.1435 
 443   0.0000       1.998163        54.3728 
 444   0.0000       2.009137        54.6714 
 445   0.0000       2.014181        54.8087 
 446   0.0000       2.021814        55.0164 
 447   0.0000       2.033646        55.3383 
 448   0.0000       2.041729        55.5583 
 449   0.0000       2.053505        55.8787 
 450   0.0000       2.069756        56.3209 
 451   0.0000       2.078344        56.5546 
 452   0.0000       2.082548        56.6690 
 453   0.0000       2.092315        56.9348 
 454   0.0000       2.111901        57.4678 
 455   0.0000       2.113103        57.5005 
 456   0.0000       2.119863        57.6844 
 457   0.0000       2.128987        57.9327 
 458   0.0000       2.136951        58.1494 
 459   0.0000       2.144371        58.3513 
 460   0.0000       2.148307        58.4584 
 461   0.0000       2.155224        58.6466 
 462   0.0000       2.163531        58.8727 
 463   0.0000       2.187625        59.5283 
 464   0.0000       2.195906        59.7536 
 465   0.0000       2.209598        60.1262 
 466   0.0000       2.217690        60.3464 
 467   0.0000       2.242533        61.0224 
 468   0.0000       2.247957        61.1700 
 469   0.0000       2.254341        61.3437 
 470   0.0000       2.263419        61.5908 
 471   0.0000       2.269313        61.7511 
 472   0.0000       2.294378        62.4332 
 473   0.0000       2.300386        62.5967 
 474   0.0000       2.313000        62.9399 
 475   0.0000       2.330124        63.4059 
 476   0.0000       2.338743        63.6404 
 477   0.0000       2.350395        63.9575 
 478   0.0000       2.357616        64.1540 
 479   0.0000       2.370530        64.5054 
 480   0.0000       2.385652        64.9169 
 481   0.0000       2.394167        65.1486 
 482   0.0000       2.404608        65.4327 
 483   0.0000       2.410127        65.5829 
 484   0.0000       2.425560        66.0028 
 485   0.0000       2.442169        66.4548 
 486   0.0000       2.451558        66.7103 
 487   0.0000       2.468119        67.1609 
 488   0.0000       2.488757        67.7225 
 489   0.0000       2.503509        68.1239 
 490   0.0000       2.515152        68.4408 
 491   0.0000       2.519989        68.5724 
 492   0.0000       2.536520        69.0222 
 493   0.0000       2.537688        69.0540 
 494   0.0000       2.554916        69.5228 
 495   0.0000       2.557399        69.5904 
 496   0.0000       2.570505        69.9470 
 497   0.0000       2.596525        70.6550 
 498   0.0000       2.609977        71.0211 
 499   0.0000       2.632559        71.6356 
 500   0.0000       2.647954        72.0545 
 501   0.0000       2.660092        72.3848 
 502   0.0000       2.687949        73.1428 
 503   0.0000       2.710351        73.7524 
 504   0.0000       2.715963        73.9051 
 505   0.0000       2.726461        74.1908 
 506   0.0000       2.743138        74.6446 
 507   0.0000       2.750366        74.8413 
 508   0.0000       2.767381        75.3043 
 509   0.0000       2.791339        75.9562 
 510   0.0000       2.794371        76.0387 
 511   0.0000       2.803675        76.2919 
 512   0.0000       2.808728        76.4294 
 513   0.0000       2.819625        76.7259 
 514   0.0000       2.825960        76.8983 
 515   0.0000       2.834255        77.1240 
 516   0.0000       2.847732        77.4907 
 517   0.0000       2.853761        77.6548 
 518   0.0000       2.857729        77.7627 
 519   0.0000       2.866173        77.9925 
 520   0.0000       2.873172        78.1830 
 521   0.0000       2.876996        78.2871 
 522   0.0000       2.883565        78.4658 
 523   0.0000       2.894783        78.7710 
 524   0.0000       2.905736        79.0691 
 525   0.0000       2.915341        79.3305 
 526   0.0000       2.933801        79.8328 
 527   0.0000       2.946511        80.1787 
 528   0.0000       2.951154        80.3050 
 529   0.0000       2.975309        80.9623 
 530   0.0000       2.976539        80.9957 
 531   0.0000       2.981955        81.1431 
 532   0.0000       2.988817        81.3299 
 533   0.0000       2.995313        81.5066 
 534   0.0000       3.024425        82.2988 
 535   0.0000       3.028088        82.3985 
 536   0.0000       3.039446        82.7075 
 537   0.0000       3.049357        82.9772 
 538   0.0000       3.054089        83.1060 
 539   0.0000       3.072207        83.5990 
 540   0.0000       3.076051        83.7036 
 541   0.0000       3.098339        84.3101 
 542   0.0000       3.105097        84.4940 
 543   0.0000       3.114382        84.7466 
 544   0.0000       3.122792        84.9755 
 545   0.0000       3.135666        85.3258 
 546   0.0000       3.139566        85.4319 
 547   0.0000       3.143333        85.5344 
 548   0.0000       3.152070        85.7722 
 549   0.0000       3.159043        85.9619 
 550   0.0000       3.168017        86.2061 
 551   0.0000       3.172797        86.3362 
 552   0.0000       3.176725        86.4431 
 553   0.0000       3.185657        86.6861 
 554   0.0000       3.200439        87.0884 
 555   0.0000       3.212731        87.4229 
 556   0.0000       3.220357        87.6304 
 557   0.0000       3.223756        87.7229 
 558   0.0000       3.231796        87.9416 
 559   0.0000       3.239000        88.1377 
 560   0.0000       3.242100        88.2220 
 561   0.0000       3.253691        88.5374 
 562   0.0000       3.259243        88.6885 
 563   0.0000       3.269974        88.9805 
 564   0.0000       3.275474        89.1302 
 565   0.0000       3.288033        89.4719 
 566   0.0000       3.292460        89.5924 
 567   0.0000       3.298562        89.7584 
 568   0.0000       3.316601        90.2493 
 569   0.0000       3.327059        90.5339 
 570   0.0000       3.333584        90.7114 
 571   0.0000       3.337996        90.8315 
 572   0.0000       3.342384        90.9509 
 573   0.0000       3.346419        91.0607 
 574   0.0000       3.355562        91.3095 
 575   0.0000       3.357529        91.3630 
 576   0.0000       3.368493        91.6614 
 577   0.0000       3.385301        92.1187 
 578   0.0000       3.391800        92.2956 
 579   0.0000       3.401284        92.5536 
 580   0.0000       3.405646        92.6724 
 581   0.0000       3.415010        92.9272 
 582   0.0000       3.425384        93.2094 
 583   0.0000       3.452595        93.9499 
 584   0.0000       3.457936        94.0952 
 585   0.0000       3.472572        94.4935 
 586   0.0000       3.484982        94.8312 
 587   0.0000       3.490287        94.9755 
 588   0.0000       3.497387        95.1687 
 589   0.0000       3.512593        95.5825 
 590   0.0000       3.517983        95.7292 
 591   0.0000       3.526149        95.9514 
 592   0.0000       3.545456        96.4767 
 593   0.0000       3.546853        96.5148 
 594   0.0000       3.556875        96.7875 
 595   0.0000       3.559334        96.8544 
 596   0.0000       3.564310        96.9898 
 597   0.0000       3.568778        97.1114 
 598   0.0000       3.573200        97.2317 
 599   0.0000       3.582341        97.4805 
 600   0.0000       3.595301        97.8331 
 601   0.0000       3.607366        98.1614 
 602   0.0000       3.616977        98.4230 
 603   0.0000       3.625536        98.6559 
 604   0.0000       3.637910        98.9926 
 605   0.0000       3.640674        99.0678 
 606   0.0000       3.642357        99.1136 
 607   0.0000       3.651452        99.3611 
 608   0.0000       3.658977        99.5658 
 609   0.0000       3.672460        99.9327 
 610   0.0000       3.676707       100.0483 
 611   0.0000       3.677601       100.0726 
 612   0.0000       3.689113       100.3859 
 613   0.0000       3.692848       100.4875 
 614   0.0000       3.699121       100.6582 
 615   0.0000       3.704725       100.8107 
 616   0.0000       3.712160       101.0130 
 617   0.0000       3.717383       101.1551 
 618   0.0000       3.725313       101.3709 
 619   0.0000       3.728428       101.4557 
 620   0.0000       3.749313       102.0240 
 621   0.0000       3.761606       102.3585 
 622   0.0000       3.774430       102.7074 
 623   0.0000       3.780906       102.8837 
 624   0.0000       3.799841       103.3989 
 625   0.0000       3.808754       103.6415 
 626   0.0000       3.812143       103.7337 
 627   0.0000       3.843899       104.5978 
 628   0.0000       3.866895       105.2236 
 629   0.0000       3.884509       105.7029 
 630   0.0000       3.910277       106.4040 
 631   0.0000       3.912977       106.4775 
 632   0.0000       3.921490       106.7092 
 633   0.0000       3.935004       107.0769 
 634   0.0000       3.952880       107.5633 
 635   0.0000       3.962518       107.8256 
 636   0.0000       3.972898       108.1080 
 637   0.0000       3.983279       108.3905 
 638   0.0000       4.008082       109.0654 
 639   0.0000       4.017487       109.3214 
 640   0.0000       4.043237       110.0221 
 641   0.0000       4.046408       110.1084 
 642   0.0000       4.060385       110.4887 
 643   0.0000       4.073593       110.8481 
 644   0.0000       4.094245       111.4101 
 645   0.0000       4.108191       111.7896 
 646   0.0000       4.115428       111.9865 
 647   0.0000       4.131828       112.4327 
 648   0.0000       4.142727       112.7293 
 649   0.0000       4.163605       113.2975 
 650   0.0000       4.174426       113.5919 
 651   0.0000       4.193043       114.0985 
 652   0.0000       4.201899       114.3395 
 653   0.0000       4.209744       114.5530 
 654   0.0000       4.217114       114.7535 
 655   0.0000       4.226743       115.0155 
 656   0.0000       4.237801       115.3164 
 657   0.0000       4.246054       115.5410 
 658   0.0000       4.264821       116.0517 
 659   0.0000       4.273742       116.2944 
 660   0.0000       4.293637       116.8358 
 661   0.0000       4.301788       117.0576 
 662   0.0000       4.314365       117.3998 
 663   0.0000       4.323142       117.6387 
 664   0.0000       4.339870       118.0939 
 665   0.0000       4.345535       118.2480 
 666   0.0000       4.361332       118.6779 
 667   0.0000       4.374056       119.0241 
 668   0.0000       4.383004       119.2676 
 669   0.0000       4.410917       120.0272 
 670   0.0000       4.417872       120.2164 
 671   0.0000       4.445490       120.9679 
 672   0.0000       4.470146       121.6388 
 673   0.0000       4.478425       121.8641 
 674   0.0000       4.491900       122.2308 
 675   0.0000       4.500789       122.4727 
 676   0.0000       4.509303       122.7044 
 677   0.0000       4.514990       122.8591 
 678   0.0000       4.530434       123.2794 
 679   0.0000       4.543998       123.6485 
 680   0.0000       4.567795       124.2960 
 681   0.0000       4.572836       124.4332 
 682   0.0000       4.599305       125.1534 
 683   0.0000       4.617576       125.6506 
 684   0.0000       4.638018       126.2069 
 685   0.0000       4.646291       126.4320 
 686   0.0000       4.649697       126.5247 
 687   0.0000       4.693185       127.7081 
 688   0.0000       4.723879       128.5433 
 689   0.0000       4.732995       128.7913 
 690   0.0000       4.735988       128.8728 
 691   0.0000       4.767247       129.7234 
 692   0.0000       4.772022       129.8533 
 693   0.0000       4.808676       130.8507 
 694   0.0000       4.815415       131.0341 
 695   0.0000       4.823095       131.2431 
 696   0.0000       4.858172       132.1976 
 697   0.0000       4.880913       132.8164 
 698   0.0000       4.932837       134.2293 
 699   0.0000       4.979694       135.5044 
 700   0.0000       5.004012       136.1661 
 701   0.0000       5.012278       136.3910 
 702   0.0000       5.036830       137.0591 
 703   0.0000       5.079413       138.2179 
 704   0.0000       5.094951       138.6407 
 705   0.0000       5.105562       138.9294 
 706   0.0000       5.107510       138.9824 
 707   0.0000       5.159520       140.3977 
 708   0.0000       5.182687       141.0281 
 709   0.0000       5.211187       141.8036 
 710   0.0000       5.248187       142.8104 
 711   0.0000       5.262622       143.2032 
 712   0.0000       5.288529       143.9082 
 713   0.0000       5.300672       144.2386 
 714   0.0000       5.305551       144.3714 
 715   0.0000       5.305659       144.3743 
 716   0.0000       5.307638       144.4282 
 717   0.0000       5.307951       144.4367 
 718   0.0000       5.312451       144.5592 
 719   0.0000       5.313054       144.5755 
 720   0.0000       5.314535       144.6159 
 721   0.0000       5.349447       145.5659 
 722   0.0000       5.372056       146.1811 
 723   0.0000       5.408635       147.1764 
 724   0.0000       5.417674       147.4224 
 725   0.0000       5.421348       147.5224 
 726   0.0000       5.441898       148.0816 
 727   0.0000       5.447896       148.2448 
 728   0.0000       5.477650       149.0544 
 729   0.0000       5.505958       149.8247 
 730   0.0000       5.540581       150.7669 
 731   0.0000       5.555305       151.1675 
 732   0.0000       5.571607       151.6111 
 733   0.0000       5.602665       152.4563 
 734   0.0000       5.628269       153.1530 
 735   0.0000       5.644372       153.5912 
 736   0.0000       5.716314       155.5488 
 737   0.0000       5.719373       155.6321 
 738   0.0000       5.724995       155.7850 
 739   0.0000       5.736681       156.1030 
 740   0.0000       5.751666       156.5108 
 741   0.0000       5.755713       156.6209 
 742   0.0000       5.763515       156.8332 
 743   0.0000       5.772251       157.0709 
 744   0.0000       5.776402       157.1839 
 745   0.0000       5.779738       157.2747 
 746   0.0000       5.812536       158.1671 
 747   0.0000       5.866060       159.6236 
 748   0.0000       5.934897       161.4967 
 749   0.0000       5.942758       161.7107 
 750   0.0000       5.995137       163.1360 
 751   0.0000       6.076113       165.3394 
 752   0.0000       6.126507       166.7107 
 753   0.0000       6.215195       169.1241 
 754   0.0000       6.232412       169.5926 
 755   0.0000       6.322470       172.0432 
 756   0.0000       6.372196       173.3963 
 757   0.0000       6.469641       176.0479 
 758   0.0000       6.549227       178.2135 
 759   0.0000       6.620455       180.1517 
 760   0.0000       6.653129       181.0408 
 761   0.0000       6.662965       181.3085 
 762   0.0000       6.667407       181.4294 
 763   0.0000       6.671827       181.5496 
 764   0.0000       6.675117       181.6392 
 765   0.0000       6.681514       181.8132 
 766   0.0000       6.684393       181.8916 
 767   0.0000       6.692077       182.1007 
 768   0.0000       6.693327       182.1347 
 769   0.0000       6.695927       182.2054 
 770   0.0000       6.709067       182.5630 
 771   0.0000       6.713912       182.6948 
 772   0.0000       6.728696       183.0971 
 773   0.0000       6.788815       184.7331 
 774   0.0000       6.812478       185.3769 
 775   0.0000       6.837651       186.0619 
 776   0.0000       6.855420       186.5455 
 777   0.0000       6.869413       186.9262 
 778   0.0000       6.882640       187.2861 
 779   0.0000       6.957708       189.3289 
 780   0.0000       6.975828       189.8219 
 781   0.0000       7.030460       191.3085 
 782   0.0000       7.039882       191.5649 
 783   0.0000       7.065136       192.2521 
 784   0.0000       7.110654       193.4907 
 785   0.0000       7.114549       193.5967 
 786   0.0000       7.117412       193.6746 
 787   0.0000       7.122850       193.8226 
 788   0.0000       7.127363       193.9454 
 789   0.0000       7.133929       194.1241 
 790   0.0000       7.139755       194.2826 
 791   0.0000       7.157094       194.7544 
 792   0.0000       7.288728       198.3364 
 793   0.0000       7.304943       198.7776 
 794   0.0000       7.390969       201.1185 
 795   0.0000       7.447907       202.6679 
 796   0.0000       7.452641       202.7967 
 797   0.0000       7.458761       202.9632 
 798   0.0000       7.491839       203.8633 
 799   0.0000       7.537184       205.0972 
 800   0.0000       7.599125       206.7827 
 801   0.0000       7.659988       208.4389 
 802   0.0000       7.797131       212.1707 
 803   0.0000       7.969062       216.8492 
 804   0.0000       8.401484       228.6160 
 805   0.0000      23.576852       641.5588 
 806   0.0000      23.753872       646.3757 
 807   0.0000      23.813713       648.0041 
 808   0.0000      23.857052       649.1834 
 809   0.0000      23.900240       650.3586 
 810   0.0000      23.909271       650.6043 
 811   0.0000      24.106945       655.9833 
 812   0.0000      24.201180       658.5476 
 813   0.0000      24.234741       659.4608 
 814   0.0000      44.887975      1221.4639 
 815   0.0000      44.930365      1222.6174 
 816   0.0000      44.955525      1223.3020 
 817   0.0000      45.072026      1226.4722 
 818   0.0000      45.124653      1227.9042 
 819   0.0000      45.204773      1230.0844 
 820   0.0000      49.174141      1338.0964 
 821   0.0000      50.079708      1362.7381 
 822   0.0000      50.445474      1372.6911 
 823   0.0000      68.061514      1852.0480 
 824   0.0000     510.976753     13904.3843 

                    ********************************
                    * MULLIKEN POPULATION ANALYSIS *
                    ********************************

-----------------------
MULLIKEN ATOMIC CHARGES
-----------------------
   0 Re:    0.504594
   1 C :    0.623690
   2 C :    0.344062
   3 C :    0.124077
   4 Br:   -0.737986
   5 O :   -0.413498
   6 O :   -0.384967
   7 O :   -0.405963
   8 C :   -0.140336
   9 C :    0.305703
  10 C :   -0.076820
  11 C :    0.818689
  12 O :   -0.387607
  13 O :   -0.331154
  14 C :    0.376930
  15 O :   -0.747828
  16 H :    0.337953
  17 C :   -0.148642
  18 H :    0.084046
  19 H :    0.142098
  20 H :    0.146781
  21 H :   -0.103764
  22 H :    0.060532
  23 H :    0.016819
  24 H :   -0.007408
Sum of atomic charges:   -0.0000000

--------------------------------
MULLIKEN REDUCED ORBITAL CHARGES
--------------------------------
  0 Res       :     2.450277  s :     2.450277
      pz      :     2.100643  p :     6.369436
      px      :     2.161611
      py      :     2.107181
      dz2     :     1.264771  d :     5.514144
      dxz     :     0.690187
      dyz     :     1.303042
      dx2y2   :     1.203851
      dxy     :     1.052293
      f0      :     0.011523  f :     0.155428
      f+1     :     0.031204
      f-1     :     0.016325
      f+2     :     0.021223
      f-2     :     0.031370
      f+3     :     0.024940
      f-3     :     0.018844
      g0      :     0.000786  g :     0.006121
      g+1     :     0.000523
      g-1     :     0.000252
      g+2     :     0.000743
      g-2     :     0.000981
      g+3     :     0.000480
      g-3     :     0.001104
      g+4     :     0.000372
      g-4     :     0.000882
  1 C s       :     3.171481  s :     3.171481
      pz      :     0.718551  p :     2.037255
      px      :     0.689599
      py      :     0.629106
      dz2     :     0.050196  d :     0.147093
      dxz     :     0.013425
      dyz     :     0.031922
      dx2y2   :     0.034270
      dxy     :     0.017280
      f0      :     0.004076  f :     0.020481
      f+1     :     0.004107
      f-1     :     0.002296
      f+2     :     0.003970
      f-2     :     0.003708
      f+3     :     0.001284
      f-3     :     0.001040
  2 C s       :     3.363962  s :     3.363962
      pz      :     0.702703  p :     2.106485
      px      :     0.777602
      py      :     0.626180
      dz2     :     0.065890  d :     0.164614
      dxz     :     0.007643
      dyz     :     0.023060
      dx2y2   :     0.044378
      dxy     :     0.023643
      f0      :     0.002417  f :     0.020877
      f+1     :     0.004894
      f-1     :     0.001521
      f+2     :     0.003947
      f-2     :     0.003773
      f+3     :     0.002436
      f-3     :     0.001889
  3 C s       :     3.518972  s :     3.518972
      pz      :     0.633977  p :     2.172753
      px      :     0.685877
      py      :     0.852899
      dz2     :     0.000778  d :     0.163767
      dxz     :     0.014268
      dyz     :     0.073953
      dx2y2   :     0.047181
      dxy     :     0.027586
      f0      :     0.002663  f :     0.020431
      f+1     :     0.000858
      f-1     :     0.002065
      f+2     :     0.001567
      f-2     :     0.002899
      f+3     :     0.003882
      f-3     :     0.006497
  4 Brs       :     8.109081  s :     8.109081
      pz      :     5.955629  p :    17.593229
      px      :     5.848625
      py      :     5.788975
      dz2     :     2.003632  d :    10.033328
      dxz     :     2.003484
      dyz     :     2.004962
      dx2y2   :     2.008161
      dxy     :     2.013090
      f0      :     0.000324  f :     0.002347
      f+1     :     0.000168
      f-1     :     0.000301
      f+2     :     0.000109
      f-2     :     0.000392
      f+3     :     0.000382
      f-3     :     0.000670
  5 O s       :     3.952248  s :     3.952248
      pz      :     1.543717  p :     4.410804
      px      :     1.499090
      py      :     1.367996
      dz2     :     0.003288  d :     0.048678
      dxz     :     0.004263
      dyz     :     0.013517
      dx2y2   :     0.014579
      dxy     :     0.013031
      f0      :     0.000248  f :     0.001768
      f+1     :     0.000070
      f-1     :     0.000146
      f+2     :     0.000137
      f-2     :     0.000270
      f+3     :     0.000291
      f-3     :     0.000606
  6 O s       :     3.951731  s :     3.951731
      pz      :     1.411691  p :     4.379801
      px      :     1.459548
      py      :     1.508562
      dz2     :     0.014870  d :     0.051618
      dxz     :     0.011709
      dyz     :     0.010052
      dx2y2   :     0.007587
      dxy     :     0.007400
      f0      :     0.000387  f :     0.001817
      f+1     :     0.000340
      f-1     :     0.000199
      f+2     :     0.000361
      f-2     :     0.000329
      f+3     :     0.000113
      f-3     :     0.000088
  7 O s       :     3.954699  s :     3.954699
      pz      :     1.449013  p :     4.400532
      px      :     1.435758
      py      :     1.515762
      dz2     :     0.012489  d :     0.048951
      dxz     :     0.010147
      dyz     :     0.007326
      dx2y2   :     0.009804
      dxy     :     0.009186
      f0      :     0.000205  f :     0.001781
      f+1     :     0.000430
      f-1     :     0.000124
      f+2     :     0.000338
      f-2     :     0.000321
      f+3     :     0.000211
      f-3     :     0.000154
  8 C s       :     3.477725  s :     3.477725
      pz      :     0.645228  p :     2.586987
      px      :     0.808408
      py      :     1.133352
      dz2     :     0.017285  d :     0.068915
      dxz     :     0.032277
      dyz     :     0.000922
      dx2y2   :     0.002268
      dxy     :     0.016163
      f0      :     0.000952  f :     0.006708
      f+1     :     0.000241
      f-1     :     0.000083
      f+2     :     0.000665
      f-2     :     0.001410
      f+3     :     0.002390
      f-3     :     0.000967
  9 C s       :     3.261025  s :     3.261025
      pz      :     1.048379  p :     2.503016
      px      :     0.575658
      py      :     0.878979
      dz2     :    -0.020687  d :    -0.075595
      dxz     :    -0.084673
      dyz     :    -0.019356
      dx2y2   :     0.023616
      dxy     :     0.025505
      f0      :     0.000411  f :     0.005851
      f+1     :     0.000630
      f-1     :     0.000195
      f+2     :     0.000651
      f-2     :     0.001065
      f+3     :     0.002318
      f-3     :     0.000580
 10 C s       :     3.050704  s :     3.050704
      pz      :     1.231732  p :     2.913566
      px      :     0.812283
      py      :     0.869551
      dz2     :     0.018544  d :     0.105166
      dxz     :     0.006098
      dyz     :     0.019748
      dx2y2   :     0.021196
      dxy     :     0.039580
      f0      :     0.000764  f :     0.007384
      f+1     :     0.001230
      f-1     :     0.000648
      f+2     :     0.000609
      f-2     :     0.001010
      f+3     :     0.001359
      f-3     :     0.001765
 11 C s       :     3.122154  s :     3.122154
      pz      :     0.606807  p :     1.919836
      px      :     0.626293
      py      :     0.686737
      dz2     :    -0.005048  d :     0.112491
      dxz     :     0.054541
      dyz     :     0.059704
      dx2y2   :    -0.015070
      dxy     :     0.018365
      f0      :     0.002941  f :     0.026831
      f+1     :     0.002156
      f-1     :     0.001501
      f+2     :     0.004426
      f-2     :     0.002247
      f+3     :     0.005257
      f-3     :     0.008303
 12 O s       :     3.850469  s :     3.850469
      pz      :     1.697918  p :     4.499811
      px      :     1.432789
      py      :     1.369103
      dz2     :     0.009484  d :     0.035531
      dxz     :    -0.000747
      dyz     :     0.010573
      dx2y2   :     0.012873
      dxy     :     0.003347
      f0      :     0.000268  f :     0.001796
      f+1     :     0.000164
      f-1     :     0.000282
      f+2     :     0.000143
      f-2     :     0.000148
      f+3     :     0.000395
      f-3     :     0.000397
 13 O s       :     3.864594  s :     3.864594
      pz      :     1.695588  p :     4.441991
      px      :     1.227732
      py      :     1.518671
      dz2     :     0.002795  d :     0.022290
      dxz     :     0.010181
      dyz     :     0.002273
      dx2y2   :     0.012754
      dxy     :    -0.005713
      f0      :     0.000306  f :     0.002278
      f+1     :     0.000410
      f-1     :     0.000171
      f+2     :     0.000288
[...]
      f+1     :     0.003901
      f-1     :     0.001102
      f+2     :     0.002580
      f-2     :     0.005745
      f+3     :     0.004109
      f-3     :     0.008620
  9 C s       :     2.752545  s :     2.752545
      pz      :     0.957647  p :     2.701343
      px      :     0.976587
      py      :     0.767109
      dz2     :     0.107684  d :     0.571834
      dxz     :     0.113022
      dyz     :     0.059674
      dx2y2   :     0.155070
      dxy     :     0.136384
      f0      :     0.003282  f :     0.035568
      f+1     :     0.005673
      f-1     :     0.002363
      f+2     :     0.002809
      f-2     :     0.004231
      f+3     :     0.010002
      f-3     :     0.007209
 10 C s       :     2.613934  s :     2.613934
      pz      :     0.852423  p :     2.633777
      px      :     0.901955
      py      :     0.879399
      dz2     :     0.117710  d :     0.673872
      dxz     :     0.124761
      dyz     :     0.071939
      dx2y2   :     0.155046
      dxy     :     0.204416
      f0      :     0.002983  f :     0.040001
      f+1     :     0.004517
      f-1     :     0.003801
      f+2     :     0.004591
      f-2     :     0.005291
      f+3     :     0.009130
      f-3     :     0.009687
 11 C s       :     2.595961  s :     2.595961
      pz      :     0.580657  p :     2.250175
      px      :     0.790765
      py      :     0.878753
      dz2     :     0.124342  d :     1.314752
      dxz     :     0.213843
      dyz     :     0.238888
      dx2y2   :     0.387780
      dxy     :     0.349900
      f0      :     0.011502  f :     0.163573
      f+1     :     0.012626
      f-1     :     0.010763
      f+2     :     0.028212
      f-2     :     0.015200
      f+3     :     0.031028
      f-3     :     0.054241
 12 O s       :     3.118457  s :     3.118457
      pz      :     1.446974  p :     4.239817
      px      :     1.392636
      py      :     1.400206
      dz2     :     0.043723  d :     0.336954
      dxz     :     0.026964
      dyz     :     0.049528
      dx2y2   :     0.118707
      dxy     :     0.098032
      f0      :     0.000359  f :     0.005484
      f+1     :     0.000390
      f-1     :     0.000686
      f+2     :     0.000647
      f-2     :     0.000280
      f+3     :     0.001376
      f-3     :     0.001747
 13 O s       :     3.161469  s :     3.161469
      pz      :     1.491271  p :     4.268184
      px      :     1.316446
      py      :     1.460467
      dz2     :     0.054098  d :     0.522158
      dxz     :     0.087605
      dyz     :     0.071711
      dx2y2   :     0.157470
      dxy     :     0.151274
      f0      :     0.000648  f :     0.006941
      f+1     :     0.000837
      f-1     :     0.000308
      f+2     :     0.000810
      f-2     :     0.000684
      f+3     :     0.001524
      f-3     :     0.002130
 14 C s       :     2.649375  s :     2.649375
      pz      :     0.610350  p :     2.364834
      px      :     0.863910
      py      :     0.890574
      dz2     :     0.158081  d :     1.055754
      dxz     :     0.177972
      dyz     :     0.131530
      dx2y2   :     0.330636
      dxy     :     0.257535
      f0      :     0.008376  f :     0.104718
      f+1     :     0.007586
      f-1     :     0.009746
      f+2     :     0.008526
      f-2     :     0.017788
      f+3     :     0.017950
      f-3     :     0.034747
 15 O s       :     3.268448  s :     3.268448
      pz      :     1.402183  p :     4.448289
      px      :     1.512194
      py      :     1.533911
      dz2     :     0.072652  d :     0.438459
      dxz     :     0.062809
      dyz     :     0.065077
      dx2y2   :     0.130305
      dxy     :     0.107616
      f0      :     0.000474  f :     0.005812
      f+1     :     0.000378
      f-1     :     0.000644
      f+2     :     0.000279
      f-2     :     0.000868
      f+3     :     0.001420
      f-3     :     0.001750
 16 H s       :     0.531991  s :     0.531991
      pz      :     0.131761  p :     0.686408
      px      :     0.369596
      py      :     0.185050
      dz2     :     0.008400  d :     0.084409
      dxz     :     0.023975
      dyz     :     0.001584
      dx2y2   :     0.027494
      dxy     :     0.022956
 17 C s       :     2.627952  s :     2.627952
      pz      :     0.932019  p :     2.527355
      px      :     0.828856
      py      :     0.766481
      dz2     :     0.075393  d :     0.571280
      dxz     :     0.060982
      dyz     :     0.160413
      dx2y2   :     0.143265
      dxy     :     0.131226
      f0      :     0.006077  f :     0.061388
      f+1     :     0.005836
      f-1     :     0.009163
      f+2     :     0.003615
      f-2     :     0.009703
      f+3     :     0.013992
      f-3     :     0.013002
 18 H s       :     0.701860  s :     0.701860
      pz      :     0.077250  p :     0.251855
      px      :     0.113231
      py      :     0.061374
      dz2     :     0.003543  d :     0.028950
      dxz     :     0.008237
      dyz     :     0.002141
      dx2y2   :     0.007598
      dxy     :     0.007432
 19 H s       :     0.691635  s :     0.691635
      pz      :     0.116088  p :     0.258791
      px      :     0.069283
      py      :     0.073420
      dz2     :     0.008503  d :     0.028878
      dxz     :     0.006225
      dyz     :     0.008889
      dx2y2   :     0.002375
      dxy     :     0.002885
 20 H s       :     0.689109  s :     0.689109
      pz      :     0.107177  p :     0.260914
      px      :     0.078566
      py      :     0.075171
      dz2     :     0.008793  d :     0.028954
      dxz     :     0.004853
      dyz     :     0.007595
      dx2y2   :     0.003308
      dxy     :     0.004405
 21 H s       :     0.669991  s :     0.669991
      pz      :     0.145602  p :     0.330580
      px      :     0.105527
      py      :     0.079450
      dz2     :     0.012344  d :     0.031235
      dxz     :     0.007785
      dyz     :     0.005066
      dx2y2   :     0.002869
      dxy     :     0.003170
 22 H s       :     0.675538  s :     0.675538
      pz      :     0.082345  p :     0.269213
      px      :     0.084538
      py      :     0.102330
      dz2     :     0.002984  d :     0.030921
      dxz     :     0.003003
      dyz     :     0.007406
      dx2y2   :     0.008620
      dxy     :     0.008908
 23 H s       :     0.705481  s :     0.705481
      pz      :     0.077182  p :     0.296316
      px      :     0.115791
      py      :     0.103342
      dz2     :     0.003049  d :     0.029159
      dxz     :     0.006326
      dyz     :     0.003273
      dx2y2   :     0.008515
      dxy     :     0.007995
 24 H s       :     0.689573  s :     0.689573
      pz      :     0.047948  p :     0.229602
      px      :     0.068813
      py      :     0.112841
      dz2     :     0.003054  d :     0.025877
      dxz     :     0.001162
      dyz     :     0.004911
      dx2y2   :     0.008634
      dxy     :     0.008116


                      *****************************
                      * MAYER POPULATION ANALYSIS *
                      *****************************

  NA   - Mulliken gross atomic population
  ZA   - Total nuclear charge
  QA   - Mulliken gross atomic charge
  VA   - Mayer's total valence
  BVA  - Mayer's bonded valence
  FA   - Mayer's free valence

  ATOM       NA         ZA         QA         VA         BVA        FA
  0 Re    14.4954    15.0000     0.5046     5.5410     5.5410    -0.0000
  1 C      5.3763     6.0000     0.6237     3.2485     3.2485     0.0000
  2 C      5.6559     6.0000     0.3441     3.3992     3.3992    -0.0000
  3 C      5.8759     6.0000     0.1241     3.3874     3.3874    -0.0000
  4 Br    35.7380    35.0000    -0.7380     0.5416     0.5416     0.0000
  5 O      8.4135     8.0000    -0.4135     2.1439     2.1439    -0.0000
  6 O      8.3850     8.0000    -0.3850     2.2153     2.2153    -0.0000
  7 O      8.4060     8.0000    -0.4060     2.1547     2.1547     0.0000
  8 C      6.1403     6.0000    -0.1403     3.4198     3.4198    -0.0000
  9 C      5.6943     6.0000     0.3057     3.1410     3.1410     0.0000
 10 C      6.0768     6.0000    -0.0768     3.3516     3.3516    -0.0000
 11 C      5.1813     6.0000     0.8187     3.1748     3.1748    -0.0000
 12 O      8.3876     8.0000    -0.3876     1.7785     1.7785    -0.0000
 13 O      8.3312     8.0000    -0.3312     1.7580     1.7580     0.0000
 14 C      5.6231     6.0000     0.3769     3.6980     3.6980    -0.0000
 15 O      8.7478     8.0000    -0.7478     1.7641     1.7641    -0.0000
 16 H      0.6620     1.0000     0.3380     0.8833     0.8833    -0.0000
 17 C      6.1486     6.0000    -0.1486     3.7710     3.7710     0.0000
 18 H      0.9160     1.0000     0.0840     1.0076     1.0076     0.0000
 19 H      0.8579     1.0000     0.1421     1.0214     1.0214     0.0000
 20 H      0.8532     1.0000     0.1468     1.0261     1.0261    -0.0000
 21 H      1.1038     1.0000    -0.1038     1.0683     1.0683     0.0000
 22 H      0.9395     1.0000     0.0605     1.0318     1.0318    -0.0000
 23 H      0.9832     1.0000     0.0168     0.9994     0.9994     0.0000
 24 H      1.0074     1.0000    -0.0074     0.9933     0.9933    -0.0000

  Mayer bond orders larger than 0.100000
B(  0-Re,  1-C ) :   1.3125 B(  0-Re,  2-C ) :   1.4533 B(  0-Re,  3-C ) :   1.4452 
B(  0-Re,  4-Br) :   0.2969 B(  0-Re,  6-O ) :   0.1019 B(  0-Re,  9-C ) :   0.4749 
B(  0-Re, 15-O ) :   0.2817 B(  1-C ,  2-C ) :  -0.1427 B(  1-C ,  6-O ) :   2.0673 
B(  1-C ,  8-C ) :   0.1331 B(  1-C ,  9-C ) :  -0.1209 B(  2-C ,  4-Br) :   0.1074 
B(  2-C ,  7-O ) :   2.0202 B(  3-C ,  5-O ) :   2.0080 B(  4-Br, 16-H ) :   0.1046 
B(  8-C ,  9-C ) :   1.8334 B(  8-C , 11-C ) :   0.1627 B(  8-C , 14-C ) :   0.1274 
B(  8-C , 23-H ) :   1.1703 B(  9-C , 21-H ) :   1.0496 B(  9-C , 23-H ) :  -0.1552 
B( 10-C , 11-C ) :   0.9348 B( 10-C , 14-C ) :   1.2244 B( 10-C , 22-H ) :   1.1307 
B( 11-C , 12-O ) :   1.0482 B( 11-C , 13-O ) :   0.9035 B( 12-O , 16-H ) :   0.7567 
B( 13-O , 17-C ) :   0.8052 B( 14-C , 15-O ) :   1.2761 B( 14-C , 24-H ) :   1.0443 
B( 17-C , 18-H ) :   1.0433 B( 17-C , 19-H ) :   0.9800 B( 17-C , 20-H ) :   0.9764 


-------
TIMINGS
-------

Total SCF time: 0 days 0 hours 1 min 23 sec 

Total time                  ....      83.817 sec
Sum of individual times     ....      82.890 sec  ( 98.9%)

Fock matrix formation       ....      74.932 sec  ( 89.4%)
  XC integration            ....       5.731 sec  (  7.6% of F)
    Basis function eval.    ....       1.016 sec  ( 17.7% of XC)
    Density eval.           ....       1.857 sec  ( 32.4% of XC)
    XC-Functional eval.     ....       0.059 sec  (  1.0% of XC)
    XC-Potential eval.      ....       2.004 sec  ( 35.0% of XC)
Diagonalization             ....       2.813 sec  (  3.4%)
Density matrix formation    ....       0.130 sec  (  0.2%)
Population analysis         ....       0.148 sec  (  0.2%)
Initial guess               ....       2.105 sec  (  2.5%)
Orbital Transformation      ....       0.000 sec  (  0.0%)
Orbital Orthonormalization  ....       0.000 sec  (  0.0%)
DIIS solution               ....       1.628 sec  (  1.9%)
Grid generation             ....       1.135 sec  (  1.4%)


           ************************************************************
           *        Program running with 24 parallel MPI-processes    *
           *              working on a common directory               *
           ************************************************************

------------------------------------------------------------------------------
                                ORCA  MP2 
------------------------------------------------------------------------------

Freezing NCore=48 chemical core electrons

-------------
RI-MP2 ENERGY
-------------
Dimension of the basis                    ...  825
Memory devoted to MP2                     ... 5000 MB   
Data format for buffers                   ... DOUBLE
Compression type for matrix containers    ... UNCOMPRESSED
Overall scaling of the MP2 energy         ...   2.700e-01
Calculating two index integrals           ... done (    0.032 sec)
Cholesky decomposition of V**-1           ... done (    0.426 sec)

-----------------
RI-TRANSFORMATION (AUX index driven)
-----------------

Dimension of the orbital-basis         ... 825
Dimension of the aux-basis             ... 2060
Transformation of internal/external MOs...   24-  79 to   80- 824
Number Format for Storage              ... Double (8 Byte)
Integral mode                          ... Direct

First Phase: integral generation and transformation of MO indices
  Aux angular momentum 0               ... done (    0.168 sec)
  Aux angular momentum 1               ... done (    0.321 sec)
  Aux angular momentum 2               ... done (    0.409 sec)
  Aux angular momentum 3               ... done (    0.463 sec)
  Aux angular momentum 4               ... done (    0.131 sec)
  Aux angular momentum 5               ... done (    0.168 sec)
  Aux angular momentum 6               ... done (    0.219 sec)
Closing buffer VIA ( 0.64 GB; CompressionRatio= 1.00)
  Phase 1 completed in     2.000 sec
Second Phase: sorting and transformation of aux index

IA-Transformation
Memory available                       ... 4915 MB 
Max. # MO pairs treated in a batch     ... 3    
# of internal orbitals                 ... 56
# batches for internal orbitals        ... 1
Closing buffer IAV ( 0.03 GB; CompressionRatio= 1.00)
(ia|v) transformation done in     0.531 sec

  Phase 2 completed in     1.268 sec
RI-Integral transformation completed in     3.287 sec
Opening buffers                              ... done

Starting loop over batches of integrals:

Operator 0  - window                       ... ( 24- 79)x( 80-824)
Operator 0  - Memory available             ...  5000 MB
Operator 0  - Memory needed per MO         ...  11.7 MB
Operator 0  - Number of orbitals per batch ... 3
Operator 0  - Number of batches            ... 1

OPERATOR  0   PASS   0:  MOs    24 ...   26 +   27 ...   29 +   30 ...   32 +   33 ...   35
                            +   36 ...   38 +   39 ...   41 +   42 ...   44 +   45 ...   47
                            +   48 ...   50 +   51 ...   53 +   54 ...   56 +   57 ...   59
                            +   60 ...   62 +   63 ...   65 +   66 ...   68 +   69 ...   71
                            +   72 ...   74 +   75 ...   77 +   78 ...   79
  Reading integrals       ... ok
  Internal MO  26
Time spent in pair loops =     0.371 sec
Deleting buffer (Ka|jb)[aa] ...done

-----------------------------------------------
 RI-MP2 CORRELATION ENERGY:     -1.232440784 Eh
-----------------------------------------------


-------
TIMINGS
-------

Total time                :   11.059 sec
Integral trafo            :    3.299 sec ( 29.8%)
I/O of integrals          :    0.041 sec (  0.4%)
K(i,j) Operators          :    0.237 sec (  2.1%)
T(i,j) pair energies      :    0.043 sec (  0.4%)
V-calculation             :    0.032 sec (  0.3%)
V**(-1/2)                 :    0.426 sec (  3.9%)
Gamma(ia|P)               :    0.000 sec (  0.0%)
Gamma-Trafo               :    0.000 sec (  0.0%)
D(virtual)                :    0.000 sec (  0.0%)
D(internal)               :    0.000 sec (  0.0%)
W(virtual)                :    0.000 sec (  0.0%)
W(internal)               :    0.000 sec (  0.0%)
L(virtual)                :    0.000 sec (  0.0%)
L(internal)               :    0.000 sec (  0.0%)
G(D)                      :    0.000 sec (  0.0%)
G(Z)                      :    0.000 sec (  0.0%)
Z-Vector Solution         :    0.000 sec (  0.0%)
Z-Vector Solution         :    0.000 sec (  0.0%)
3-Index Derivative 
+ Separable RIJ part      :    0.000 sec (  0.0%)
2-Index Derivative 
+ Separable RIJ part      :    0.000 sec (  0.0%)
Separable Gradient (X)    :    0.000 sec (  0.0%)


---------------------------------------
MP2 TOTAL ENERGY:    -3450.900100385 Eh
---------------------------------------


-------------------------------------------------------------------------------
                          DFT DISPERSION CORRECTION                            
                                                                               
                              DFTD3 V3.1  Rev 1                                
                          USING Becke-Johnson damping                          
-------------------------------------------------------------------------------
The B2PLYP functional is recognized
Active option DFTDOPT                   ...         4   

molecular C6(AA) [au] = 12460.251967 


            DFT-D V3
 parameters
 s6 scaling factor         :     0.6400 
 a1 scaling factor         :     0.3065 
 s8 scaling factor         :     0.9147 
 a2 scaling factor         :     5.0570 
 ad hoc parameters k1-k3   :    16.0000     1.3333    -4.0000 

 Edisp/kcal,au: -20.646394025057  -0.032902119691 
 E6   /kcal   : -10.173870358 
 E8   /kcal   : -10.472523667 
 % E8         :  50.723257794 

-------------------------   ----------------
Dispersion correction           -0.032902120
-------------------------   ----------------


-------------------------   --------------------
FINAL SINGLE POINT ENERGY     -3450.933002504195
-------------------------   --------------------


                            ***************************************
                            *     ORCA property calculations      *
                            ***************************************


  WARNING: The energy has been calculated at the MP2 level but the densities
           used in the property calculations are still SCF densities
           MP2 response densities have not been calculated 
           use %mp2 Density relaxed end
           or  %mp2 Density unrelaxed end

                                    ---------------------
                                    Active property flags
                                    ---------------------
   (+) Dipole Moment


------------------------------------------------------------------------------
                       ORCA ELECTRIC PROPERTIES CALCULATION
------------------------------------------------------------------------------

Dipole Moment Calculation                       ... on
Quadrupole Moment Calculation                   ... off
Polarizability Calculation                      ... off
GBWName                                         ... TMB20_T1.gbw
Electron density file                           ... TMB20_T1.scfp
The origin for moment calculation is the CENTER OF MASS  = ( 0.241899, -0.077842 -0.007808)

-------------
DIPOLE MOMENT
-------------
                                X             Y             Z
Electronic contribution:    156.26981       7.39493       1.61279
Nuclear contribution   :   -160.68759      -5.62073      -0.99353
                        -----------------------------------------
Total Dipole Moment    :     -4.41778       1.77420       0.61926
                        -----------------------------------------
Magnitude (a.u.)       :      4.80084
Magnitude (Debye)      :     12.20276



--------------------
Rotational spectrum 
--------------------
 
Rotational constants in cm-1:     0.016566     0.007303     0.006214 
Rotational constants in MHz :   496.645586   218.925333   186.291690 

 Dipole components along the rotational axes: 
x,y,z [a.u.] :     4.393970     1.821483     0.650604 
x,y,z [Debye]:    11.168585     4.629841     1.653703 

 

Timings for individual modules:

Sum of individual times         ...       99.946 sec (=   1.666 min)
GTO integral calculation        ...        4.002 sec (=   0.067 min)   4.0 %
SCF iterations                  ...       84.211 sec (=   1.404 min)  84.3 %
MP2 module                      ...       11.733 sec (=   0.196 min)  11.7 %
                             ****ORCA TERMINATED NORMALLY****
TOTAL RUN TIME: 0 days 0 hours 1 minutes 40 seconds 565 msec
