
                                 *****************
                                 * O   R   C   A *
                                 *****************

           --- An Ab Initio, DFT and Semiempirical electronic structure package ---

                  #######################################################
                  #                        -***-                        #
                  #          Department of theory and spectroscopy      #
                  #               Directorship: Frank Neese             #
                  #        Max Planck Institute fuer Kohlenforschung    #
                  #                Kaiser Wilhelm Platz 1               #
                  #                 D-45470 Muelheim/Ruhr               #
                  #                      Germany                        #
                  #                                                     #
                  #                  All rights reserved                #
                  #                        -***-                        #
                  #######################################################


                         Program Version 4.2.0 -  RELEASE  -


 With contributions from (in alphabetic order):
   Daniel Aravena         : Magnetic Suceptibility
   Michael Atanasov       : Ab Initio Ligand Field Theory (pilot matlab implementation)
   Alexander A. Auer      : GIAO ZORA, VPT2
   Ute Becker             : Parallelization
   Giovanni Bistoni       : ED, misc. LED, open-shell LED, HFLED
   Martin Brehm           : Molecular dynamics
   Dmytro Bykov           : SCF Hessian
   Vijay G. Chilkuri      : MRCI spin determinant printing, contributions to CSF-ICE
   Dipayan Datta          : RHF DLPNO-CCSD density
   Achintya Kumar Dutta   : EOM-CC, STEOM-CC
   Dmitry Ganyushin       : Spin-Orbit,Spin-Spin,Magnetic field MRCI
   Miquel Garcia          : C-PCM Hessian, Gaussian charge scheme
   Yang Guo               : DLPNO-NEVPT2, CIM, IAO-localization
   Andreas Hansen         : Spin unrestricted coupled pair/coupled cluster methods
   Benjamin Helmich-Paris : CASSCF linear response (MC-RPA)
   Lee Huntington         : MR-EOM, pCC
   Robert Izsak           : Overlap fitted RIJCOSX, COSX-SCS-MP3, EOM
   Christian Kollmar      : KDIIS, OOCD, Brueckner-CCSD(T), CCSD density
   Simone Kossmann        : Meta GGA functionals, TD-DFT gradient, OOMP2, MP2 Hessian
   Martin Krupicka        : AUTO-CI
   Lucas Lang             : DCDCAS
   Dagmar Lenk            : GEPOL surface, SMD
   Dimitrios Liakos       : Extrapolation schemes; Compound Job, initial MDCI parallelization
   Dimitrios Manganas     : Further ROCIS development; embedding schemes
   Dimitrios Pantazis     : SARC Basis sets
   Taras Petrenko         : DFT Hessian,TD-DFT gradient, ASA, ECA, R-Raman, ABS, FL, XAS/XES, NRVS
   Peter Pinski           : DLPNO-MP2, DLPNO-MP2 Gradient
   Christoph Reimann      : Effective Core Potentials
   Marius Retegan         : Local ZFS, SOC
   Christoph Riplinger    : Optimizer, TS searches, QM/MM, DLPNO-CCSD(T), (RO)-DLPNO pert. Triples
   Tobias Risthaus        : Range-separated hybrids, TD-DFT gradient, RPA, STAB
   Michael Roemelt        : Original ROCIS implementation
   Masaaki Saitow         : Open-shell DLPNO-CCSD energy and density
   Barbara Sandhoefer     : DKH picture change effects
   Avijit Sen             : IP-ROCIS
   Kantharuban Sivalingam : CASSCF convergence, NEVPT2, FIC-MRCI
   Bernardo de Souza      : ESD, SOC TD-DFT
   Georgi Stoychev        : AutoAux, RI-MP2 NMR
   Willem Van den Heuvel  : Paramagnetic NMR
   Boris Wezisla          : Elementary symmetry handling
   Frank Wennmohs         : Technical directorship


 We gratefully acknowledge several colleagues who have allowed us to
 interface, adapt or use parts of their codes:
   Stefan Grimme, W. Hujo, H. Kruse,             : VdW corrections, initial TS optimization,
                  C. Bannwarth                     DFT functionals, gCP, sTDA/sTD-DF
   Ed Valeev, F. Pavosevic, A. Kumar             : LibInt (2-el integral package), F12 methods
   Garnet Chan, S. Sharma, J. Yang, R. Olivares  : DMRG
   Ulf Ekstrom                                   : XCFun DFT Library
   Mihaly Kallay                                 : mrcc  (arbitrary order and MRCC methods)
   Andreas Klamt, Michael Diedenhofen            : otool_cosmo (COSMO solvation model)
   Jiri Pittner, Ondrej Demel                    : Mk-CCSD
   Frank Weinhold                                : gennbo (NPA and NBO analysis)
   Christopher J. Cramer and Donald G. Truhlar   : smd solvation model
   Lars Goerigk                                  : TD-DFT with DH, B97 family of functionals
   V. Asgeirsson, H. Jonsson                     : NEB implementation
   FAccTs GmbH                                   : IRC, NEB, NEB-TS, Multilevel, MM, QM/MM, CI optimization
   S Lehtola, MJT Oliveira, MAL Marques          : LibXC Library


 Your calculation uses the libint2 library for the computation of 2-el integrals
 For citations please refer to: http://libint.valeyev.net

 Your ORCA version has been built with support for libXC version: 4.2.3
 For citations please refer to: https://tddft.org/programs/libxc/

 This ORCA versions uses:
   CBLAS   interface :  Fast vector & matrix operations
   LAPACKE interface :  Fast linear algebra routines
   SCALAPACK package :  Parallel linear algebra routines


Your calculation utilizes the atom-pairwise dispersion correction
with the Becke-Johnson damping scheme (D3BJ)
Cite in your paper:
S.Grimme, S.Ehrlich, L.Goerigk, J Comput Chem, (2011), 32, 1456–1465 
S.Grimme, J.Antony, S.Ehrlich and H.Krieg, J.Chem.Phys., 132, (2010), 154104 
   

----- Orbital basis set information -----
Your calculation utilizes the basis: def2-TZVPPD
   F. Weigend and R. Ahlrichs, Phys. Chem. Chem. Phys. 7, 3297 (2005).
   D. Rappoport and F. Furche, J. Chem. Phys. 133 134105 (2010).

----- AuxC basis set information -----
Your calculation utilizes the auxiliary basis: def2-TZVPPD/C
   A. Hellweg, C. Hattig, S. Hofener and W. Klopper, Theor. Chem. Acc. 117, 587 (2007).

----- AuxJK basis set information -----
Your calculation utilizes the auxiliary basis: def2/JK
   H-Ba, Hf-Rn: F. Weigend, J. Comput. Chem. 29, 167 (2008).

cite the ECPs for Au [Def2-ECP] as follows:
Ce-Yb(ecp-28): M. Dolg, H. Stoll, H.Preuss, J. Chem. Phys., 1989, 90, 1730-1734.
Y-Cd(ecp-28), Hf-Hg(ecp-46): D. Andrae,U. Haeussermann, M. Dolg, H. Stoll, H. Preuss, Theor. Chim. Acta, 1990, 77, 123-141.
In-Sb(ecp-28), Tl-Bi(ecp-46): B. Metz, H. Stoll, M. Dolg, J. Chem. Phys., 2000, 113, 2563-2569.
Te-Xe(ecp-28), Po-Rn(ecp-46): K. A. Peterson, D. Figgen, E. Goll, H. Stoll, M. Dolg, J. Chem. Phys., 2003, 119, 11113-11123.
Rb(ecp-28), Cs(ecp-46): T. Leininger, A. Nicklass, W. Kuechle, H. Stoll, M. Dolg, A. Bergner, Chem. Phys. Lett., 1996, 255, 274-280.
Sr(ecp-28), Ba(ecp-46): M. Kaupp, P. V. Schleyer, H. Stoll and H. Preuss, J. Chem. Phys., 1991, 94, 1360-1366.
La(ecp-46): M. Dolg, H. Stoll, A. Savin, H. Preuss, Theor. Chim. Acta, 1989, 75, 173-194.
Lu(ecp-28): X. Cao, M. Dolg, J. Chem. Phys., 2001, 115, 7348-7355.

ECP parameters for Au [Def2-ECP] have been obtained from:
TURBOMOLE (7.0.2)

================================================================================
                                        WARNINGS
                       Please study these warnings very carefully!
================================================================================


WARNING: No MP2 level density has been requested!
         To caclulate MP2 level properties use
         %mp2 Density relaxed end
         or
         %mp2 Density unrelaxed end
         Otherwise for double-hybrid DFT only the energy is correct!

WARNING: The frozen-core approximation is turned on by default for 
         the MP2 part of double-hybrid DFT.

INFO   : the flag for use of LIBINT has been found!

================================================================================
                                       INPUT FILE
================================================================================
NAME = TMB28_C1.in
|  1> #
|  2> # TMB28_C1 ri-B2PLYP-D3BJ/Def2-TZVPPD
|  3> #
|  4> ! rijk ri-b2plyp d3bj def2-tzvppd def2/jk def2-tzvppd/c grid4 nofinalgrid
|  5> 
|  6> *xyz 0 1
|  7> C       -0.405710    1.676464   -0.132905 
|  8> C       -0.911585    0.669613    0.356254 
|  9> C       -0.058307    2.983711   -0.650101 
| 10> H       -0.949750    3.612259   -0.580916 
| 11> H        0.745323    3.420879   -0.056180 
| 12> H        0.255303    2.923577   -1.693087 
| 13> C       -1.922079   -0.256189    0.903797 
| 14> O       -2.980737   -0.448274   -0.040247 
| 15> C       -3.644467    0.620195   -0.535863 
| 16> O       -3.419291    1.755394   -0.218963 
| 17> C       -1.315036   -1.659397    1.187254 
| 18> O       -0.292489   -1.714090    1.813533 
| 19> C       -2.070337   -2.858032    0.718520 
| 20> H       -2.050973   -2.878590   -0.373534 
| 21> H       -1.593281   -3.749478    1.117849 
| 22> H       -3.118661   -2.810283    1.017394 
| 23> C       -4.664667    0.177679   -1.534856 
| 24> H       -5.268795    1.028888   -1.835351 
| 25> H       -4.153929   -0.239550   -2.404894 
| 26> H       -5.293840   -0.608504   -1.117133 
| 27> C       -2.442836    0.266886    2.244835 
| 28> H       -3.205737   -0.415249    2.624458 
| 29> H       -1.614369    0.303689    2.950542 
| 30> H       -2.869838    1.259004    2.124200 
| 31> Au       1.189623    0.069390   -0.174295 
| 32> Cl       0.186320   -1.092349   -1.885264 
| 33> Cl       3.146088   -1.001725   -0.550079 
| 34> Cl       2.155158    1.282412    1.507095 
| 35> *
| 36> 
| 37> %maxcore 5000
| 38> 
| 39> %pal
| 40> nprocs = 24
| 41> end
| 42> 
| 43> 
| 44>                          ****END OF INPUT****
================================================================================

                       ****************************
                       * Single Point Calculation *
                       ****************************

---------------------------------
CARTESIAN COORDINATES (ANGSTROEM)
---------------------------------
  C     -0.405710    1.676464   -0.132905
  C     -0.911585    0.669613    0.356254
  C     -0.058307    2.983711   -0.650101
  H     -0.949750    3.612259   -0.580916
  H      0.745323    3.420879   -0.056180
  H      0.255303    2.923577   -1.693087
  C     -1.922079   -0.256189    0.903797
  O     -2.980737   -0.448274   -0.040247
  C     -3.644467    0.620195   -0.535863
  O     -3.419291    1.755394   -0.218963
  C     -1.315036   -1.659397    1.187254
  O     -0.292489   -1.714090    1.813533
  C     -2.070337   -2.858032    0.718520
  H     -2.050973   -2.878590   -0.373534
  H     -1.593281   -3.749478    1.117849
  H     -3.118661   -2.810283    1.017394
  C     -4.664667    0.177679   -1.534856
  H     -5.268795    1.028888   -1.835351
  H     -4.153929   -0.239550   -2.404894
  H     -5.293840   -0.608504   -1.117133
  C     -2.442836    0.266886    2.244835
  H     -3.205737   -0.415249    2.624458
  H     -1.614369    0.303689    2.950542
  H     -2.869838    1.259004    2.124200
  Au     1.189623    0.069390   -0.174295
  Cl     0.186320   -1.092349   -1.885264
  Cl     3.146088   -1.001725   -0.550079
  Cl     2.155158    1.282412    1.507095

----------------------------
CARTESIAN COORDINATES (A.U.)
----------------------------
  NO LB      ZA    FRAG     MASS         X           Y           Z
   0 C     6.0000    0    12.011   -0.766681    3.168058   -0.251154
   1 C     6.0000    0    12.011   -1.722646    1.265385    0.673222
   2 C     6.0000    0    12.011   -0.110184    5.638397   -1.228513
   3 H     1.0000    0     1.008   -1.794767    6.826180   -1.097772
   4 H     1.0000    0     1.008    1.408456    6.464524   -0.106165
   5 H     1.0000    0     1.008    0.482453    5.524760   -3.199471
   6 C     6.0000    0    12.011   -3.632203   -0.484127    1.707929
   7 O     8.0000    0    15.999   -5.632777   -0.847115   -0.076056
   8 C     6.0000    0    12.011   -6.887045    1.171999   -1.012634
   9 O     8.0000    0    15.999   -6.461524    3.317214   -0.413780
  10 C     6.0000    0    12.011   -2.485058   -3.135806    2.243585
  11 O     8.0000    0    15.999   -0.552724   -3.239161    3.427081
  12 C     6.0000    0    12.011   -3.912370   -5.400898    1.357806
  13 H     1.0000    0     1.008   -3.875777   -5.439747   -0.705877
  14 H     1.0000    0     1.008   -3.010865   -7.085487    2.112428
  15 H     1.0000    0     1.008   -5.893415   -5.310665    1.922596
  16 C     6.0000    0    12.011   -8.814943    0.335765   -2.900457
  17 H     1.0000    0     1.008   -9.956580    1.944317   -3.468311
  18 H     1.0000    0     1.008   -7.849788   -0.452684   -4.544591
  19 H     1.0000    0     1.008  -10.003908   -1.149906   -2.111075
  20 C     6.0000    0    12.011   -4.616291    0.504341    4.242123
  21 H     1.0000    0     1.008   -6.057965   -0.784707    4.959507
  22 H     1.0000    0     1.008   -3.050715    0.573889    5.575716
  23 H     1.0000    0     1.008   -5.423208    2.379173    4.014156
  24 Au   19.0000*   0   196.966    2.248062    0.131128   -0.329370
  25 Cl   17.0000    0    35.453    0.352094   -2.064240   -3.562633
  26 Cl   17.0000    0    35.453    5.945245   -1.892986   -1.039499
  27 Cl   17.0000    0    35.453    4.072658    2.423407    2.847997
* core charge reduced due to ECP

--------------------------------
INTERNAL COORDINATES (ANGSTROEM)
--------------------------------
 C      0   0   0     0.000000000000     0.00000000     0.00000000
 C      1   0   0     1.228387145450     0.00000000     0.00000000
 C      1   2   0     1.448128193854   168.79214473     0.00000000
 H      3   1   2     1.092945458281   107.50989515   355.76168110
 H      3   1   2     1.090724159155   110.12638787   115.15683959
 H      3   1   2     1.090773636577   111.14368651   236.46346863
 C      2   1   3     1.475808525551   160.71730875    11.73944301
 O      7   2   1     1.431388305850   110.23666799    55.71230314
 C      8   7   2     1.351961070563   119.92204441   305.15015094
 O      9   8   7     1.199919418368   123.96850747   358.81169031
 C      7   2   1     1.554941081187   111.49568140   174.06677513
 O     11   7   2     1.200341233691   117.95651424    49.57770823
 C     11   7   2     1.492285839436   118.03352224   226.85059581
 H     13  11   7     1.092419120473   108.67161408    68.32903860
 H     13  11   7     1.087070397119   108.73407306   188.19966135
 H     13  11   7     1.091141074221   111.41312702   310.73358940
 C      9   8   7     1.494863025265   110.24813349   177.90249355
 H     17   9   8     1.086197333402   109.41925892   173.27338190
 H     17   9   8     1.091741482462   109.05232332   293.42365153
 H     17   9   8     1.090153603006   110.56645034    51.34721503
 C      7   2   1     1.530744337281   110.09668529   291.85636325
 H     21   7   2     1.091530904810   109.20285917   178.63424783
 H     21   7   2     1.088914322041   108.69227279   297.57632816
 H     21   7   2     1.086821805612   110.38676078    58.15058517
 Au     2   1   3     2.248738524238    74.93138353   182.22294640
 Cl    25   2   1     2.298623356031    84.41462757   253.54034085
 Cl    25   2   1     2.261914289735   166.85712050   184.30645497
 Cl    25   2   1     2.287083850848    94.55729635    72.14220312

---------------------------
INTERNAL COORDINATES (A.U.)
---------------------------
 C      0   0   0     0.000000000000     0.00000000     0.00000000
 C      1   0   0     2.321315291330     0.00000000     0.00000000
 C      1   2   0     2.736565693194   168.79214473     0.00000000
 H      3   1   2     2.065367595465   107.50989515   355.76168110
 H      3   1   2     2.061169948455   110.12638787   115.15683959
 H      3   1   2     2.061263447232   111.14368651   236.46346863
 C      2   1   3     2.788873939398   160.71730875    11.73944301
 O      7   2   1     2.704931889355   110.23666799    55.71230314
 C      8   7   2     2.554836167086   119.92204441   305.15015094
 O      9   8   7     2.267519083490   123.96850747   358.81169031
 C      7   2   1     2.938412797826   111.49568140   174.06677513
 O     11   7   2     2.268316198929   117.95651424    49.57770823
 C     11   7   2     2.820011550063   118.03352224   226.85059581
 H     13  11   7     2.064372961154   108.67161408    68.32903860
 H     13  11   7     2.054265338848   108.73407306   188.19966135
 H     13  11   7     2.061957803751   111.41312702   310.73358940
 C      9   8   7     2.824881725476   110.24813349   177.90249355
 H     17   9   8     2.052615487526   109.41925892   173.27338190
 H     17   9   8     2.063092410895   109.05232332   293.42365153
 H     17   9   8     2.060091753589   110.56645034    51.34721503
 C      7   2   1     2.892687578512   110.09668529   291.85636325
 H     21   7   2     2.062694476802   109.20285917   178.63424783
 H     21   7   2     2.057749851963   108.69227279   297.57632816
 H     21   7   2     2.053795568980   110.38676078    58.15058517
 Au     2   1   3     4.249499957609    74.93138353   182.22294640
 Cl    25   2   1     4.343768627933    84.41462757   253.54034085
 Cl    25   2   1     4.274398546002   166.85712050   184.30645497
 Cl    25   2   1     4.321962123416    94.55729635    72.14220312

---------------------
BASIS SET INFORMATION
---------------------
There are 5 groups of distinct atoms

 Group   1 Type C   : 12s6p3d1f contracted to 6s3p3d1f pattern {621111/411/111/1}
 Group   2 Type H   : 5s3p1d contracted to 3s3p1d pattern {311/111/1}
 Group   3 Type O   : 12s7p3d1f contracted to 6s4p3d1f pattern {621111/4111/111/1}
 Group   4 Type Au  : 8s8p6d2f1g contracted to 6s5p3d2f1g pattern {311111/41111/411/11/1}
 Group   5 Type Cl  : 15s10p4d1f contracted to 6s6p4d1f pattern {732111/511111/1111/1}

Atom   0C    basis set group =>   1
Atom   1C    basis set group =>   1
Atom   2C    basis set group =>   1
Atom   3H    basis set group =>   2
Atom   4H    basis set group =>   2
Atom   5H    basis set group =>   2
Atom   6C    basis set group =>   1
Atom   7O    basis set group =>   3
Atom   8C    basis set group =>   1
Atom   9O    basis set group =>   3
Atom  10C    basis set group =>   1
Atom  11O    basis set group =>   3
Atom  12C    basis set group =>   1
Atom  13H    basis set group =>   2
Atom  14H    basis set group =>   2
Atom  15H    basis set group =>   2
Atom  16C    basis set group =>   1
Atom  17H    basis set group =>   2
Atom  18H    basis set group =>   2
Atom  19H    basis set group =>   2
Atom  20C    basis set group =>   1
Atom  21H    basis set group =>   2
Atom  22H    basis set group =>   2
Atom  23H    basis set group =>   2
Atom  24Au   basis set group =>   4
Atom  25Cl   basis set group =>   5
Atom  26Cl   basis set group =>   5
Atom  27Cl   basis set group =>   5
---------------------------------
AUXILIARY/C BASIS SET INFORMATION
---------------------------------
There are 5 groups of distinct atoms

 Group   1 Type C   : 9s7p6d4f1g contracted to 9s7p5d4f1g pattern {111111111/1111111/21111/1111/1}
 Group   2 Type H   : 5s4p3d1f contracted to 5s4p3d1f pattern {11111/1111/111/1}
 Group   3 Type O   : 9s7p6d4f1g contracted to 9s7p5d4f1g pattern {111111111/1111111/21111/1111/1}
 Group   4 Type Au  : 9s9p8d5f4g3h1i contracted to 9s9p8d5f4g3h1i pattern {111111111/111111111/11111111/11111/1111/111/1}
 Group   5 Type Cl  : 12s9p8d6f2g contracted to 12s9p8d6f2g pattern {111111111111/111111111/11111111/111111/11}

Atom   0C    basis set group =>   1
Atom   1C    basis set group =>   1
Atom   2C    basis set group =>   1
Atom   3H    basis set group =>   2
Atom   4H    basis set group =>   2
Atom   5H    basis set group =>   2
Atom   6C    basis set group =>   1
Atom   7O    basis set group =>   3
Atom   8C    basis set group =>   1
Atom   9O    basis set group =>   3
Atom  10C    basis set group =>   1
Atom  11O    basis set group =>   3
Atom  12C    basis set group =>   1
Atom  13H    basis set group =>   2
Atom  14H    basis set group =>   2
Atom  15H    basis set group =>   2
Atom  16C    basis set group =>   1
Atom  17H    basis set group =>   2
Atom  18H    basis set group =>   2
Atom  19H    basis set group =>   2
Atom  20C    basis set group =>   1
Atom  21H    basis set group =>   2
Atom  22H    basis set group =>   2
Atom  23H    basis set group =>   2
Atom  24Au   basis set group =>   4
Atom  25Cl   basis set group =>   5
Atom  26Cl   basis set group =>   5
Atom  27Cl   basis set group =>   5
----------------------------------
AUXILIARY/JK BASIS SET INFORMATION
----------------------------------
There are 5 groups of distinct atoms

 Group   1 Type C   : 14s10p6d2f1g contracted to 10s8p5d1f1g pattern {5111111111/31111111/21111/2/1}
 Group   2 Type H   : 4s2p2d contracted to 2s2p2d pattern {31/11/11}
 Group   3 Type O   : 14s10p6d2f1g contracted to 10s8p4d2f1g pattern {5111111111/31111111/3111/11/1}
 Group   4 Type Au  : 13s12p11d9f5g3h2i contracted to 13s11p10d8f4g3h2i pattern {1111111111111/21111111111/2111111111/21111111/2111/111/11}
 Group   5 Type Cl  : 16s12p10d4f1g contracted to 13s11p9d4f1g pattern {4111111111111/21111111111/211111111/1111/1}

Atom   0C    basis set group =>   1
Atom   1C    basis set group =>   1
Atom   2C    basis set group =>   1
Atom   3H    basis set group =>   2
Atom   4H    basis set group =>   2
Atom   5H    basis set group =>   2
Atom   6C    basis set group =>   1
Atom   7O    basis set group =>   3
Atom   8C    basis set group =>   1
Atom   9O    basis set group =>   3
Atom  10C    basis set group =>   1
Atom  11O    basis set group =>   3
Atom  12C    basis set group =>   1
Atom  13H    basis set group =>   2
Atom  14H    basis set group =>   2
Atom  15H    basis set group =>   2
Atom  16C    basis set group =>   1
Atom  17H    basis set group =>   2
Atom  18H    basis set group =>   2
Atom  19H    basis set group =>   2
Atom  20C    basis set group =>   1
Atom  21H    basis set group =>   2
Atom  22H    basis set group =>   2
Atom  23H    basis set group =>   2
Atom  24Au   basis set group =>   4
Atom  25Cl   basis set group =>   5
Atom  26Cl   basis set group =>   5
Atom  27Cl   basis set group =>   5
-------------------------
ECP PARAMETER INFORMATION
-------------------------

 Group 1, Type Au ECP Def2-ECP (replacing 60 core electrons, lmax=3)

Atom  24Au   ECP group =>   1



           ************************************************************
           *        Program running with 24 parallel MPI-processes    *
           *              working on a common directory               *
           ************************************************************
------------------------------------------------------------------------------
                           ORCA GTO INTEGRAL CALCULATION
                           -- RI-GTO INTEGRALS CHOSEN --
------------------------------------------------------------------------------

                         BASIS SET STATISTICS AND STARTUP INFO

Gaussian basis set:
 # of primitive gaussian shells          ...  490
 # of primitive gaussian functions       ... 1162
 # of contracted shells                  ...  311
 # of contracted basis functions         ...  869
 Highest angular momentum                ...    4
 Maximum contraction depth               ...    7
Auxiliary gaussian basis set:
 # of primitive gaussian shells          ...  676
 # of primitive gaussian functions       ... 2092
 # of contracted shells                  ...  537
 # of contracted aux-basis functions     ... 1753
 Highest angular momentum                ...    6
 Maximum contraction depth               ...    5
Ratio of auxiliary to basis functions    ...  2.02
Integral package used                  ... LIBINT
 One Electron integrals                  
   ECP integrals                         ... done
 Ordering auxiliary basis shells         ... done
 Integral threshhold             Thresh  ...  1.000e-10
 Primitive cut-off               TCut    ...  1.000e-11
 Pre-screening matrix                    ... done
 Shell pair data                         ... 
 Ordering of the shell pairs             ... done (   0.007 sec) 40002 of 48516 pairs
 Determination of significant pairs      ... done (   0.000 sec)
 Creation of shell pair data             ... done (   0.004 sec)
 Storage of shell pair data              ... done (   0.018 sec)
 Shell pair data done in (   0.029 sec)
 Computing two index integrals           ... done
 Cholesky decomposition of the V-matrix  ... done


Timings:
 Total evaluation time                   ...   3.619 sec (  0.060 min)
 One electron matrix time                ...   2.856 sec (  0.048 min) = 78.9%
 Schwartz matrix evaluation time         ...   0.434 sec (  0.007 min) = 12.0%
 Two index repulsion integral time       ...   0.138 sec (  0.002 min) =  3.8%
 Cholesky decomposition of V             ...   0.131 sec (  0.002 min) =  3.6%
 Three index repulsion integral time     ...   0.000 sec (  0.000 min) =  0.0%



           ************************************************************
           *        Program running with 24 parallel MPI-processes    *
           *              working on a common directory               *
           ************************************************************
-------------------------------------------------------------------------------
                                 ORCA SCF
-------------------------------------------------------------------------------

------------
SCF SETTINGS
------------
Hamiltonian:
 Density Functional     Method          .... DFT(GTOs)
 Exchange Functional    Exchange        .... B88
   X-Alpha parameter    XAlpha          ....  0.666667
   Becke's b parameter  XBeta           ....  0.004200
 Correlation Functional Correlation     .... LYP
 LDA part of GGA corr.  LDAOpt          .... VWN-3
 Gradients option       PostSCFGGA      .... off
 Hybrid DFT is turned on
   Fraction HF Exchange ScalHFX         ....  0.530000
   Scaling of DF-GGA-X  ScalDFX         ....  0.470000
   Scaling of DF-GGA-C  ScalDFC         ....  0.730000
   Scaling of DF-LDA-C  ScalLDAC        ....  0.730000
   Perturbative correction              ....  0.270000
   Density functional embedding theory  .... OFF
 RI-approximation to the Coulomb term is turned on
   Number of auxiliary basis functions  .... 1753
   RI-JK (J+K treated both via RI)      .... on


General Settings:
 Integral files         IntName         .... TMB28_C1
 Hartree-Fock type      HFTyp           .... RHF
 Total Charge           Charge          ....    0
 Multiplicity           Mult            ....    1
 Number of Electrons    NEL             ....  160
 Basis Dimension        Dim             ....  869
 Nuclear Repulsion      ENuc            ....   1829.0504274765 Eh

Convergence Acceleration:
 DIIS                   CNVDIIS         .... on
   Start iteration      DIISMaxIt       ....    12
   Startup error        DIISStart       ....  0.200000
   # of expansion vecs  DIISMaxEq       ....     5
   Bias factor          DIISBfac        ....   1.050
   Max. coefficient     DIISMaxC        ....  10.000
 Newton-Raphson         CNVNR           .... off
 SOSCF                  CNVSOSCF        .... off
 Level Shifting         CNVShift        .... on
   Level shift para.    LevelShift      ....    0.2500
   Turn off err/grad.   ShiftErr        ....    0.0010
 Zerner damping         CNVZerner       .... off
 Static damping         CNVDamp         .... on
   Fraction old density DampFac         ....    0.7000
   Max. Damping (<1)    DampMax         ....    0.9800
   Min. Damping (>=0)   DampMin         ....    0.0000
   Turn off err/grad.   DampErr         ....    0.1000
 Fernandez-Rico         CNVRico         .... off

SCF Procedure:
 Maximum # iterations   MaxIter         ....   125
 SCF integral mode      SCFMode         .... Direct
   Integral package                     .... LIBINT
 Reset frequency        DirectResetFreq ....    20
 Integral Threshold     Thresh          ....  1.000e-10 Eh
 Primitive CutOff       TCut            ....  1.000e-11 Eh

Convergence Tolerance:
 Convergence Check Mode ConvCheckMode   .... Total+1el-Energy
 Convergence forced     ConvForced      .... 0
 Energy Change          TolE            ....  1.000e-06 Eh
 1-El. energy change                    ....  1.000e-03 Eh
 DIIS Error             TolErr          ....  1.000e-06


Diagonalization of the overlap matrix:
Smallest eigenvalue                        ... 1.147e-07
Time for diagonalization                   ...    0.132 sec
Threshold for overlap eigenvalues          ... 1.000e-08
Number of eigenvalues below threshold      ... 0
Time for construction of square roots      ...    0.093 sec
Total time needed                          ...    0.227 sec

-------------------
DFT GRID GENERATION
-------------------

General Integration Accuracy     IntAcc      ...  4.670
Radial Grid Type                 RadialGrid  ... Gauss-Chebyshev
Angular Grid (max. acc.)         AngularGrid ... Lebedev-302
Angular grid pruning method      GridPruning ... 3 (G Style)
Weight generation scheme         WeightScheme... Becke
Basis function cutoff            BFCut       ...    1.0000e-10
Integration weight cutoff        WCut        ...    1.0000e-14
Grids for H and He will be reduced by one unit

# of grid points (after initial pruning)     ... 147138 (   0.0 sec)
# of grid points (after weights+screening)   ... 130379 (   0.1 sec)
nearest neighbour list constructed           ...    0.0 sec
Grid point re-assignment to atoms done       ...    0.0 sec
Grid point division into batches done        ...    0.5 sec
Reduced shell lists constructed in    1.0 sec

Total number of grid points                  ...   130379
Total number of batches                      ...     2048
Average number of points per batch           ...       63
Average number of grid points per atom       ...     4656
Average number of shells per batch           ...   193.97 (62.37%)
Average number of basis functions per batch  ...   547.87 (63.05%)
Average number of large shells per batch     ...   152.14 (78.44%)
Average number of large basis fcns per batch ...   426.57 (77.86%)
Average number of aux-shells per batch       ...   193.97 (36.12%)
Average number of aux functions per batch    ...   547.87 (31.25%)
Maximum spatial batch extension              ...   2.30,  2.58,  2.08 au
Average spatial batch extension              ...   0.05,  0.05,  0.05 au

Time for grid setup =    1.187 sec

------------------------------
INITIAL GUESS: MODEL POTENTIAL
------------------------------
Loading Hartree-Fock densities                     ... done
  calling /sw/apps/orca/orca_4_2_0_linux_x86-64_openmpi314/orca TMB28_C1_atom79.inp > TMB28_C1_atom79.out in order to generate an atomic fitting density for atom 24 (Au with ECP) on-the-fly... 
    atom 24 (Au), assumed electronic state with S=2: 1s2 2s2 2p6 3s2 3p6 4s2 3d10 4p6 5s2 4d10 5p6 6s1 4f14 5d10           ... done
Calculating cut-offs                               ... done
Setting up the integral package                    ... done
Initializing the effective Hamiltonian             ... done
Starting the Coulomb interaction                   ... done (   0.1 sec)
Reading the grid                                   ... done
Mapping shells                                     ... done
Starting the XC term evaluation                    ... done (   0.4 sec)
  promolecular density results
     # of electrons  =    219.995265810
     EX              =   -524.401430861
     EC              =     -3.403917581
     EX+EC           =   -527.805348442
Transforming the Hamiltonian                       ... done (   0.1 sec)
Diagonalizing the Hamiltonian                      ... done (   0.1 sec)
Back transforming the eigenvectors                 ... done (   0.0 sec)
Now organizing SCF variables                       ... done
                      ------------------
                      INITIAL GUESS DONE (   3.0 sec)
                      ------------------
--------------
SCF ITERATIONS
--------------
ITER       Energy         Delta-E        Max-DP      RMS-DP      [F,P]     Damp
  0  -2089.7939840745   0.000000000000 4.89679128  0.01268474  0.5254378 0.7000
  1  -2089.6794647813   0.114519293119 3.42740994  0.00923909  0.3918010 0.7000
  2  -2089.8227198838  -0.143255102422 2.97121709  0.00763872  0.2781730 0.7000
                               ***Turning on DIIS***
  3  -2090.0352948628  -0.212574979001 2.51857507  0.00624530  0.1937947 0.7000
  4  -2090.2090121631  -0.173717300290 1.74260441  0.00427501  0.1327529 0.7000
  5  -2090.3041271221  -0.095114959018 4.54734949  0.01085985  0.0900771 0.0000
  6  -2090.3707938424  -0.066666720320 0.71574701  0.00186979  0.0193223 0.0000
  7  -2090.3723275738  -0.001533731447 0.18635127  0.00067885  0.0031108 0.0000
  8  -2090.3723963974  -0.000068823576 0.38079136  0.00108933  0.0009621 0.0000
  9  -2090.3724203873  -0.000023989859 0.30053603  0.00085625  0.0010956 0.0000
 10  -2090.3724246848  -0.000004297497 0.82925047  0.00217981  0.0003187 0.0000
 11  -2090.3724259268  -0.000001242031 0.33483619  0.00079849  0.0002105 0.0000
 12  -2090.3724261648  -0.000000238022 0.27924730  0.00072041  0.0000827 0.0000
 13  -2090.3724262278  -0.000000063007 0.56744501  0.00129680  0.0000323 0.0000
                 **** Energy Check signals convergence ****

               *****************************************************
               *                     SUCCESS                       *
               *           SCF CONVERGED AFTER  14 CYCLES          *
               *****************************************************


----------------
TOTAL SCF ENERGY
----------------

Total Energy       :        -2090.37242624 Eh          -56881.92554 eV

Components:
Nuclear Repulsion  :         1829.05042748 Eh           49770.99244 eV
Electronic Energy  :        -3919.42285372 Eh         -106652.91798 eV
One Electron Energy:        -6570.63503260 Eh         -178796.06905 eV
Two Electron Energy:         2651.21217889 Eh           72143.15107 eV

Virial components:
Potential Energy   :        -4087.85069406 Eh         -111236.07252 eV
Kinetic Energy     :         1997.47826782 Eh           54354.14698 eV
Virial Ratio       :            2.04650572


DFT components:
N(Alpha)           :       79.999911488910 electrons
N(Beta)            :       79.999911488910 electrons
N(Total)           :      159.999822977820 electrons
E(X)               :      -80.198323314195 Eh       
E(C)               :       -4.315039500175 Eh       
E(XC)              :      -84.513362814371 Eh       
DFET-embed. en.    :        0.000000000000 Eh       

---------------
SCF CONVERGENCE
---------------

  Last Energy change         ...   -1.2200e-08  Tolerance :   1.0000e-06
  Last MAX-Density change    ...    2.3178e-01  Tolerance :   1.0000e-05
  Last RMS-Density change    ...    5.4127e-04  Tolerance :   1.0000e-06
  Last DIIS Error            ...    1.5079e-05  Tolerance :   1.0000e-06

             **** THE GBW FILE WAS UPDATED (TMB28_C1.gbw) ****
             **** DENSITY FILE WAS UPDATED (TMB28_C1.scfp) ****
             **** ENERGY FILE WAS UPDATED (TMB28_C1.en.tmp) ****
             **** THE GBW FILE WAS UPDATED (TMB28_C1.gbw) ****
             **** DENSITY FILE WAS UPDATED (TMB28_C1.scfp) ****
----------------
ORBITAL ENERGIES
----------------

  NO   OCC          E(Eh)            E(eV) 
   0   2.0000    -102.884319     -2799.6246 
   1   2.0000    -102.881081     -2799.5365 
   2   2.0000    -102.878077     -2799.4548 
   3   2.0000     -19.811554      -539.0998 
   4   2.0000     -19.750120      -537.4281 
   5   2.0000     -19.748348      -537.3799 
   6   2.0000     -10.791721      -293.6577 
   7   2.0000     -10.760356      -292.8042 
   8   2.0000     -10.748713      -292.4873 
   9   2.0000     -10.714819      -291.5651 
  10   2.0000     -10.702409      -291.2274 
  11   2.0000     -10.671709      -290.3920 
  12   2.0000     -10.649789      -289.7955 
  13   2.0000     -10.647176      -289.7244 
  14   2.0000     -10.637923      -289.4726 
  15   2.0000      -9.889382      -269.1038 
  16   2.0000      -9.885978      -269.0112 
  17   2.0000      -9.882733      -268.9228 
  18   2.0000      -7.528282      -204.8550 
  19   2.0000      -7.525083      -204.7679 
  20   2.0000      -7.523820      -204.7335 
  21   2.0000      -7.523491      -204.7246 
  22   2.0000      -7.522114      -204.6871 
  23   2.0000      -7.520251      -204.6364 
  24   2.0000      -7.519978      -204.6290 
  25   2.0000      -7.516907      -204.5454 
  26   2.0000      -7.516437      -204.5326 
  27   2.0000      -4.525210      -123.1372 
  28   2.0000      -2.642885       -71.9165 
  29   2.0000      -2.640300       -71.8462 
  30   2.0000      -2.622365       -71.3582 
  31   2.0000      -1.300251       -35.3816 
  32   2.0000      -1.233695       -33.5705 
  33   2.0000      -1.206203       -32.8225 
  34   2.0000      -1.002632       -27.2830 
  35   2.0000      -0.955699       -26.0059 
  36   2.0000      -0.910531       -24.7768 
  37   2.0000      -0.892013       -24.2729 
  38   2.0000      -0.891691       -24.2642 
  39   2.0000      -0.888987       -24.1906 
  40   2.0000      -0.887126       -24.1399 
  41   2.0000      -0.870019       -23.6744 
  42   2.0000      -0.804107       -21.8809 
  43   2.0000      -0.723486       -19.6871 
  44   2.0000      -0.691464       -18.8157 
  45   2.0000      -0.619860       -16.8672 
  46   2.0000      -0.614832       -16.7304 
  47   2.0000      -0.602164       -16.3857 
  48   2.0000      -0.593594       -16.1525 
  49   2.0000      -0.572468       -15.5777 
  50   2.0000      -0.568120       -15.4593 
  51   2.0000      -0.560489       -15.2517 
  52   2.0000      -0.550714       -14.9857 
  53   2.0000      -0.542934       -14.7740 
  54   2.0000      -0.530663       -14.4401 
  55   2.0000      -0.527327       -14.3493 
  56   2.0000      -0.524895       -14.2831 
  57   2.0000      -0.516859       -14.0645 
  58   2.0000      -0.511258       -13.9120 
  59   2.0000      -0.508287       -13.8312 
  60   2.0000      -0.506581       -13.7848 
  61   2.0000      -0.504865       -13.7381 
  62   2.0000      -0.501162       -13.6373 
  63   2.0000      -0.480576       -13.0771 
  64   2.0000      -0.478285       -13.0148 
  65   2.0000      -0.466458       -12.6930 
  66   2.0000      -0.454011       -12.3543 
  67   2.0000      -0.421053       -11.4574 
  68   2.0000      -0.416858       -11.3433 
  69   2.0000      -0.404624       -11.0104 
  70   2.0000      -0.403219       -10.9721 
  71   2.0000      -0.387481       -10.5439 
  72   2.0000      -0.375264       -10.2115 
  73   2.0000      -0.364404        -9.9159 
  74   2.0000      -0.359220        -9.7749 
  75   2.0000      -0.346289        -9.4230 
  76   2.0000      -0.343128        -9.3370 
  77   2.0000      -0.340797        -9.2736 
  78   2.0000      -0.337880        -9.1942 
  79   2.0000      -0.327784        -8.9194 
  80   0.0000      -0.092308        -2.5118 
  81   0.0000      -0.004793        -0.1304 
  82   0.0000       0.006041         0.1644 
  83   0.0000       0.011402         0.3103 
  84   0.0000       0.024731         0.6730 
  85   0.0000       0.025904         0.7049 
  86   0.0000       0.034340         0.9344 
  87   0.0000       0.037038         1.0078 
  88   0.0000       0.041394         1.1264 
  89   0.0000       0.050799         1.3823 
  90   0.0000       0.054492         1.4828 
  91   0.0000       0.061326         1.6688 
  92   0.0000       0.062642         1.7046 
  93   0.0000       0.067598         1.8394 
  94   0.0000       0.075158         2.0452 
  95   0.0000       0.081301         2.2123 
  96   0.0000       0.084205         2.2913 
  97   0.0000       0.087030         2.3682 
  98   0.0000       0.090441         2.4610 
  99   0.0000       0.093664         2.5487 
 100   0.0000       0.098880         2.6907 
 101   0.0000       0.100126         2.7246 
 102   0.0000       0.102557         2.7907 
 103   0.0000       0.110888         3.0174 
 104   0.0000       0.114379         3.1124 
 105   0.0000       0.117196         3.1891 
 106   0.0000       0.121451         3.3048 
 107   0.0000       0.126625         3.4456 
 108   0.0000       0.130213         3.5433 
 109   0.0000       0.133643         3.6366 
 110   0.0000       0.140086         3.8119 
 111   0.0000       0.142050         3.8654 
 112   0.0000       0.143174         3.8960 
 113   0.0000       0.147957         4.0261 
 114   0.0000       0.154149         4.1946 
 115   0.0000       0.156656         4.2628 
 116   0.0000       0.161206         4.3866 
 117   0.0000       0.165686         4.5085 
 118   0.0000       0.169403         4.6097 
 119   0.0000       0.177932         4.8418 
 120   0.0000       0.183613         4.9964 
 121   0.0000       0.187139         5.0923 
 122   0.0000       0.189079         5.1451 
 123   0.0000       0.194834         5.3017 
 124   0.0000       0.200289         5.4501 
 125   0.0000       0.204103         5.5539 
 126   0.0000       0.209233         5.6935 
 127   0.0000       0.214571         5.8388 
 128   0.0000       0.218086         5.9344 
 129   0.0000       0.221310         6.0221 
 130   0.0000       0.228305         6.2125 
 131   0.0000       0.230861         6.2821 
 132   0.0000       0.231672         6.3041 
 133   0.0000       0.235479         6.4077 
 134   0.0000       0.241240         6.5645 
 135   0.0000       0.243778         6.6335 
 136   0.0000       0.246645         6.7116 
 137   0.0000       0.250687         6.8215 
 138   0.0000       0.252013         6.8576 
 139   0.0000       0.254397         6.9225 
 140   0.0000       0.257883         7.0174 
 141   0.0000       0.258920         7.0456 
 142   0.0000       0.267608         7.2820 
 143   0.0000       0.269402         7.3308 
 144   0.0000       0.270321         7.3558 
 145   0.0000       0.272227         7.4077 
 146   0.0000       0.274447         7.4681 
 147   0.0000       0.281698         7.6654 
 148   0.0000       0.283709         7.7201 
 149   0.0000       0.287466         7.8223 
 150   0.0000       0.288957         7.8629 
 151   0.0000       0.290899         7.9158 
 152   0.0000       0.293193         7.9782 
 153   0.0000       0.297088         8.0842 
 154   0.0000       0.300896         8.1878 
 155   0.0000       0.301669         8.2088 
 156   0.0000       0.304200         8.2777 
 157   0.0000       0.306548         8.3416 
 158   0.0000       0.311140         8.4666 
 159   0.0000       0.313379         8.5275 
 160   0.0000       0.315531         8.5860 
 161   0.0000       0.318718         8.6728 
 162   0.0000       0.321563         8.7502 
 163   0.0000       0.326652         8.8887 
 164   0.0000       0.329921         8.9776 
 165   0.0000       0.332095         9.0368 
 166   0.0000       0.332396         9.0449 
 167   0.0000       0.334389         9.0992 
 168   0.0000       0.336713         9.1624 
 169   0.0000       0.339369         9.2347 
 170   0.0000       0.341710         9.2984 
 171   0.0000       0.343936         9.3590 
 172   0.0000       0.348882         9.4936 
 173   0.0000       0.350724         9.5437 
 174   0.0000       0.352762         9.5991 
 175   0.0000       0.355856         9.6833 
 176   0.0000       0.360377         9.8064 
 177   0.0000       0.364489         9.9182 
 178   0.0000       0.366771         9.9803 
 179   0.0000       0.370642        10.0857 
 180   0.0000       0.371742        10.1156 
 181   0.0000       0.374586        10.1930 
 182   0.0000       0.380316        10.3489 
 183   0.0000       0.382712        10.4141 
 184   0.0000       0.385294        10.4844 
 185   0.0000       0.390591        10.6285 
 186   0.0000       0.391926        10.6649 
 187   0.0000       0.398452        10.8424 
 188   0.0000       0.402421        10.9504 
 189   0.0000       0.405506        11.0344 
 190   0.0000       0.410173        11.1614 
 191   0.0000       0.412878        11.2350 
 192   0.0000       0.415412        11.3039 
 193   0.0000       0.420851        11.4519 
 194   0.0000       0.425529        11.5792 
 195   0.0000       0.427745        11.6395 
 196   0.0000       0.433342        11.7918 
 197   0.0000       0.438113        11.9217 
 198   0.0000       0.439020        11.9463 
 199   0.0000       0.444296        12.0899 
 200   0.0000       0.447129        12.1670 
 201   0.0000       0.448930        12.2160 
 202   0.0000       0.453146        12.3307 
 203   0.0000       0.454845        12.3770 
 204   0.0000       0.457233        12.4419 
 205   0.0000       0.464546        12.6409 
 206   0.0000       0.466513        12.6945 
 207   0.0000       0.471973        12.8430 
 208   0.0000       0.476183        12.9576 
 209   0.0000       0.480818        13.0837 
 210   0.0000       0.482611        13.1325 
 211   0.0000       0.485604        13.2140 
 212   0.0000       0.489161        13.3107 
 213   0.0000       0.494487        13.4557 
 214   0.0000       0.500883        13.6297 
 215   0.0000       0.501651        13.6506 
 216   0.0000       0.507294        13.8042 
 217   0.0000       0.509976        13.8771 
 218   0.0000       0.514232        13.9930 
 219   0.0000       0.519485        14.1359 
 220   0.0000       0.522090        14.2068 
 221   0.0000       0.531418        14.4606 
 222   0.0000       0.533854        14.5269 
 223   0.0000       0.538942        14.6654 
 224   0.0000       0.544556        14.8181 
 225   0.0000       0.549372        14.9492 
 226   0.0000       0.554857        15.0984 
 227   0.0000       0.557257        15.1637 
 228   0.0000       0.563312        15.3285 
 229   0.0000       0.564031        15.3481 
 230   0.0000       0.569966        15.5096 
 231   0.0000       0.572746        15.5852 
 232   0.0000       0.574894        15.6437 
 233   0.0000       0.581348        15.8193 
 234   0.0000       0.582611        15.8536 
 235   0.0000       0.589997        16.0546 
 236   0.0000       0.592157        16.1134 
 237   0.0000       0.593943        16.1620 
 238   0.0000       0.598095        16.2750 
 239   0.0000       0.607488        16.5306 
 240   0.0000       0.608423        16.5560 
 241   0.0000       0.620482        16.8842 
 242   0.0000       0.623053        16.9541 
 243   0.0000       0.626226        17.0405 
 244   0.0000       0.630269        17.1505 
 245   0.0000       0.638698        17.3799 
 246   0.0000       0.639537        17.4027 
 247   0.0000       0.644119        17.5274 
 248   0.0000       0.644569        17.5396 
 249   0.0000       0.652923        17.7669 
 250   0.0000       0.655464        17.8361 
 251   0.0000       0.659346        17.9417 
 252   0.0000       0.663153        18.0453 
 253   0.0000       0.666859        18.1462 
 254   0.0000       0.670870        18.2553 
 255   0.0000       0.672565        18.3014 
 256   0.0000       0.676291        18.4028 
 257   0.0000       0.682013        18.5585 
 258   0.0000       0.684926        18.6378 
 259   0.0000       0.688452        18.7337 
 260   0.0000       0.693423        18.8690 
 261   0.0000       0.695493        18.9253 
 262   0.0000       0.702871        19.1261 
 263   0.0000       0.710257        19.3271 
 264   0.0000       0.715730        19.4760 
 265   0.0000       0.719529        19.5794 
 266   0.0000       0.721939        19.6450 
 267   0.0000       0.724211        19.7068 
 268   0.0000       0.724439        19.7130 
 269   0.0000       0.728322        19.8186 
 270   0.0000       0.729784        19.8584 
 271   0.0000       0.731190        19.8967 
 272   0.0000       0.737640        20.0722 
 273   0.0000       0.741213        20.1694 
 274   0.0000       0.745622        20.2894 
 275   0.0000       0.747217        20.3328 
 276   0.0000       0.750769        20.4295 
 277   0.0000       0.753990        20.5171 
 278   0.0000       0.758561        20.6415 
 279   0.0000       0.759513        20.6674 
 280   0.0000       0.761649        20.7255 
 281   0.0000       0.764451        20.8018 
 282   0.0000       0.768771        20.9193 
 283   0.0000       0.773433        21.0462 
 284   0.0000       0.776820        21.1383 
 285   0.0000       0.778948        21.1962 
 286   0.0000       0.785090        21.3634 
 287   0.0000       0.788293        21.4506 
 288   0.0000       0.790512        21.5109 
 289   0.0000       0.798737        21.7347 
 290   0.0000       0.802907        21.8482 
 291   0.0000       0.806815        21.9545 
 292   0.0000       0.811349        22.0779 
 293   0.0000       0.814245        22.1567 
 294   0.0000       0.817209        22.2374 
 295   0.0000       0.822776        22.3889 
 296   0.0000       0.827778        22.5250 
 297   0.0000       0.830665        22.6035 
 298   0.0000       0.838813        22.8253 
 299   0.0000       0.839738        22.8504 
 300   0.0000       0.845613        23.0103 
 301   0.0000       0.850109        23.1326 
 302   0.0000       0.851657        23.1748 
 303   0.0000       0.857779        23.3413 
 304   0.0000       0.864294        23.5186 
 305   0.0000       0.869639        23.6641 
 306   0.0000       0.871912        23.7259 
 307   0.0000       0.873705        23.7747 
 308   0.0000       0.885015        24.0825 
 309   0.0000       0.889864        24.2144 
 310   0.0000       0.894238        24.3334 
 311   0.0000       0.898545        24.4507 
 312   0.0000       0.900812        24.5124 
 313   0.0000       0.913867        24.8676 
 314   0.0000       0.916552        24.9406 
 315   0.0000       0.920715        25.0539 
 316   0.0000       0.929906        25.3040 
 317   0.0000       0.935512        25.4566 
 318   0.0000       0.940438        25.5906 
 319   0.0000       0.948399        25.8072 
 320   0.0000       0.953283        25.9402 
 321   0.0000       0.957756        26.0619 
 322   0.0000       0.965343        26.2683 
 323   0.0000       0.968064        26.3423 
 324   0.0000       0.979415        26.6512 
 325   0.0000       0.984674        26.7943 
 326   0.0000       0.989960        26.9382 
 327   0.0000       0.998731        27.1768 
 328   0.0000       1.001661        27.2566 
 329   0.0000       1.013128        27.5686 
 330   0.0000       1.019952        27.7543 
 331   0.0000       1.022959        27.8361 
 332   0.0000       1.038898        28.2698 
 333   0.0000       1.043283        28.3892 
 334   0.0000       1.051626        28.6162 
 335   0.0000       1.062463        28.9111 
 336   0.0000       1.063155        28.9299 
 337   0.0000       1.077163        29.3111 
 338   0.0000       1.078906        29.3585 
 339   0.0000       1.093269        29.7494 
 340   0.0000       1.095731        29.8163 
 341   0.0000       1.100697        29.9515 
 342   0.0000       1.107468        30.1357 
 343   0.0000       1.119264        30.4567 
 344   0.0000       1.128121        30.6977 
 345   0.0000       1.132755        30.8238 
 346   0.0000       1.141806        31.0701 
 347   0.0000       1.144402        31.1408 
 348   0.0000       1.146715        31.2037 
 349   0.0000       1.163222        31.6529 
 350   0.0000       1.169344        31.8195 
 351   0.0000       1.174313        31.9547 
 352   0.0000       1.177970        32.0542 
 353   0.0000       1.183729        32.2109 
 354   0.0000       1.189271        32.3617 
 355   0.0000       1.197963        32.5982 
 356   0.0000       1.213913        33.0323 
 357   0.0000       1.220048        33.1992 
 358   0.0000       1.227242        33.3950 
 359   0.0000       1.231556        33.5123 
 360   0.0000       1.237851        33.6836 
 361   0.0000       1.248385        33.9703 
 362   0.0000       1.263404        34.3790 
 363   0.0000       1.269319        34.5399 
 364   0.0000       1.274843        34.6902 
 365   0.0000       1.282032        34.8859 
 366   0.0000       1.285193        34.9719 
 367   0.0000       1.295509        35.2526 
 368   0.0000       1.296260        35.2730 
 369   0.0000       1.303800        35.4782 
 370   0.0000       1.309999        35.6469 
 371   0.0000       1.310971        35.6733 
 372   0.0000       1.316597        35.8264 
 373   0.0000       1.330513        36.2051 
 374   0.0000       1.338720        36.4284 
 375   0.0000       1.342992        36.5447 
 376   0.0000       1.347237        36.6602 
 377   0.0000       1.355550        36.8864 
 378   0.0000       1.362055        37.0634 
 379   0.0000       1.374805        37.4103 
 380   0.0000       1.379412        37.5357 
 381   0.0000       1.381725        37.5986 
 382   0.0000       1.399323        38.0775 
 383   0.0000       1.411779        38.4164 
 384   0.0000       1.415647        38.5217 
 385   0.0000       1.416786        38.5527 
 386   0.0000       1.422142        38.6985 
 387   0.0000       1.432050        38.9681 
 388   0.0000       1.443073        39.2680 
 389   0.0000       1.448931        39.4274 
 390   0.0000       1.455913        39.6174 
 391   0.0000       1.461053        39.7573 
 392   0.0000       1.465850        39.8878 
 393   0.0000       1.478437        40.2303 
 394   0.0000       1.485061        40.4106 
 395   0.0000       1.490118        40.5482 
 396   0.0000       1.496866        40.7318 
 397   0.0000       1.504057        40.9275 
 398   0.0000       1.506563        40.9957 
 399   0.0000       1.512534        41.1581 
 400   0.0000       1.532052        41.6892 
 401   0.0000       1.540813        41.9277 
 402   0.0000       1.546193        42.0740 
 403   0.0000       1.551909        42.2296 
 404   0.0000       1.563522        42.5456 
 405   0.0000       1.573525        42.8178 
 406   0.0000       1.580098        42.9967 
 407   0.0000       1.587019        43.1850 
 408   0.0000       1.593260        43.3548 
 409   0.0000       1.612235        43.8712 
 410   0.0000       1.618182        44.0330 
 411   0.0000       1.638808        44.5942 
 412   0.0000       1.642071        44.6830 
 413   0.0000       1.655277        45.0424 
 414   0.0000       1.662505        45.2391 
 415   0.0000       1.666940        45.3597 
 416   0.0000       1.674152        45.5560 
 417   0.0000       1.690055        45.9887 
 418   0.0000       1.691913        46.0393 
 419   0.0000       1.694698        46.1151 
 420   0.0000       1.698220        46.2109 
 421   0.0000       1.702938        46.3393 
 422   0.0000       1.707958        46.4759 
 423   0.0000       1.713884        46.6371 
 424   0.0000       1.723395        46.8960 
 425   0.0000       1.738615        47.3101 
 426   0.0000       1.742021        47.4028 
 427   0.0000       1.752176        47.6791 
 428   0.0000       1.757838        47.8332 
 429   0.0000       1.766164        48.0598 
 430   0.0000       1.771907        48.2160 
 431   0.0000       1.785011        48.5726 
 432   0.0000       1.795390        48.8550 
 433   0.0000       1.798100        48.9288 
 434   0.0000       1.814073        49.3634 
 435   0.0000       1.822110        49.5821 
 436   0.0000       1.831604        49.8405 
 437   0.0000       1.833151        49.8826 
 438   0.0000       1.850884        50.3651 
 439   0.0000       1.858466        50.5714 
 440   0.0000       1.874683        51.0127 
 441   0.0000       1.884262        51.2734 
 442   0.0000       1.900978        51.7282 
 443   0.0000       1.919267        52.2259 
 444   0.0000       1.921347        52.2825 
 445   0.0000       1.934460        52.6393 
 446   0.0000       1.942544        52.8593 
 447   0.0000       1.954605        53.1875 
 448   0.0000       1.957772        53.2737 
 449   0.0000       1.973007        53.6882 
 450   0.0000       2.005548        54.5737 
 451   0.0000       2.008409        54.6516 
 452   0.0000       2.035631        55.3923 
 453   0.0000       2.044461        55.6326 
 454   0.0000       2.057462        55.9864 
 455   0.0000       2.075823        56.4860 
 456   0.0000       2.083417        56.6926 
 457   0.0000       2.087827        56.8127 
 458   0.0000       2.095999        57.0350 
 459   0.0000       2.100401        57.1548 
 460   0.0000       2.118725        57.6534 
 461   0.0000       2.127227        57.8848 
 462   0.0000       2.130287        57.9681 
 463   0.0000       2.138480        58.1910 
 464   0.0000       2.143009        58.3142 
 465   0.0000       2.146596        58.4118 
 466   0.0000       2.152939        58.5844 
 467   0.0000       2.160141        58.7804 
 468   0.0000       2.164371        58.8955 
 469   0.0000       2.172520        59.1173 
 470   0.0000       2.179670        59.3118 
 471   0.0000       2.186835        59.5068 
 472   0.0000       2.198337        59.8198 
 473   0.0000       2.203054        59.9482 
 474   0.0000       2.205927        60.0263 
 475   0.0000       2.208201        60.0882 
 476   0.0000       2.217224        60.3337 
 477   0.0000       2.224889        60.5423 
 478   0.0000       2.227742        60.6199 
 479   0.0000       2.233774        60.7841 
 480   0.0000       2.242215        61.0138 
 481   0.0000       2.250576        61.2413 
 482   0.0000       2.257054        61.4176 
 483   0.0000       2.265368        61.6438 
 484   0.0000       2.270331        61.7788 
 485   0.0000       2.272552        61.8393 
 486   0.0000       2.278805        62.0094 
 487   0.0000       2.280991        62.0689 
 488   0.0000       2.297657        62.5224 
 489   0.0000       2.299264        62.5662 
 490   0.0000       2.303876        62.6917 
 491   0.0000       2.308257        62.8109 
 492   0.0000       2.312788        62.9342 
 493   0.0000       2.326891        63.3179 
 494   0.0000       2.335891        63.5628 
 495   0.0000       2.342792        63.7506 
 496   0.0000       2.351240        63.9805 
 497   0.0000       2.357528        64.1516 
 498   0.0000       2.368607        64.4531 
 499   0.0000       2.372021        64.5460 
 500   0.0000       2.390989        65.0621 
 501   0.0000       2.400407        65.3184 
 502   0.0000       2.404406        65.4272 
 503   0.0000       2.417908        65.7946 
 504   0.0000       2.427091        66.0445 
 505   0.0000       2.430229        66.1299 
 506   0.0000       2.449163        66.6451 
 507   0.0000       2.458439        66.8975 
 508   0.0000       2.465366        67.0860 
 509   0.0000       2.476547        67.3903 
 510   0.0000       2.495094        67.8950 
 511   0.0000       2.499767        68.0221 
 512   0.0000       2.509118        68.2766 
 513   0.0000       2.530611        68.8614 
 514   0.0000       2.543754        69.2191 
 515   0.0000       2.554071        69.4998 
 516   0.0000       2.563583        69.7586 
 517   0.0000       2.581592        70.2487 
 518   0.0000       2.587209        70.4015 
 519   0.0000       2.596151        70.6449 
 520   0.0000       2.609173        70.9992 
 521   0.0000       2.630352        71.5755 
 522   0.0000       2.645248        71.9809 
 523   0.0000       2.677167        72.8494 
 524   0.0000       2.680154        72.9307 
 525   0.0000       2.695877        73.3586 
 526   0.0000       2.699788        73.4650 
 527   0.0000       2.704701        73.5987 
 528   0.0000       2.716781        73.9274 
 529   0.0000       2.719509        74.0016 
 530   0.0000       2.723548        74.1115 
 531   0.0000       2.725409        74.1621 
 532   0.0000       2.739031        74.5328 
 533   0.0000       2.750920        74.8563 
 534   0.0000       2.773840        75.4800 
 535   0.0000       2.779318        75.6291 
 536   0.0000       2.799789        76.1861 
 537   0.0000       2.806038        76.3562 
 538   0.0000       2.817577        76.6702 
 539   0.0000       2.834977        77.1436 
 540   0.0000       2.853517        77.6482 
 541   0.0000       2.864918        77.9584 
 542   0.0000       2.872697        78.1700 
 543   0.0000       2.895524        78.7912 
 544   0.0000       2.903206        79.0003 
 545   0.0000       2.905927        79.0743 
 546   0.0000       2.924295        79.5741 
 547   0.0000       2.933502        79.8246 
 548   0.0000       2.939636        79.9916 
 549   0.0000       2.952472        80.3408 
 550   0.0000       2.957927        80.4893 
 551   0.0000       2.970365        80.8277 
 552   0.0000       2.971412        80.8562 
 553   0.0000       2.980999        81.1171 
 554   0.0000       2.981868        81.1408 
 555   0.0000       2.995885        81.5222 
 556   0.0000       2.999544        81.6217 
 557   0.0000       3.009338        81.8882 
 558   0.0000       3.014573        82.0307 
 559   0.0000       3.029890        82.4475 
 560   0.0000       3.037696        82.6599 
 561   0.0000       3.059013        83.2400 
 562   0.0000       3.062418        83.3326 
 563   0.0000       3.080359        83.8208 
 564   0.0000       3.087869        84.0252 
 565   0.0000       3.097047        84.2749 
 566   0.0000       3.104386        84.4746 
 567   0.0000       3.112818        84.7041 
 568   0.0000       3.128777        85.1383 
 569   0.0000       3.145725        85.5995 
 570   0.0000       3.153699        85.8165 
 571   0.0000       3.157561        85.9216 
 572   0.0000       3.172796        86.3362 
 573   0.0000       3.183508        86.6277 
 574   0.0000       3.189531        86.7915 
 575   0.0000       3.192195        86.8640 
 576   0.0000       3.204224        87.1914 
 577   0.0000       3.215249        87.4914 
 578   0.0000       3.222755        87.6956 
 579   0.0000       3.237666        88.1014 
 580   0.0000       3.242075        88.2213 
 581   0.0000       3.247724        88.3751 
 582   0.0000       3.256661        88.6182 
 583   0.0000       3.263305        88.7990 
 584   0.0000       3.276689        89.1632 
 585   0.0000       3.278949        89.2247 
 586   0.0000       3.296560        89.7040 
 587   0.0000       3.299179        89.7752 
 588   0.0000       3.304027        89.9072 
 589   0.0000       3.310309        90.0781 
 590   0.0000       3.331817        90.6634 
 591   0.0000       3.349175        91.1357 
 592   0.0000       3.356197        91.3268 
 593   0.0000       3.362564        91.5000 
 594   0.0000       3.370975        91.7289 
 595   0.0000       3.392136        92.3047 
 596   0.0000       3.400766        92.5396 
 597   0.0000       3.410283        92.7985 
 598   0.0000       3.420169        93.0675 
 599   0.0000       3.425113        93.2021 
 600   0.0000       3.431678        93.3807 
 601   0.0000       3.445137        93.7469 
 602   0.0000       3.456621        94.0594 
 603   0.0000       3.463991        94.2600 
 604   0.0000       3.474870        94.5560 
 605   0.0000       3.477481        94.6271 
 606   0.0000       3.480190        94.7008 
 607   0.0000       3.490692        94.9866 
 608   0.0000       3.501541        95.2818 
 609   0.0000       3.503371        95.3316 
 610   0.0000       3.527389        95.9851 
 611   0.0000       3.532863        96.1341 
 612   0.0000       3.542357        96.3924 
 613   0.0000       3.552064        96.6566 
 614   0.0000       3.568012        97.0905 
 615   0.0000       3.571151        97.1760 
 616   0.0000       3.573452        97.2386 
 617   0.0000       3.593449        97.7827 
 618   0.0000       3.601790        98.0097 
 619   0.0000       3.610441        98.2451 
 620   0.0000       3.618549        98.4657 
 621   0.0000       3.625820        98.6636 
 622   0.0000       3.629483        98.7633 
 623   0.0000       3.647682        99.2585 
 624   0.0000       3.649930        99.3196 
 625   0.0000       3.663081        99.6775 
 626   0.0000       3.664891        99.7268 
 627   0.0000       3.681586       100.1810 
 628   0.0000       3.687148       100.3324 
 629   0.0000       3.691194       100.4425 
 630   0.0000       3.697018       100.6010 
 631   0.0000       3.711586       100.9974 
 632   0.0000       3.721976       101.2801 
 633   0.0000       3.727785       101.4382 
 634   0.0000       3.733868       101.6037 
 635   0.0000       3.740803       101.7924 
 636   0.0000       3.746249       101.9406 
 637   0.0000       3.759008       102.2878 
 638   0.0000       3.770363       102.5968 
 639   0.0000       3.786062       103.0240 
 640   0.0000       3.792601       103.2019 
 641   0.0000       3.794922       103.2651 
 642   0.0000       3.808796       103.6426 
 643   0.0000       3.825731       104.1034 
 644   0.0000       3.843113       104.5764 
 645   0.0000       3.868595       105.2698 
 646   0.0000       3.874094       105.4195 
 647   0.0000       3.891112       105.8825 
 648   0.0000       3.893380       105.9442 
 649   0.0000       3.911724       106.4434 
 650   0.0000       3.926021       106.8325 
 651   0.0000       3.936086       107.1064 
 652   0.0000       3.946743       107.3963 
 653   0.0000       3.955491       107.6344 
 654   0.0000       3.964928       107.8912 
 655   0.0000       3.968614       107.9915 
 656   0.0000       3.974697       108.1570 
 657   0.0000       3.983412       108.3941 
 658   0.0000       4.010290       109.1255 
 659   0.0000       4.017170       109.3128 
 660   0.0000       4.032318       109.7249 
 661   0.0000       4.036711       109.8445 
 662   0.0000       4.049343       110.1882 
 663   0.0000       4.066418       110.6528 
 664   0.0000       4.083104       111.1069 
 665   0.0000       4.096061       111.4595 
 666   0.0000       4.119309       112.0921 
 667   0.0000       4.126818       112.2964 
 668   0.0000       4.132063       112.4392 
 669   0.0000       4.142079       112.7117 
 670   0.0000       4.149464       112.9127 
 671   0.0000       4.167163       113.3943 
 672   0.0000       4.172077       113.5280 
 673   0.0000       4.180395       113.7543 
 674   0.0000       4.189274       113.9959 
 675   0.0000       4.199068       114.2625 
 676   0.0000       4.209421       114.5442 
 677   0.0000       4.214536       114.6834 
 678   0.0000       4.226224       115.0014 
 679   0.0000       4.231440       115.1433 
 680   0.0000       4.238859       115.3452 
 681   0.0000       4.244696       115.5040 
 682   0.0000       4.254583       115.7731 
 683   0.0000       4.259747       115.9136 
 684   0.0000       4.263756       116.0227 
 685   0.0000       4.272563       116.2624 
 686   0.0000       4.279024       116.4382 
 687   0.0000       4.286470       116.6408 
 688   0.0000       4.287541       116.6699 
 689   0.0000       4.291570       116.7796 
 690   0.0000       4.301915       117.0611 
 691   0.0000       4.311400       117.3192 
 692   0.0000       4.319894       117.5503 
 693   0.0000       4.327887       117.7678 
 694   0.0000       4.334103       117.9369 
 695   0.0000       4.335806       117.9833 
 696   0.0000       4.343908       118.2038 
 697   0.0000       4.359434       118.6262 
 698   0.0000       4.369287       118.8943 
 699   0.0000       4.383973       119.2940 
 700   0.0000       4.397643       119.6659 
 701   0.0000       4.408313       119.9563 
 702   0.0000       4.439991       120.8183 
 703   0.0000       4.444034       120.9283 
 704   0.0000       4.449301       121.0716 
 705   0.0000       4.462763       121.4380 
 706   0.0000       4.477303       121.8336 
 707   0.0000       4.481605       121.9507 
 708   0.0000       4.513496       122.8185 
 709   0.0000       4.522631       123.0670 
 710   0.0000       4.531800       123.3165 
 711   0.0000       4.550793       123.8334 
 712   0.0000       4.555031       123.9487 
 713   0.0000       4.577118       124.5497 
 714   0.0000       4.585571       124.7797 
 715   0.0000       4.598087       125.1203 
 716   0.0000       4.610774       125.4655 
 717   0.0000       4.619664       125.7074 
 718   0.0000       4.642994       126.3423 
 719   0.0000       4.655101       126.6717 
 720   0.0000       4.667678       127.0140 
 721   0.0000       4.688736       127.5870 
 722   0.0000       4.695119       127.7607 
 723   0.0000       4.721410       128.4761 
 724   0.0000       4.746301       129.1534 
 725   0.0000       4.755871       129.4138 
 726   0.0000       4.769458       129.7835 
 727   0.0000       4.809833       130.8822 
 728   0.0000       4.827815       131.3715 
 729   0.0000       4.863638       132.3463 
 730   0.0000       4.872117       132.5770 
 731   0.0000       4.891727       133.1106 
 732   0.0000       4.895056       133.2012 
 733   0.0000       4.917476       133.8113 
 734   0.0000       4.930676       134.1705 
 735   0.0000       4.945649       134.5779 
 736   0.0000       4.956429       134.8713 
 737   0.0000       4.968923       135.2113 
 738   0.0000       4.978316       135.4669 
 739   0.0000       4.988583       135.7462 
 740   0.0000       5.012207       136.3891 
 741   0.0000       5.023780       136.7040 
 742   0.0000       5.027741       136.8118 
 743   0.0000       5.080923       138.2589 
 744   0.0000       5.088840       138.4744 
 745   0.0000       5.120990       139.3492 
 746   0.0000       5.204788       141.6295 
 747   0.0000       5.230202       142.3210 
 748   0.0000       5.241084       142.6171 
 749   0.0000       5.250858       142.8831 
 750   0.0000       5.261183       143.1641 
 751   0.0000       5.276857       143.5906 
 752   0.0000       5.292083       144.0049 
 753   0.0000       5.301458       144.2600 
 754   0.0000       5.322095       144.8216 
 755   0.0000       5.339407       145.2926 
 756   0.0000       5.346918       145.4970 
 757   0.0000       5.372544       146.1944 
 758   0.0000       5.389076       146.6442 
 759   0.0000       5.393206       146.7566 
 760   0.0000       5.397474       146.8727 
 761   0.0000       5.407901       147.1565 
 762   0.0000       5.414739       147.3425 
 763   0.0000       5.427814       147.6983 
 764   0.0000       5.445099       148.1687 
 765   0.0000       5.458676       148.5381 
 766   0.0000       5.462311       148.6370 
 767   0.0000       5.492502       149.4586 
 768   0.0000       5.498592       149.6243 
 769   0.0000       5.524903       150.3403 
 770   0.0000       5.531395       150.5169 
 771   0.0000       5.533986       150.5874 
 772   0.0000       5.544528       150.8743 
 773   0.0000       5.563572       151.3925 
 774   0.0000       5.571687       151.6133 
 775   0.0000       5.586281       152.0104 
 776   0.0000       5.602399       152.4490 
 777   0.0000       5.613122       152.7408 
 778   0.0000       5.637427       153.4022 
 779   0.0000       5.643028       153.5546 
 780   0.0000       5.664348       154.1348 
 781   0.0000       5.666828       154.2022 
 782   0.0000       5.720515       155.6631 
 783   0.0000       5.735721       156.0769 
 784   0.0000       5.744038       156.3032 
 785   0.0000       5.788648       157.5171 
 786   0.0000       5.811586       158.1413 
 787   0.0000       5.819860       158.3664 
 788   0.0000       5.851857       159.2371 
 789   0.0000       5.860463       159.4713 
 790   0.0000       5.867758       159.6698 
 791   0.0000       5.875783       159.8882 
 792   0.0000       5.882893       160.0817 
 793   0.0000       5.903050       160.6302 
 794   0.0000       5.911567       160.8619 
 795   0.0000       5.918536       161.0516 
 796   0.0000       5.943538       161.7319 
 797   0.0000       5.999833       163.2638 
 798   0.0000       6.060548       164.9159 
 799   0.0000       6.073681       165.2733 
 800   0.0000       6.208574       168.9439 
 801   0.0000       6.264218       170.4580 
 802   0.0000       6.461265       175.8200 
 803   0.0000       6.512073       177.2025 
 804   0.0000       6.532053       177.7462 
 805   0.0000       6.611188       179.8996 
 806   0.0000       6.704576       182.4408 
 807   0.0000       6.765141       184.0888 
 808   0.0000       6.812229       185.3702 
 809   0.0000       6.843558       186.2227 
 810   0.0000       6.888034       187.4329 
 811   0.0000       6.933762       188.6773 
 812   0.0000       6.944836       188.9786 
 813   0.0000       7.039395       191.5517 
 814   0.0000       7.088254       192.8812 
 815   0.0000       7.111223       193.5062 
 816   0.0000       7.154673       194.6886 
 817   0.0000       7.226312       196.6379 
 818   0.0000       7.255534       197.4331 
 819   0.0000       7.374462       200.6693 
 820   0.0000       7.423331       201.9991 
 821   0.0000       7.472217       203.3294 
 822   0.0000       7.512235       204.4183 
 823   0.0000       7.765857       211.3197 
 824   0.0000       7.896640       214.8785 
 825   0.0000       8.428991       229.3645 
 826   0.0000       8.446029       229.8281 
 827   0.0000       8.460452       230.2206 
 828   0.0000       8.471972       230.5341 
 829   0.0000       8.473028       230.5628 
 830   0.0000       8.483129       230.8377 
 831   0.0000       8.496980       231.2146 
 832   0.0000       8.515358       231.7147 
 833   0.0000       8.516618       231.7489 
 834   0.0000       8.535350       232.2587 
 835   0.0000       8.557220       232.8538 
 836   0.0000       8.568300       233.1553 
 837   0.0000       8.594013       233.8550 
 838   0.0000       8.612557       234.3596 
 839   0.0000       8.641807       235.1555 
 840   0.0000      11.184550       304.3471 
 841   0.0000      11.239590       305.8448 
 842   0.0000      11.262247       306.4613 
 843   0.0000      11.288484       307.1753 
 844   0.0000      11.320320       308.0416 
 845   0.0000      11.386978       309.8554 
 846   0.0000      11.480365       312.3966 
 847   0.0000      11.505184       313.0720 
 848   0.0000      11.559232       314.5427 
 849   0.0000      23.547807       640.7684 
 850   0.0000      23.751677       646.3160 
 851   0.0000      23.972074       652.3133 
 852   0.0000      24.072567       655.0478 
 853   0.0000      24.186219       658.1405 
 854   0.0000      24.238824       659.5719 
 855   0.0000      24.306155       661.4041 
 856   0.0000      24.407258       664.1553 
 857   0.0000      24.937194       678.5755 
 858   0.0000      26.182706       712.4676 
 859   0.0000      26.297615       715.5945 
 860   0.0000      26.702430       726.6101 
 861   0.0000      31.375446       853.7693 
 862   0.0000      32.924589       895.9236 
 863   0.0000      33.610966       914.6009 
 864   0.0000      44.980346      1223.9774 
 865   0.0000      45.034429      1225.4491 
 866   0.0000      45.144514      1228.4447 
 867   0.0000      45.466945      1237.2185 
 868   0.0000     202.972296      5523.1570 

                    ********************************
                    * MULLIKEN POPULATION ANALYSIS *
                    ********************************

-----------------------
MULLIKEN ATOMIC CHARGES
-----------------------
   0 C :    1.989874
   1 C :   -1.653790
   2 C :   -0.843511
   3 H :    0.135698
   4 H :    0.138450
   5 H :    0.140914
   6 C :    2.788531
   7 O :   -0.303266
   8 C :    0.732021
   9 O :   -0.559691
  10 C :    0.068961
  11 O :   -0.614693
  12 C :   -0.435096
  13 H :    0.095880
  14 H :    0.127599
  15 H :    0.130901
  16 C :   -0.557209
  17 H :    0.116936
  18 H :    0.096472
  19 H :    0.119869
  20 C :   -1.129904
  21 H :    0.155368
  22 H :    0.190906
  23 H :    0.186163
  24 Au:    0.272572
  25 Cl:   -0.508355
  26 Cl:   -0.380179
  27 Cl:   -0.501423
Sum of atomic charges:   -0.0000000

--------------------------------
MULLIKEN REDUCED ORBITAL CHARGES
--------------------------------
  0 C s       :     2.050751  s :     2.050751
      pz      :     1.219676  p :     1.948300
      px      :     0.850790
      py      :    -0.122166
      dz2     :    -0.010002  d :     0.000317
      dxz     :     0.004654
      dyz     :    -0.016095
      dx2y2   :     0.007345
      dxy     :     0.014414
      f0      :     0.000775  f :     0.010759
      f+1     :     0.000689
      f-1     :     0.002844
      f+2     :     0.001514
      f-2     :     0.001194
      f+3     :     0.001690
      f-3     :     0.002051
  1 C s       :     4.971405  s :     4.971405
      pz      :     1.433871  p :     2.828893
      px      :     0.631789
      py      :     0.763233
      dz2     :    -0.047002  d :    -0.157391
      dxz     :    -0.029367
      dyz     :    -0.011409
      dx2y2   :    -0.021084
      dxy     :    -0.048530
      f0      :     0.000842  f :     0.010883
      f+1     :     0.001399
      f-1     :     0.002066
      f+2     :     0.001376
      f-2     :     0.001595
      f+3     :     0.001447
      f-3     :     0.002157
  2 C s       :     3.483740  s :     3.483740
      pz      :     1.149221  p :     3.288824
      px      :     1.195633
      py      :     0.943970
      dz2     :     0.033544  d :     0.067583
      dxz     :     0.007420
      dyz     :    -0.000277
      dx2y2   :     0.012967
      dxy     :     0.013928
      f0      :     0.000593  f :     0.003365
      f+1     :     0.000406
      f-1     :     0.000450
      f+2     :     0.000397
      f-2     :     0.000333
      f+3     :     0.000429
      f-3     :     0.000757
  3 H s       :     0.831314  s :     0.831314
      pz      :     0.008486  p :     0.031033
      px      :     0.015385
      py      :     0.007162
      dz2     :     0.000126  d :     0.001955
      dxz     :     0.000480
      dyz     :     0.000251
      dx2y2   :     0.000737
      dxy     :     0.000362
  4 H s       :     0.834360  s :     0.834360
      pz      :     0.005319  p :     0.025237
      px      :     0.009505
      py      :     0.010413
      dz2     :     0.000508  d :     0.001953
      dxz     :     0.000327
      dyz     :     0.000226
      dx2y2   :     0.000488
      dxy     :     0.000403
  5 H s       :     0.821850  s :     0.821850
      pz      :     0.018829  p :     0.035289
      px      :     0.009602
      py      :     0.006859
      dz2     :     0.000487  d :     0.001947
      dxz     :     0.000610
      dyz     :     0.000705
      dx2y2   :     0.000058
      dxy     :     0.000086
  6 C s       :     2.332793  s :     2.332793
      pz      :     0.507542  p :     0.973503
      px      :     0.261565
      py      :     0.204396
      dz2     :     0.001468  d :    -0.109640
      dxz     :    -0.049353
      dyz     :     0.078160
      dx2y2   :    -0.087290
      dxy     :    -0.052625
      f0      :     0.002096  f :     0.014814
      f+1     :     0.003330
      f-1     :     0.001279
      f+2     :     0.002203
      f-2     :     0.002445
      f+3     :     0.001690
      f-3     :     0.001770
  7 O s       :     3.778161  s :     3.778161
      pz      :     1.554499  p :     4.512721
      px      :     1.452885
      py      :     1.505336
      dz2     :     0.008782  d :     0.010221
      dxz     :    -0.000760
      dyz     :    -0.000955
      dx2y2   :     0.004194
      dxy     :    -0.001040
      f0      :     0.000264  f :     0.002163
      f+1     :     0.000386
      f-1     :     0.000186
      f+2     :     0.000385
      f-2     :     0.000393
      f+3     :     0.000288
      f-3     :     0.000262
  8 C s       :     3.166776  s :     3.166776
      pz      :     0.652781  p :     1.898811
      px      :     0.636045
      py      :     0.609985
      dz2     :     0.003957  d :     0.175838
      dxz     :    -0.010560
      dyz     :     0.078958
      dx2y2   :     0.016029
      dxy     :     0.087453
      f0      :     0.001952  f :     0.026554
      f+1     :     0.001524
      f-1     :     0.004876
      f+2     :     0.003795
      f-2     :     0.003856
      f+3     :     0.004890
      f-3     :     0.005662
  9 O s       :     3.956791  s :     3.956791
      pz      :     1.581351  p :     4.562243
      px      :     1.637920
      py      :     1.342972
      dz2     :     0.002652  d :     0.038670
      dxz     :     0.002484
[...]
      f+2     :     0.004226
      f-2     :     0.005716
      f+3     :     0.007157
      f-3     :     0.003208
 13 H s       :     0.675559  s :     0.675559
      pz      :     0.137086  p :     0.296687
      px      :     0.082084
      py      :     0.077516
      dz2     :     0.010578  d :     0.029711
      dxz     :     0.009731
      dyz     :     0.009291
      dx2y2   :     0.000064
      dxy     :     0.000046
 14 H s       :     0.690286  s :     0.690286
      pz      :     0.080983  p :     0.270891
      px      :     0.084570
      py      :     0.105338
      dz2     :     0.004747  d :     0.029907
      dxz     :     0.002601
      dyz     :     0.006912
      dx2y2   :     0.008322
      dxy     :     0.007326
 15 H s       :     0.684200  s :     0.684200
      pz      :     0.081546  p :     0.280709
      px      :     0.123940
      py      :     0.075223
      dz2     :     0.003969  d :     0.029621
      dxz     :     0.009126
      dyz     :     0.000480
      dx2y2   :     0.007402
      dxy     :     0.008644
 16 C s       :     2.622741  s :     2.622741
      pz      :     0.883633  p :     2.682958
      px      :     0.882105
      py      :     0.917219
      dz2     :     0.064275  d :     0.414110
      dxz     :     0.111072
      dyz     :     0.080909
      dx2y2   :     0.039340
      dxy     :     0.118514
      f0      :     0.003661  f :     0.030677
      f+1     :     0.004991
      f-1     :     0.003972
      f+2     :     0.004595
      f-2     :     0.005749
      f+3     :     0.004712
      f-3     :     0.002997
 17 H s       :     0.694352  s :     0.694352
      pz      :     0.074710  p :     0.271989
      px      :     0.087000
      py      :     0.110279
      dz2     :     0.003271  d :     0.029772
      dxz     :     0.003836
      dyz     :     0.006558
      dx2y2   :     0.008076
      dxy     :     0.008031
 18 H s       :     0.687100  s :     0.687100
      pz      :     0.105266  p :     0.272357
      px      :     0.084282
      py      :     0.082809
      dz2     :     0.008572  d :     0.029444
      dxz     :     0.007299
      dyz     :     0.006985
      dx2y2   :     0.003028
      dxy     :     0.003560
 19 H s       :     0.691484  s :     0.691484
      pz      :     0.080301  p :     0.273080
      px      :     0.088653
      py      :     0.104127
      dz2     :     0.004179  d :     0.029505
      dxz     :     0.004687
      dyz     :     0.005454
      dx2y2   :     0.007865
      dxy     :     0.007320
 20 C s       :     2.608651  s :     2.608651
      pz      :     0.828769  p :     2.629837
      px      :     0.900411
      py      :     0.900656
      dz2     :     0.103681  d :     0.485239
      dxz     :     0.136299
      dyz     :     0.083616
      dx2y2   :     0.060094
      dxy     :     0.101550
      f0      :     0.005454  f :     0.030765
      f+1     :     0.004847
      f-1     :     0.006091
      f+2     :     0.004572
      f-2     :     0.003808
      f+3     :     0.004059
      f-3     :     0.001934
 21 H s       :     0.686331  s :     0.686331
      pz      :     0.070215  p :     0.266257
      px      :     0.099000
      py      :     0.097042
      dz2     :     0.003848  d :     0.029400
      dxz     :     0.005771
      dyz     :     0.004384
      dx2y2   :     0.008564
      dxy     :     0.006834
 22 H s       :     0.675128  s :     0.675128
      pz      :     0.088329  p :     0.277654
      px      :     0.112078
      py      :     0.077248
      dz2     :     0.007093  d :     0.029875
      dxz     :     0.008327
      dyz     :     0.003869
      dx2y2   :     0.004527
      dxy     :     0.006058
 23 H s       :     0.674240  s :     0.674240
      pz      :     0.086665  p :     0.293691
      px      :     0.083935
      py      :     0.123091
      dz2     :     0.003116  d :     0.030031
      dxz     :     0.001825
      dyz     :     0.007325
      dx2y2   :     0.008741
      dxy     :     0.009024
 24 Aus       :     2.208742  s :     2.208742
      pz      :     2.269999  p :     6.822335
      px      :     2.322430
      py      :     2.229907
      dz2     :     1.922517  d :     9.516624
      dxz     :     1.910444
      dyz     :     1.958114
      dx2y2   :     1.929786
      dxy     :     1.795763
      f0      :     0.012132  f :     0.126989
      f+1     :     0.022371
      f-1     :     0.019124
      f+2     :     0.012910
      f-2     :     0.026348
      f+3     :     0.013501
      f-3     :     0.020603
      g0      :     0.000155  g :     0.001680
      g+1     :     0.000168
      g-1     :     0.000165
      g+2     :     0.000166
      g-2     :     0.000299
      g+3     :     0.000156
      g-3     :     0.000214
      g+4     :     0.000159
      g-4     :     0.000200
 25 Cls       :     5.673664  s :     5.673664
      pz      :     3.614974  p :    11.130981
      px      :     3.767135
      py      :     3.748872
      dz2     :     0.034785  d :     0.185256
      dxz     :     0.048817
      dyz     :     0.042693
      dx2y2   :     0.034125
      dxy     :     0.024836
      f0      :     0.000841  f :     0.005547
      f+1     :     0.000865
      f-1     :     0.001121
      f+2     :     0.000921
      f-2     :     0.001143
      f+3     :     0.000332
      f-3     :     0.000323
 26 Cls       :     5.694099  s :     5.694099
      pz      :     3.875624  p :    11.183402
      px      :     3.533904
      py      :     3.773875
      dz2     :     0.022672  d :     0.198719
      dxz     :     0.044815
      dyz     :     0.031794
      dx2y2   :     0.052683
      dxy     :     0.046754
      f0      :     0.000640  f :     0.006502
      f+1     :     0.000931
      f-1     :     0.000338
      f+2     :     0.000491
      f-2     :     0.000932
      f+3     :     0.001439
      f-3     :     0.001730
 27 Cls       :     5.680032  s :     5.680032
      pz      :     3.627655  p :    11.135089
      px      :     3.778878
      py      :     3.728556
      dz2     :     0.033039  d :     0.188036
      dxz     :     0.042635
      dyz     :     0.055171
      dx2y2   :     0.028628
      dxy     :     0.028563
      f0      :     0.000872  f :     0.005865
      f+1     :     0.000893
      f-1     :     0.001164
      f+2     :     0.000995
      f-2     :     0.001222
      f+3     :     0.000354
      f-3     :     0.000366


                      *****************************
                      * MAYER POPULATION ANALYSIS *
                      *****************************

  NA   - Mulliken gross atomic population
  ZA   - Total nuclear charge
  QA   - Mulliken gross atomic charge
  VA   - Mayer's total valence
  BVA  - Mayer's bonded valence
  FA   - Mayer's free valence

  ATOM       NA         ZA         QA         VA         BVA        FA
  0 C      4.0101     6.0000     1.9899    -0.3359    -0.3359     0.0000
  1 C      7.6538     6.0000    -1.6538     2.3692     2.3692    -0.0000
  2 C      6.8435     6.0000    -0.8435     3.6896     3.6896    -0.0000
  3 H      0.8643     1.0000     0.1357     1.0070     1.0070    -0.0000
  4 H      0.8615     1.0000     0.1385     1.0353     1.0353    -0.0000
  5 H      0.8591     1.0000     0.1409     1.0192     1.0192     0.0000
  6 C      3.2115     6.0000     2.7885     1.0108     1.0108     0.0000
  7 O      8.3033     8.0000    -0.3033     1.3799     1.3799     0.0000
  8 C      5.2680     6.0000     0.7320     3.4699     3.4699    -0.0000
  9 O      8.5597     8.0000    -0.5597     1.7569     1.7569    -0.0000
 10 C      5.9310     6.0000     0.0690     2.1775     2.1775    -0.0000
 11 O      8.6147     8.0000    -0.6147     1.7491     1.7491    -0.0000
 12 C      6.4351     6.0000    -0.4351     4.0486     4.0486    -0.0000
 13 H      0.9041     1.0000     0.0959     1.0566     1.0566    -0.0000
 14 H      0.8724     1.0000     0.1276     1.0243     1.0243    -0.0000
 15 H      0.8691     1.0000     0.1309     1.0057     1.0057    -0.0000
 16 C      6.5572     6.0000    -0.5572     3.7681     3.7681     0.0000
 17 H      0.8831     1.0000     0.1169     1.0638     1.0638     0.0000
 18 H      0.9035     1.0000     0.0965     1.0465     1.0465    -0.0000
 19 H      0.8801     1.0000     0.1199     1.0338     1.0338     0.0000
 20 C      7.1299     6.0000    -1.1299     3.8146     3.8146    -0.0000
 21 H      0.8446     1.0000     0.1554     1.0146     1.0146    -0.0000
 22 H      0.8091     1.0000     0.1909     1.0185     1.0185     0.0000
 23 H      0.8138     1.0000     0.1862     1.0334     1.0334     0.0000
 24 Au    18.7274    19.0000     0.2726     2.9583     2.9583    -0.0000
 25 Cl    17.5084    17.0000    -0.5084     0.7909     0.7909    -0.0000
 26 Cl    17.3802    17.0000    -0.3802     0.8854     0.8854    -0.0000
 27 Cl    17.5014    17.0000    -0.5014     0.8106     0.8106    -0.0000

  Mayer bond orders larger than 0.100000
B(  0-C ,  2-C ) :   0.6497 B(  0-C ,  9-O ) :  -0.1817 B(  0-C , 10-C ) :  -0.1755 
B(  0-C , 20-C ) :  -0.1146 B(  0-C , 24-Au) :  -0.3129 B(  0-C , 25-Cl) :  -0.4878 
B(  0-C , 27-Cl) :   0.1677 B(  1-C ,  6-C ) :   0.7467 B(  1-C ,  7-O ) :   0.1630 
B(  1-C , 10-C ) :   0.1572 B(  1-C , 20-C ) :   0.6138 B(  1-C , 24-Au) :   0.9174 
B(  1-C , 25-Cl) :   0.1180 B(  1-C , 27-Cl) :  -0.4744 B(  2-C ,  3-H ) :   1.0627 
B(  2-C ,  4-H ) :   0.9942 B(  2-C ,  5-H ) :   1.0221 B(  6-C ,  7-O ) :   0.2084 
B(  6-C ,  8-C ) :  -0.1795 B(  6-C ,  9-O ) :   0.1075 B(  6-C , 10-C ) :   0.1071 
B(  6-C , 11-O ) :  -0.1635 B(  6-C , 20-C ) :   0.1614 B(  6-C , 21-H ) :  -0.1291 
B(  6-C , 23-H ) :  -0.1023 B(  6-C , 25-Cl) :   0.2167 B(  7-O ,  8-C ) :   1.0393 
B(  8-C ,  9-O ) :   1.7099 B(  8-C , 16-C ) :   0.9077 B( 10-C , 11-O ) :   1.5835 
B( 10-C , 12-C ) :   0.9492 B( 10-C , 24-Au) :  -0.2330 B( 12-C , 13-H ) :   0.9814 
B( 12-C , 14-H ) :   1.0719 B( 12-C , 15-H ) :   0.9541 B( 16-C , 17-H ) :   1.0568 
B( 16-C , 18-H ) :   0.9987 B( 16-C , 19-H ) :   0.9935 B( 20-C , 21-H ) :   1.0446 
B( 20-C , 22-H ) :   1.0104 B( 20-C , 23-H ) :   0.9645 B( 24-Au, 25-Cl) :   0.9149 
B( 24-Au, 26-Cl) :   0.7353 B( 24-Au, 27-Cl) :   0.8837 B( 25-Cl, 27-Cl) :   0.1276 


-------
TIMINGS
-------

Total SCF time: 0 days 0 hours 1 min 35 sec 

Total time                  ....      95.879 sec
Sum of individual times     ....      94.840 sec  ( 98.9%)

Fock matrix formation       ....      86.182 sec  ( 89.9%)
  XC integration            ....       6.999 sec  (  8.1% of F)
    Basis function eval.    ....       1.199 sec  ( 17.1% of XC)
    Density eval.           ....       2.329 sec  ( 33.3% of XC)
    XC-Functional eval.     ....       0.066 sec  (  0.9% of XC)
    XC-Potential eval.      ....       2.355 sec  ( 33.6% of XC)
Diagonalization             ....       3.476 sec  (  3.6%)
Density matrix formation    ....       0.129 sec  (  0.1%)
Population analysis         ....       0.167 sec  (  0.2%)
Initial guess               ....       1.801 sec  (  1.9%)
Orbital Transformation      ....       0.000 sec  (  0.0%)
Orbital Orthonormalization  ....       0.000 sec  (  0.0%)
DIIS solution               ....       1.899 sec  (  2.0%)
Grid generation             ....       1.187 sec  (  1.2%)


           ************************************************************
           *        Program running with 24 parallel MPI-processes    *
           *              working on a common directory               *
           ************************************************************

------------------------------------------------------------------------------
                                ORCA  MP2 
------------------------------------------------------------------------------

Freezing NCore=54 chemical core electrons

-------------
RI-MP2 ENERGY
-------------
Dimension of the basis                    ...  869
Memory devoted to MP2                     ... 5000 MB   
Data format for buffers                   ... DOUBLE
Compression type for matrix containers    ... UNCOMPRESSED
Overall scaling of the MP2 energy         ...   2.700e-01
Calculating two index integrals           ... done (    0.040 sec)
Cholesky decomposition of V**-1           ... done (    0.457 sec)

-----------------
RI-TRANSFORMATION (AUX index driven)
-----------------

Dimension of the orbital-basis         ... 869
Dimension of the aux-basis             ... 2182
Transformation of internal/external MOs...   27-  79 to   80- 868
Number Format for Storage              ... Double (8 Byte)
Integral mode                          ... Direct

First Phase: integral generation and transformation of MO indices
  Aux angular momentum 0               ... done (    0.192 sec)
  Aux angular momentum 1               ... done (    0.354 sec)
  Aux angular momentum 2               ... done (    0.538 sec)
  Aux angular momentum 3               ... done (    0.490 sec)
  Aux angular momentum 4               ... done (    0.148 sec)
  Aux angular momentum 5               ... done (    0.183 sec)
  Aux angular momentum 6               ... done (    0.231 sec)
Closing buffer VIA ( 0.68 GB; CompressionRatio= 1.00)
  Phase 1 completed in     2.260 sec
Second Phase: sorting and transformation of aux index

IA-Transformation
Memory available                       ... 4905 MB 
Max. # MO pairs treated in a batch     ... 3    
# of internal orbitals                 ... 53
# batches for internal orbitals        ... 1
Closing buffer IAV ( 0.04 GB; CompressionRatio= 1.00)
(ia|v) transformation done in     0.604 sec

  Phase 2 completed in     1.429 sec
RI-Integral transformation completed in     3.723 sec
Opening buffers                              ... done

Starting loop over batches of integrals:

Operator 0  - window                       ... ( 27- 79)x( 80-868)
Operator 0  - Memory available             ...  5000 MB
Operator 0  - Memory needed per MO         ...  13.1 MB
Operator 0  - Number of orbitals per batch ... 3
Operator 0  - Number of batches            ... 1

OPERATOR  0   PASS   0:  MOs    27 ...   29 +   30 ...   32 +   33 ...   35 +   36 ...   38
                            +   39 ...   41 +   42 ...   44 +   45 ...   47 +   48 ...   50
                            +   51 ...   53 +   54 ...   56 +   57 ...   59 +   60 ...   62
                            +   63 ...   65 +   66 ...   68 +   69 ...   71 +   72 ...   74
                            +   75 ...   77 +   78 ...   79
  Reading integrals       ... ok
  Internal MO  29
Time spent in pair loops =     0.404 sec
Deleting buffer (Ka|jb)[aa] ...done

-----------------------------------------------
 RI-MP2 CORRELATION ENERGY:     -1.130519765 Eh
-----------------------------------------------


-------
TIMINGS
-------

Total time                :   12.531 sec
Integral trafo            :    3.736 sec ( 29.8%)
I/O of integrals          :    0.047 sec (  0.4%)
K(i,j) Operators          :    0.274 sec (  2.2%)
T(i,j) pair energies      :    0.045 sec (  0.4%)
V-calculation             :    0.040 sec (  0.3%)
V**(-1/2)                 :    0.457 sec (  3.7%)
Gamma(ia|P)               :    0.000 sec (  0.0%)
Gamma-Trafo               :    0.000 sec (  0.0%)
D(virtual)                :    0.000 sec (  0.0%)
D(internal)               :    0.000 sec (  0.0%)
W(virtual)                :    0.000 sec (  0.0%)
W(internal)               :    0.000 sec (  0.0%)
L(virtual)                :    0.000 sec (  0.0%)
L(internal)               :    0.000 sec (  0.0%)
G(D)                      :    0.000 sec (  0.0%)
G(Z)                      :    0.000 sec (  0.0%)
Z-Vector Solution         :    0.000 sec (  0.0%)
Z-Vector Solution         :    0.000 sec (  0.0%)
3-Index Derivative 
+ Separable RIJ part      :    0.000 sec (  0.0%)
2-Index Derivative 
+ Separable RIJ part      :    0.000 sec (  0.0%)
Separable Gradient (X)    :    0.000 sec (  0.0%)


---------------------------------------
MP2 TOTAL ENERGY:    -2091.502946005 Eh
---------------------------------------


-------------------------------------------------------------------------------
                          DFT DISPERSION CORRECTION                            
                                                                               
                              DFTD3 V3.1  Rev 1                                
                          USING Becke-Johnson damping                          
-------------------------------------------------------------------------------
The B2PLYP functional is recognized
Active option DFTDOPT                   ...         4   

molecular C6(AA) [au] = 14137.833234 


            DFT-D V3
 parameters
 s6 scaling factor         :     0.6400 
 a1 scaling factor         :     0.3065 
 s8 scaling factor         :     0.9147 
 a2 scaling factor         :     5.0570 
 ad hoc parameters k1-k3   :    16.0000     1.3333    -4.0000 

 Edisp/kcal,au: -22.390014684562  -0.035680755784 
 E6   /kcal   : -11.497671668 
 E8   /kcal   : -10.892343016 
 % E8         :  48.648217386 

-------------------------   ----------------
Dispersion correction           -0.035680756
-------------------------   ----------------


-------------------------   --------------------
FINAL SINGLE POINT ENERGY     -2091.538626760646
-------------------------   --------------------


                            ***************************************
                            *     ORCA property calculations      *
                            ***************************************


  WARNING: The energy has been calculated at the MP2 level but the densities
           used in the property calculations are still SCF densities
           MP2 response densities have not been calculated 
           use %mp2 Density relaxed end
           or  %mp2 Density unrelaxed end

                                    ---------------------
                                    Active property flags
                                    ---------------------
   (+) Dipole Moment


------------------------------------------------------------------------------
                       ORCA ELECTRIC PROPERTIES CALCULATION
------------------------------------------------------------------------------

Dipole Moment Calculation                       ... on
Quadrupole Moment Calculation                   ... off
Polarizability Calculation                      ... off
GBWName                                         ... TMB28_C1.gbw
Electron density file                           ... TMB28_C1.scfp
The origin for moment calculation is the CENTER OF MASS  = ( 0.332761, -0.001158 -0.039568)

-------------
DIPOLE MOMENT
-------------
                                X             Y             Z
Electronic contribution:    184.66206       8.42488     -26.31102
Nuclear contribution   :   -188.12551      -7.68230      26.09317
                        -----------------------------------------
Total Dipole Moment    :     -3.46345       0.74258      -0.21785
                        -----------------------------------------
Magnitude (a.u.)       :      3.54886
Magnitude (Debye)      :      9.02048



--------------------
Rotational spectrum 
--------------------
 
Rotational constants in cm-1:     0.016324     0.007365     0.006921 
Rotational constants in MHz :   489.388468   220.811279   207.480820 

 Dipole components along the rotational axes: 
x,y,z [a.u.] :    -3.470384     0.671156    -0.316814 
x,y,z [Debye]:    -8.821016     1.705942    -0.805277 

 

Timings for individual modules:

Sum of individual times         ...      113.536 sec (=   1.892 min)
GTO integral calculation        ...        4.001 sec (=   0.067 min)   3.5 %
SCF iterations                  ...       96.291 sec (=   1.605 min)  84.8 %
MP2 module                      ...       13.244 sec (=   0.221 min)  11.7 %
                             ****ORCA TERMINATED NORMALLY****
TOTAL RUN TIME: 0 days 0 hours 1 minutes 54 seconds 186 msec
