
                                 *****************
                                 * O   R   C   A *
                                 *****************

           --- An Ab Initio, DFT and Semiempirical electronic structure package ---

                  #######################################################
                  #                        -***-                        #
                  #          Department of theory and spectroscopy      #
                  #               Directorship: Frank Neese             #
                  #        Max Planck Institute fuer Kohlenforschung    #
                  #                Kaiser Wilhelm Platz 1               #
                  #                 D-45470 Muelheim/Ruhr               #
                  #                      Germany                        #
                  #                                                     #
                  #                  All rights reserved                #
                  #                        -***-                        #
                  #######################################################


                         Program Version 4.2.0 -  RELEASE  -


 With contributions from (in alphabetic order):
   Daniel Aravena         : Magnetic Suceptibility
   Michael Atanasov       : Ab Initio Ligand Field Theory (pilot matlab implementation)
   Alexander A. Auer      : GIAO ZORA, VPT2
   Ute Becker             : Parallelization
   Giovanni Bistoni       : ED, misc. LED, open-shell LED, HFLED
   Martin Brehm           : Molecular dynamics
   Dmytro Bykov           : SCF Hessian
   Vijay G. Chilkuri      : MRCI spin determinant printing, contributions to CSF-ICE
   Dipayan Datta          : RHF DLPNO-CCSD density
   Achintya Kumar Dutta   : EOM-CC, STEOM-CC
   Dmitry Ganyushin       : Spin-Orbit,Spin-Spin,Magnetic field MRCI
   Miquel Garcia          : C-PCM Hessian, Gaussian charge scheme
   Yang Guo               : DLPNO-NEVPT2, CIM, IAO-localization
   Andreas Hansen         : Spin unrestricted coupled pair/coupled cluster methods
   Benjamin Helmich-Paris : CASSCF linear response (MC-RPA)
   Lee Huntington         : MR-EOM, pCC
   Robert Izsak           : Overlap fitted RIJCOSX, COSX-SCS-MP3, EOM
   Christian Kollmar      : KDIIS, OOCD, Brueckner-CCSD(T), CCSD density
   Simone Kossmann        : Meta GGA functionals, TD-DFT gradient, OOMP2, MP2 Hessian
   Martin Krupicka        : AUTO-CI
   Lucas Lang             : DCDCAS
   Dagmar Lenk            : GEPOL surface, SMD
   Dimitrios Liakos       : Extrapolation schemes; Compound Job, initial MDCI parallelization
   Dimitrios Manganas     : Further ROCIS development; embedding schemes
   Dimitrios Pantazis     : SARC Basis sets
   Taras Petrenko         : DFT Hessian,TD-DFT gradient, ASA, ECA, R-Raman, ABS, FL, XAS/XES, NRVS
   Peter Pinski           : DLPNO-MP2, DLPNO-MP2 Gradient
   Christoph Reimann      : Effective Core Potentials
   Marius Retegan         : Local ZFS, SOC
   Christoph Riplinger    : Optimizer, TS searches, QM/MM, DLPNO-CCSD(T), (RO)-DLPNO pert. Triples
   Tobias Risthaus        : Range-separated hybrids, TD-DFT gradient, RPA, STAB
   Michael Roemelt        : Original ROCIS implementation
   Masaaki Saitow         : Open-shell DLPNO-CCSD energy and density
   Barbara Sandhoefer     : DKH picture change effects
   Avijit Sen             : IP-ROCIS
   Kantharuban Sivalingam : CASSCF convergence, NEVPT2, FIC-MRCI
   Bernardo de Souza      : ESD, SOC TD-DFT
   Georgi Stoychev        : AutoAux, RI-MP2 NMR
   Willem Van den Heuvel  : Paramagnetic NMR
   Boris Wezisla          : Elementary symmetry handling
   Frank Wennmohs         : Technical directorship


 We gratefully acknowledge several colleagues who have allowed us to
 interface, adapt or use parts of their codes:
   Stefan Grimme, W. Hujo, H. Kruse,             : VdW corrections, initial TS optimization,
                  C. Bannwarth                     DFT functionals, gCP, sTDA/sTD-DF
   Ed Valeev, F. Pavosevic, A. Kumar             : LibInt (2-el integral package), F12 methods
   Garnet Chan, S. Sharma, J. Yang, R. Olivares  : DMRG
   Ulf Ekstrom                                   : XCFun DFT Library
   Mihaly Kallay                                 : mrcc  (arbitrary order and MRCC methods)
   Andreas Klamt, Michael Diedenhofen            : otool_cosmo (COSMO solvation model)
   Jiri Pittner, Ondrej Demel                    : Mk-CCSD
   Frank Weinhold                                : gennbo (NPA and NBO analysis)
   Christopher J. Cramer and Donald G. Truhlar   : smd solvation model
   Lars Goerigk                                  : TD-DFT with DH, B97 family of functionals
   V. Asgeirsson, H. Jonsson                     : NEB implementation
   FAccTs GmbH                                   : IRC, NEB, NEB-TS, Multilevel, MM, QM/MM, CI optimization
   S Lehtola, MJT Oliveira, MAL Marques          : LibXC Library


 Your calculation uses the libint2 library for the computation of 2-el integrals
 For citations please refer to: http://libint.valeyev.net

 Your ORCA version has been built with support for libXC version: 4.2.3
 For citations please refer to: https://tddft.org/programs/libxc/

 This ORCA versions uses:
   CBLAS   interface :  Fast vector & matrix operations
   LAPACKE interface :  Fast linear algebra routines
   SCALAPACK package :  Parallel linear algebra routines


Your calculation utilizes the atom-pairwise dispersion correction
with the Becke-Johnson damping scheme (D3BJ)
Cite in your paper:
S.Grimme, S.Ehrlich, L.Goerigk, J Comput Chem, (2011), 32, 1456–1465 
S.Grimme, J.Antony, S.Ehrlich and H.Krieg, J.Chem.Phys., 132, (2010), 154104 
   

----- Orbital basis set information -----
Your calculation utilizes the basis: def2-TZVPPD
   F. Weigend and R. Ahlrichs, Phys. Chem. Chem. Phys. 7, 3297 (2005).
   D. Rappoport and F. Furche, J. Chem. Phys. 133 134105 (2010).

----- AuxC basis set information -----
Your calculation utilizes the auxiliary basis: def2-TZVPPD/C
   A. Hellweg, C. Hattig, S. Hofener and W. Klopper, Theor. Chem. Acc. 117, 587 (2007).

----- AuxJK basis set information -----
Your calculation utilizes the auxiliary basis: def2/JK
   H-Ba, Hf-Rn: F. Weigend, J. Comput. Chem. 29, 167 (2008).

cite the ECPs for Au [Def2-ECP] as follows:
Ce-Yb(ecp-28): M. Dolg, H. Stoll, H.Preuss, J. Chem. Phys., 1989, 90, 1730-1734.
Y-Cd(ecp-28), Hf-Hg(ecp-46): D. Andrae,U. Haeussermann, M. Dolg, H. Stoll, H. Preuss, Theor. Chim. Acta, 1990, 77, 123-141.
In-Sb(ecp-28), Tl-Bi(ecp-46): B. Metz, H. Stoll, M. Dolg, J. Chem. Phys., 2000, 113, 2563-2569.
Te-Xe(ecp-28), Po-Rn(ecp-46): K. A. Peterson, D. Figgen, E. Goll, H. Stoll, M. Dolg, J. Chem. Phys., 2003, 119, 11113-11123.
Rb(ecp-28), Cs(ecp-46): T. Leininger, A. Nicklass, W. Kuechle, H. Stoll, M. Dolg, A. Bergner, Chem. Phys. Lett., 1996, 255, 274-280.
Sr(ecp-28), Ba(ecp-46): M. Kaupp, P. V. Schleyer, H. Stoll and H. Preuss, J. Chem. Phys., 1991, 94, 1360-1366.
La(ecp-46): M. Dolg, H. Stoll, A. Savin, H. Preuss, Theor. Chim. Acta, 1989, 75, 173-194.
Lu(ecp-28): X. Cao, M. Dolg, J. Chem. Phys., 2001, 115, 7348-7355.

ECP parameters for Au [Def2-ECP] have been obtained from:
TURBOMOLE (7.0.2)

================================================================================
                                        WARNINGS
                       Please study these warnings very carefully!
================================================================================


WARNING: No MP2 level density has been requested!
         To caclulate MP2 level properties use
         %mp2 Density relaxed end
         or
         %mp2 Density unrelaxed end
         Otherwise for double-hybrid DFT only the energy is correct!

WARNING: The frozen-core approximation is turned on by default for 
         the MP2 part of double-hybrid DFT.

INFO   : the flag for use of LIBINT has been found!

================================================================================
                                       INPUT FILE
================================================================================
NAME = TMB29_T1.in
|  1> #
|  2> # TMB29_T1 ri-B2PLYP-D3BJ/Def2-TZVPPD
|  3> #
|  4> ! rijk ri-b2plyp d3bj def2-tzvppd def2/jk def2-tzvppd/c grid4 nofinalgrid
|  5> 
|  6> *xyz 1 1
|  7> C        0.302195   -1.452011   -0.105192 
|  8> C        1.172851   -0.582511    0.135564 
|  9> C        0.213900   -2.914548   -0.330337 
| 10> H        1.214756   -3.345744   -0.317276 
| 11> H       -0.388020   -3.382295    0.449588 
| 12> H       -0.265099   -3.130327   -1.285361 
| 13> C        1.829635    0.694580    0.494281 
| 14> O        3.171960    0.697894   -0.020842 
| 15> C        3.732653   -0.510299   -0.087290 
| 16> O        3.070225   -1.500320    0.142290 
| 17> C        1.080449    1.884401   -0.190647 
| 18> O        0.030957    2.232541    0.278513 
| 19> C        1.716450    2.521139   -1.379228 
| 20> H        1.946637    1.771224   -2.139595 
| 21> H        1.044796    3.276244   -1.779459 
| 22> H        2.667103    2.978996   -1.097340 
| 23> C        5.172060   -0.490501   -0.447138 
| 24> H        5.507658   -1.496958   -0.678577 
| 25> H        5.341426    0.179166   -1.290238 
| 26> H        5.741456   -0.101237    0.400021 
| 27> C        1.875471    0.903584    2.001010 
| 28> H        2.434564    1.811885    2.227294 
| 29> H        0.861108    1.010944    2.380408 
| 30> H        2.353249    0.052039    2.484190 
| 31> Au      -1.471331   -0.309724   -0.041930 
| 32> P       -3.515153    0.680562    0.009165 
| 33> H       -3.799713    1.607377   -1.007127 
| 34> H       -4.633094   -0.165367   -0.073799 
| 35> H       -3.823490    1.429925    1.156436 
| 36> *
| 37> 
| 38> %maxcore 5000
| 39> 
| 40> %pal
| 41> nprocs = 24
| 42> end
| 43> 
| 44> 
| 45>                          ****END OF INPUT****
================================================================================

                       ****************************
                       * Single Point Calculation *
                       ****************************

---------------------------------
CARTESIAN COORDINATES (ANGSTROEM)
---------------------------------
  C      0.302195   -1.452011   -0.105192
  C      1.172851   -0.582511    0.135564
  C      0.213900   -2.914548   -0.330337
  H      1.214756   -3.345744   -0.317276
  H     -0.388020   -3.382295    0.449588
  H     -0.265099   -3.130327   -1.285361
  C      1.829635    0.694580    0.494281
  O      3.171960    0.697894   -0.020842
  C      3.732653   -0.510299   -0.087290
  O      3.070225   -1.500320    0.142290
  C      1.080449    1.884401   -0.190647
  O      0.030957    2.232541    0.278513
  C      1.716450    2.521139   -1.379228
  H      1.946637    1.771224   -2.139595
  H      1.044796    3.276244   -1.779459
  H      2.667103    2.978996   -1.097340
  C      5.172060   -0.490501   -0.447138
  H      5.507658   -1.496958   -0.678577
  H      5.341426    0.179166   -1.290238
  H      5.741456   -0.101237    0.400021
  C      1.875471    0.903584    2.001010
  H      2.434564    1.811885    2.227294
  H      0.861108    1.010944    2.380408
  H      2.353249    0.052039    2.484190
  Au    -1.471331   -0.309724   -0.041930
  P     -3.515153    0.680562    0.009165
  H     -3.799713    1.607377   -1.007127
  H     -4.633094   -0.165367   -0.073799
  H     -3.823490    1.429925    1.156436

----------------------------
CARTESIAN COORDINATES (A.U.)
----------------------------
  NO LB      ZA    FRAG     MASS         X           Y           Z
   0 C     6.0000    0    12.011    0.571066   -2.743903   -0.198784
   1 C     6.0000    0    12.011    2.216367   -1.100786    0.256179
   2 C     6.0000    0    12.011    0.404212   -5.507698   -0.624246
   3 H     1.0000    0     1.008    2.295556   -6.322540   -0.599565
   4 H     1.0000    0     1.008   -0.733252   -6.391611    0.849598
   5 H     1.0000    0     1.008   -0.500965   -5.915461   -2.428980
   6 C     6.0000    0    12.011    3.457509    1.312566    0.934056
   7 O     8.0000    0    15.999    5.994136    1.318829   -0.039386
   8 C     6.0000    0    12.011    7.053692   -0.964325   -0.164954
   9 O     8.0000    0    15.999    5.801884   -2.835194    0.268889
  10 C     6.0000    0    12.011    2.041753    3.561002   -0.360271
  11 O     8.0000    0    15.999    0.058500    4.218891    0.526313
  12 C     6.0000    0    12.011    3.243620    4.764262   -2.606363
  13 H     1.0000    0     1.008    3.678611    3.347128   -4.043249
  14 H     1.0000    0     1.008    1.974378    6.191204   -3.362690
  15 H     1.0000    0     1.008    5.040094    5.629487   -2.073672
  16 C     6.0000    0    12.011    9.773777   -0.926913   -0.844968
  17 H     1.0000    0     1.008   10.407965   -2.828841   -1.282325
  18 H     1.0000    0     1.008   10.093832    0.338575   -2.438196
  19 H     1.0000    0     1.008   10.849779   -0.191310    0.755930
  20 C     6.0000    0    12.011    3.544127    1.707526    3.781361
  21 H     1.0000    0     1.008    4.600659    3.423966    4.208976
  22 H     1.0000    0     1.008    1.627258    1.910407    4.498319
  23 H     1.0000    0     1.008    4.446996    0.098339    4.694439
  24 Au   19.0000*   0   196.966   -2.780413   -0.585294   -0.079236
  25 P    15.0000    0    30.974   -6.642676    1.286076    0.017319
  26 H     1.0000    0     1.008   -7.180417    3.037502   -1.903194
  27 H     1.0000    0     1.008   -8.755279   -0.312498   -0.139460
  28 H     1.0000    0     1.008   -7.225349    2.702167    2.185347
* core charge reduced due to ECP

--------------------------------
INTERNAL COORDINATES (ANGSTROEM)
--------------------------------
 C      0   0   0     0.000000000000     0.00000000     0.00000000
 C      1   0   0     1.253808427102     0.00000000     0.00000000
 C      1   2   0     1.482396962497   139.00097393     0.00000000
 H      3   1   2     1.089868484209   109.50092642   357.00292483
 H      3   1   2     1.090586057143   110.32884093   117.19761608
 H      3   1   2     1.089986907911   110.76652575   235.99172996
 C      2   1   3     1.480204219365   162.35995816   190.89274753
 O      7   2   1     1.437775745153   109.23341235   200.96347184
 C      8   7   2     1.333612500767   114.09704630   329.37172948
 O      9   8   7     1.213119702266   120.02236199     7.41615220
 C      7   2   1     1.563994897633   109.73614328   317.69849477
 O     11   7   2     1.201143631405   117.90356884    76.01696176
 C     11   7   2     1.490857922877   118.01529358   255.64963101
 H     13  11   7     1.092481824509   110.58499397    54.19639245
 H     13  11   7     1.086962515500   109.06556554   175.94916979
 H     13  11   7     1.092169860142   110.15747824   296.74249284
 C      9   8   7     1.483837947876   114.06911022   187.65389595
 H     17   9   8     1.085884764224   109.82337738   191.42200465
 H     17   9   8     1.089934100230   110.27501485   313.91822715
 H     17   9   8     1.092436102384   108.80219067    71.53430249
 C      7   2   1     1.521846211137   111.82606944    80.16724023
 H     21   7   2     1.090321116876   109.59261985   175.51942332
 H     21   7   2     1.088302029665   109.30685440   294.75731039
 H     21   7   2     1.089432704075   110.18002932    54.93648296
 Au     1   2   3     2.110501396277   101.67950911   176.51125999
 P     25   1   2     2.271670184799   173.05592211   188.22990476
 H     26  25   1     1.404567501792   116.97824767   239.07176733
 H     26  25   1     1.404375654096   116.89051683   359.17332928
 H     26  25   1     1.404580848075   116.64428302   119.09984752

---------------------------
INTERNAL COORDINATES (A.U.)
---------------------------
 C      0   0   0     0.000000000000     0.00000000     0.00000000
 C      1   0   0     2.369354551625     0.00000000     0.00000000
 C      1   2   0     2.801324280875   139.00097393     0.00000000
 H      3   1   2     2.059552957148   109.50092642   357.00292483
 H      3   1   2     2.060908973473   110.32884093   117.19761608
 H      3   1   2     2.059776745512   110.76652575   235.99172996
 C      2   1   3     2.797180596875   162.35995816   190.89274753
 O      7   2   1     2.717002400334   109.23341235   200.96347184
 C      8   7   2     2.520162395223   114.09704630   329.37172948
 O      9   8   7     2.292464004946   120.02236199     7.41615220
 C      7   2   1     2.955522031376   109.73614328   317.69849477
 O     11   7   2     2.269832510858   117.90356884    76.01696176
 C     11   7   2     2.817313178825   118.01529358   255.64963101
 H     13  11   7     2.064491454609   110.58499397    54.19639245
 H     13  11   7     2.054061472133   109.06556554   175.94916979
 H     13  11   7     2.063901927391   110.15747824   296.74249284
 C      9   8   7     2.804047348605   114.06911022   187.65389595
 H     17   9   8     2.052024817381   109.82337738   191.42200465
 H     17   9   8     2.059676953457   110.27501485   313.91822715
 H     17   9   8     2.064405052315   108.80219067    71.53430249
 C      7   2   1     2.875872556995   111.82606944    80.16724023
 H     21   7   2     2.060408308927   109.59261985   175.51942332
 H     21   7   2     2.056592787058   109.30685440   294.75731039
 H     21   7   2     2.058729452040   110.18002932    54.93648296
 Au     1   2   3     3.988269644223   101.67950911   176.51125999
 P     25   1   2     4.292834515865   173.05592211   188.22990476
 H     26  25   1     2.654247914992   116.97824767   239.07176733
 H     26  25   1     2.653885375388   116.89051683   359.17332928
 H     26  25   1     2.654273135813   116.64428302   119.09984752

---------------------
BASIS SET INFORMATION
---------------------
There are 5 groups of distinct atoms

 Group   1 Type C   : 12s6p3d1f contracted to 6s3p3d1f pattern {621111/411/111/1}
 Group   2 Type H   : 5s3p1d contracted to 3s3p1d pattern {311/111/1}
 Group   3 Type O   : 12s7p3d1f contracted to 6s4p3d1f pattern {621111/4111/111/1}
 Group   4 Type Au  : 8s8p6d2f1g contracted to 6s5p3d2f1g pattern {311111/41111/411/11/1}
 Group   5 Type P   : 15s9p4d1f contracted to 6s5p4d1f pattern {732111/51111/1111/1}

Atom   0C    basis set group =>   1
Atom   1C    basis set group =>   1
Atom   2C    basis set group =>   1
Atom   3H    basis set group =>   2
Atom   4H    basis set group =>   2
Atom   5H    basis set group =>   2
Atom   6C    basis set group =>   1
Atom   7O    basis set group =>   3
Atom   8C    basis set group =>   1
Atom   9O    basis set group =>   3
Atom  10C    basis set group =>   1
Atom  11O    basis set group =>   3
Atom  12C    basis set group =>   1
Atom  13H    basis set group =>   2
Atom  14H    basis set group =>   2
Atom  15H    basis set group =>   2
Atom  16C    basis set group =>   1
Atom  17H    basis set group =>   2
Atom  18H    basis set group =>   2
Atom  19H    basis set group =>   2
Atom  20C    basis set group =>   1
Atom  21H    basis set group =>   2
Atom  22H    basis set group =>   2
Atom  23H    basis set group =>   2
Atom  24Au   basis set group =>   4
Atom  25P    basis set group =>   5
Atom  26H    basis set group =>   2
Atom  27H    basis set group =>   2
Atom  28H    basis set group =>   2
---------------------------------
AUXILIARY/C BASIS SET INFORMATION
---------------------------------
There are 5 groups of distinct atoms

 Group   1 Type C   : 9s7p6d4f1g contracted to 9s7p5d4f1g pattern {111111111/1111111/21111/1111/1}
 Group   2 Type H   : 5s4p3d1f contracted to 5s4p3d1f pattern {11111/1111/111/1}
 Group   3 Type O   : 9s7p6d4f1g contracted to 9s7p5d4f1g pattern {111111111/1111111/21111/1111/1}
 Group   4 Type Au  : 9s9p8d5f4g3h1i contracted to 9s9p8d5f4g3h1i pattern {111111111/111111111/11111111/11111/1111/111/1}
 Group   5 Type P   : 12s9p8d6f2g contracted to 12s9p8d6f2g pattern {111111111111/111111111/11111111/111111/11}

Atom   0C    basis set group =>   1
Atom   1C    basis set group =>   1
Atom   2C    basis set group =>   1
Atom   3H    basis set group =>   2
Atom   4H    basis set group =>   2
Atom   5H    basis set group =>   2
Atom   6C    basis set group =>   1
Atom   7O    basis set group =>   3
Atom   8C    basis set group =>   1
Atom   9O    basis set group =>   3
Atom  10C    basis set group =>   1
Atom  11O    basis set group =>   3
Atom  12C    basis set group =>   1
Atom  13H    basis set group =>   2
Atom  14H    basis set group =>   2
Atom  15H    basis set group =>   2
Atom  16C    basis set group =>   1
Atom  17H    basis set group =>   2
Atom  18H    basis set group =>   2
Atom  19H    basis set group =>   2
Atom  20C    basis set group =>   1
Atom  21H    basis set group =>   2
Atom  22H    basis set group =>   2
Atom  23H    basis set group =>   2
Atom  24Au   basis set group =>   4
Atom  25P    basis set group =>   5
Atom  26H    basis set group =>   2
Atom  27H    basis set group =>   2
Atom  28H    basis set group =>   2
----------------------------------
AUXILIARY/JK BASIS SET INFORMATION
----------------------------------
There are 5 groups of distinct atoms

 Group   1 Type C   : 14s10p6d2f1g contracted to 10s8p5d1f1g pattern {5111111111/31111111/21111/2/1}
 Group   2 Type H   : 4s2p2d contracted to 2s2p2d pattern {31/11/11}
 Group   3 Type O   : 14s10p6d2f1g contracted to 10s8p4d2f1g pattern {5111111111/31111111/3111/11/1}
 Group   4 Type Au  : 13s12p11d9f5g3h2i contracted to 13s11p10d8f4g3h2i pattern {1111111111111/21111111111/2111111111/21111111/2111/111/11}
 Group   5 Type P   : 16s12p10d4f1g contracted to 13s11p9d4f1g pattern {4111111111111/21111111111/211111111/1111/1}

Atom   0C    basis set group =>   1
Atom   1C    basis set group =>   1
Atom   2C    basis set group =>   1
Atom   3H    basis set group =>   2
Atom   4H    basis set group =>   2
Atom   5H    basis set group =>   2
Atom   6C    basis set group =>   1
Atom   7O    basis set group =>   3
Atom   8C    basis set group =>   1
Atom   9O    basis set group =>   3
Atom  10C    basis set group =>   1
Atom  11O    basis set group =>   3
Atom  12C    basis set group =>   1
Atom  13H    basis set group =>   2
Atom  14H    basis set group =>   2
Atom  15H    basis set group =>   2
Atom  16C    basis set group =>   1
Atom  17H    basis set group =>   2
Atom  18H    basis set group =>   2
Atom  19H    basis set group =>   2
Atom  20C    basis set group =>   1
Atom  21H    basis set group =>   2
Atom  22H    basis set group =>   2
Atom  23H    basis set group =>   2
Atom  24Au   basis set group =>   4
Atom  25P    basis set group =>   5
Atom  26H    basis set group =>   2
Atom  27H    basis set group =>   2
Atom  28H    basis set group =>   2
-------------------------
ECP PARAMETER INFORMATION
-------------------------

 Group 1, Type Au ECP Def2-ECP (replacing 60 core electrons, lmax=3)

Atom  24Au   ECP group =>   1



           ************************************************************
           *        Program running with 24 parallel MPI-processes    *
           *              working on a common directory               *
           ************************************************************
------------------------------------------------------------------------------
                           ORCA GTO INTEGRAL CALCULATION
                           -- RI-GTO INTEGRALS CHOSEN --
------------------------------------------------------------------------------

                         BASIS SET STATISTICS AND STARTUP INFO

Gaussian basis set:
 # of primitive gaussian shells          ...  456
 # of primitive gaussian functions       ... 1072
 # of contracted shells                  ...  297
 # of contracted basis functions         ...  815
 Highest angular momentum                ...    4
 Maximum contraction depth               ...    7
Auxiliary gaussian basis set:
 # of primitive gaussian shells          ...  614
 # of primitive gaussian functions       ... 1874
 # of contracted shells                  ...  479
 # of contracted aux-basis functions     ... 1551
 Highest angular momentum                ...    6
 Maximum contraction depth               ...    5
Ratio of auxiliary to basis functions    ...  1.90
Integral package used                  ... LIBINT
 One Electron integrals                  
   ECP integrals                         ... done
 Ordering auxiliary basis shells         ... done
 Integral threshhold             Thresh  ...  1.000e-10
 Primitive cut-off               TCut    ...  1.000e-11
 Pre-screening matrix                    ... done
 Shell pair data                         ... 
 Ordering of the shell pairs             ... done (   0.006 sec) 36192 of 44253 pairs
 Determination of significant pairs      ... done (   0.000 sec)
 Creation of shell pair data             ... done (   0.003 sec)
 Storage of shell pair data              ... done (   0.007 sec)
 Shell pair data done in (   0.017 sec)
 Computing two index integrals           ... done
 Cholesky decomposition of the V-matrix  ... done


Timings:
 Total evaluation time                   ...   3.064 sec (  0.051 min)
 One electron matrix time                ...   2.446 sec (  0.041 min) = 79.8%
 Schwartz matrix evaluation time         ...   0.348 sec (  0.006 min) = 11.4%
 Two index repulsion integral time       ...   0.118 sec (  0.002 min) =  3.8%
 Cholesky decomposition of V             ...   0.110 sec (  0.002 min) =  3.6%
 Three index repulsion integral time     ...   0.000 sec (  0.000 min) =  0.0%



           ************************************************************
           *        Program running with 24 parallel MPI-processes    *
           *              working on a common directory               *
           ************************************************************
-------------------------------------------------------------------------------
                                 ORCA SCF
-------------------------------------------------------------------------------

------------
SCF SETTINGS
------------
Hamiltonian:
 Density Functional     Method          .... DFT(GTOs)
 Exchange Functional    Exchange        .... B88
   X-Alpha parameter    XAlpha          ....  0.666667
   Becke's b parameter  XBeta           ....  0.004200
 Correlation Functional Correlation     .... LYP
 LDA part of GGA corr.  LDAOpt          .... VWN-3
 Gradients option       PostSCFGGA      .... off
 Hybrid DFT is turned on
   Fraction HF Exchange ScalHFX         ....  0.530000
   Scaling of DF-GGA-X  ScalDFX         ....  0.470000
   Scaling of DF-GGA-C  ScalDFC         ....  0.730000
   Scaling of DF-LDA-C  ScalLDAC        ....  0.730000
   Perturbative correction              ....  0.270000
   Density functional embedding theory  .... OFF
 RI-approximation to the Coulomb term is turned on
   Number of auxiliary basis functions  .... 1551
   RI-JK (J+K treated both via RI)      .... on


General Settings:
 Integral files         IntName         .... TMB29_T1
 Hartree-Fock type      HFTyp           .... RHF
 Total Charge           Charge          ....    1
 Multiplicity           Mult            ....    1
 Number of Electrons    NEL             ....  126
 Basis Dimension        Dim             ....  815
 Nuclear Repulsion      ENuc            ....   1205.6353180124 Eh

Convergence Acceleration:
 DIIS                   CNVDIIS         .... on
   Start iteration      DIISMaxIt       ....    12
   Startup error        DIISStart       ....  0.200000
   # of expansion vecs  DIISMaxEq       ....     5
   Bias factor          DIISBfac        ....   1.050
   Max. coefficient     DIISMaxC        ....  10.000
 Newton-Raphson         CNVNR           .... off
 SOSCF                  CNVSOSCF        .... off
 Level Shifting         CNVShift        .... on
   Level shift para.    LevelShift      ....    0.2500
   Turn off err/grad.   ShiftErr        ....    0.0010
 Zerner damping         CNVZerner       .... off
 Static damping         CNVDamp         .... on
   Fraction old density DampFac         ....    0.7000
   Max. Damping (<1)    DampMax         ....    0.9800
   Min. Damping (>=0)   DampMin         ....    0.0000
   Turn off err/grad.   DampErr         ....    0.1000
 Fernandez-Rico         CNVRico         .... off

SCF Procedure:
 Maximum # iterations   MaxIter         ....   125
 SCF integral mode      SCFMode         .... Direct
   Integral package                     .... LIBINT
 Reset frequency        DirectResetFreq ....    20
 Integral Threshold     Thresh          ....  1.000e-10 Eh
 Primitive CutOff       TCut            ....  1.000e-11 Eh

Convergence Tolerance:
 Convergence Check Mode ConvCheckMode   .... Total+1el-Energy
 Convergence forced     ConvForced      .... 0
 Energy Change          TolE            ....  1.000e-06 Eh
 1-El. energy change                    ....  1.000e-03 Eh
 DIIS Error             TolErr          ....  1.000e-06


Diagonalization of the overlap matrix:
Smallest eigenvalue                        ... 3.384e-07
Time for diagonalization                   ...    0.112 sec
Threshold for overlap eigenvalues          ... 1.000e-08
Number of eigenvalues below threshold      ... 0
Time for construction of square roots      ...    0.083 sec
Total time needed                          ...    0.198 sec

-------------------
DFT GRID GENERATION
-------------------

General Integration Accuracy     IntAcc      ...  4.670
Radial Grid Type                 RadialGrid  ... Gauss-Chebyshev
Angular Grid (max. acc.)         AngularGrid ... Lebedev-302
Angular grid pruning method      GridPruning ... 3 (G Style)
Weight generation scheme         WeightScheme... Becke
Basis function cutoff            BFCut       ...    1.0000e-10
Integration weight cutoff        WCut        ...    1.0000e-14
Grids for H and He will be reduced by one unit

# of grid points (after initial pruning)     ... 143952 (   0.0 sec)
# of grid points (after weights+screening)   ... 128143 (   0.1 sec)
nearest neighbour list constructed           ...    0.0 sec
Grid point re-assignment to atoms done       ...    0.0 sec
Grid point division into batches done        ...    0.4 sec
Reduced shell lists constructed in    0.9 sec

Total number of grid points                  ...   128143
Total number of batches                      ...     2016
Average number of points per batch           ...       63
Average number of grid points per atom       ...     4419
Average number of shells per batch           ...   184.31 (62.06%)
Average number of basis functions per batch  ...   509.01 (62.46%)
Average number of large shells per batch     ...   143.99 (78.12%)
Average number of large basis fcns per batch ...   396.25 (77.85%)
Average number of aux-shells per batch       ...   184.31 (38.48%)
Average number of aux functions per batch    ...   509.01 (32.82%)
Maximum spatial batch extension              ...   2.81,  2.92,  4.01 au
Average spatial batch extension              ...   0.05,  0.05,  0.06 au

Time for grid setup =    1.028 sec

------------------------------
INITIAL GUESS: MODEL POTENTIAL
------------------------------
Loading Hartree-Fock densities                     ... done
  calling /sw/apps/orca/orca_4_2_0_linux_x86-64_openmpi314/orca TMB29_T1_atom79.inp > TMB29_T1_atom79.out in order to generate an atomic fitting density for atom 24 (Au with ECP) on-the-fly... 
    atom 24 (Au), assumed electronic state with S=2: 1s2 2s2 2p6 3s2 3p6 4s2 3d10 4p6 5s2 4d10 5p6 6s1 4f14 5d10           ... done
Calculating cut-offs                               ... done
Setting up the integral package                    ... done
Initializing the effective Hamiltonian             ... done
Starting the Coulomb interaction                   ... done (   0.1 sec)
Reading the grid                                   ... done
Mapping shells                                     ... done
Starting the XC term evaluation                    ... done (   0.3 sec)
  promolecular density results
     # of electrons  =    186.994240953
     EX              =   -465.363593416
     EC              =     -2.866504942
     EX+EC           =   -468.230098358
Transforming the Hamiltonian                       ... done (   0.1 sec)
Diagonalizing the Hamiltonian                      ... done (   0.1 sec)
Back transforming the eigenvectors                 ... done (   0.0 sec)
Now organizing SCF variables                       ... done
                      ------------------
                      INITIAL GUESS DONE (   2.8 sec)
                      ------------------
--------------
SCF ITERATIONS
--------------
ITER       Energy         Delta-E        Max-DP      RMS-DP      [F,P]     Damp
  0  -1052.5419860325   0.000000000000 5.86444138  0.01475399  0.5368926 0.7000
  1  -1052.3972200483   0.144765984295 4.21989149  0.01075672  0.3876237 0.7000
  2  -1052.5439551519  -0.146735103689 2.84693738  0.00723424  0.2670246 0.7000
                               ***Turning on DIIS***
  3  -1052.7604130419  -0.216457890004 1.90339234  0.00472220  0.1842088 0.7000
  4  -1052.9288121408  -0.168399098856 1.25459978  0.00305282  0.1277932 0.7000
  5  -1053.0110339834  -0.082221842625 2.90009447  0.00724737  0.0888045 0.0000
  6  -1053.0602041088  -0.049170125354 0.24930514  0.00060045  0.0172391 0.0000
  7  -1053.0618558164  -0.001651707592 0.23491922  0.00044228  0.0025558 0.0000
  8  -1053.0619064541  -0.000050637769 0.36614569  0.00075187  0.0018225 0.0000
  9  -1053.0619238629  -0.000017408731 0.48474243  0.00100735  0.0010914 0.0000
 10  -1053.0619295288  -0.000005665899 0.30305074  0.00063502  0.0005591 0.0000
 11  -1053.0619308721  -0.000001343309 0.12375881  0.00031777  0.0002529 0.0000
 12  -1053.0619311151  -0.000000242977 0.06585150  0.00020403  0.0000649 0.0000
                 **** Energy Check signals convergence ****

               *****************************************************
               *                     SUCCESS                       *
               *           SCF CONVERGED AFTER  13 CYCLES          *
               *****************************************************


----------------
TOTAL SCF ENERGY
----------------

Total Energy       :        -1053.06193115 Eh          -28655.27195 eV

Components:
Nuclear Repulsion  :         1205.63531801 Eh           32807.00488 eV
Electronic Energy  :        -2258.69724916 Eh          -61462.27683 eV
One Electron Energy:        -3875.88388057 Eh         -105468.16229 eV
Two Electron Energy:         1617.18663141 Eh           44005.88546 eV

Virial components:
Potential Energy   :        -2014.23079480 Eh          -54810.00641 eV
Kinetic Energy     :          961.16886365 Eh           26154.73446 eV
Virial Ratio       :            2.09560554


DFT components:
N(Alpha)           :       62.999966348070 electrons
N(Beta)            :       62.999966348070 electrons
N(Total)           :      125.999932696139 electrons
E(X)               :      -52.403219165893 Eh       
E(C)               :       -3.233646081178 Eh       
E(XC)              :      -55.636865247070 Eh       
DFET-embed. en.    :        0.000000000000 Eh       

---------------
SCF CONVERGENCE
---------------

  Last Energy change         ...   -3.6303e-08  Tolerance :   1.0000e-06
  Last MAX-Density change    ...    7.3002e-02  Tolerance :   1.0000e-05
  Last RMS-Density change    ...    2.0416e-04  Tolerance :   1.0000e-06
  Last DIIS Error            ...    4.6039e-05  Tolerance :   1.0000e-06

             **** THE GBW FILE WAS UPDATED (TMB29_T1.gbw) ****
             **** DENSITY FILE WAS UPDATED (TMB29_T1.scfp) ****
             **** ENERGY FILE WAS UPDATED (TMB29_T1.en.tmp) ****
             **** THE GBW FILE WAS UPDATED (TMB29_T1.gbw) ****
             **** DENSITY FILE WAS UPDATED (TMB29_T1.scfp) ****
----------------
ORBITAL ENERGIES
----------------

  NO   OCC          E(Eh)            E(eV) 
   0   2.0000     -78.448084     -2134.6809 
   1   2.0000     -19.927121      -542.2445 
   2   2.0000     -19.873838      -540.7946 
   3   2.0000     -19.862342      -540.4818 
   4   2.0000     -10.906226      -296.7735 
   5   2.0000     -10.863878      -295.6211 
   6   2.0000     -10.859534      -295.5029 
   7   2.0000     -10.824339      -294.5453 
   8   2.0000     -10.778736      -293.3043 
   9   2.0000     -10.748993      -292.4950 
  10   2.0000     -10.747982      -292.4675 
  11   2.0000     -10.742580      -292.3205 
  12   2.0000     -10.741689      -292.2962 
  13   2.0000      -7.118324      -193.6994 
  14   2.0000      -5.169434      -140.6675 
  15   2.0000      -5.169412      -140.6669 
  16   2.0000      -5.167776      -140.6223 
  17   2.0000      -4.544922      -123.6736 
  18   2.0000      -2.670426       -72.6660 
  19   2.0000      -2.655130       -72.2498 
  20   2.0000      -2.654975       -72.2455 
  21   2.0000      -1.426992       -38.8304 
  22   2.0000      -1.344279       -36.5797 
  23   2.0000      -1.318496       -35.8781 
  24   2.0000      -1.098552       -29.8931 
  25   2.0000      -1.041777       -28.3482 
  26   2.0000      -0.993921       -27.0460 
  27   2.0000      -0.990305       -26.9476 
  28   2.0000      -0.944401       -25.6985 
  29   2.0000      -0.910845       -24.7854 
  30   2.0000      -0.896557       -24.3965 
  31   2.0000      -0.835324       -22.7303 
  32   2.0000      -0.800032       -21.7700 
  33   2.0000      -0.741603       -20.1800 
  34   2.0000      -0.724339       -19.7103 
  35   2.0000      -0.710059       -19.3217 
  36   2.0000      -0.684503       -18.6263 
  37   2.0000      -0.670375       -18.2418 
  38   2.0000      -0.660593       -17.9757 
  39   2.0000      -0.653785       -17.7904 
  40   2.0000      -0.642489       -17.4830 
  41   2.0000      -0.628738       -17.1088 
  42   2.0000      -0.626909       -17.0591 
  43   2.0000      -0.623477       -16.9657 
  44   2.0000      -0.620550       -16.8860 
  45   2.0000      -0.611318       -16.6348 
  46   2.0000      -0.609956       -16.5977 
  47   2.0000      -0.604462       -16.4483 
  48   2.0000      -0.599238       -16.3061 
  49   2.0000      -0.584464       -15.9041 
  50   2.0000      -0.581022       -15.8104 
  51   2.0000      -0.573898       -15.6166 
  52   2.0000      -0.558696       -15.2029 
  53   2.0000      -0.545069       -14.8321 
  54   2.0000      -0.538651       -14.6574 
  55   2.0000      -0.530936       -14.4475 
  56   2.0000      -0.528022       -14.3682 
  57   2.0000      -0.522425       -14.2159 
  58   2.0000      -0.518950       -14.1214 
  59   2.0000      -0.481801       -13.1105 
  60   2.0000      -0.472895       -12.8681 
  61   2.0000      -0.448619       -12.2075 
  62   2.0000      -0.445533       -12.1236 
  63   0.0000      -0.144381        -3.9288 
  64   0.0000      -0.114461        -3.1146 
  65   0.0000      -0.105109        -2.8602 
  66   0.0000      -0.087829        -2.3899 
  67   0.0000      -0.078088        -2.1249 
  68   0.0000      -0.077053        -2.0967 
  69   0.0000      -0.064305        -1.7498 
  70   0.0000      -0.056448        -1.5360 
  71   0.0000      -0.051458        -1.4002 
  72   0.0000      -0.050089        -1.3630 
  73   0.0000      -0.043558        -1.1853 
  74   0.0000      -0.039152        -1.0654 
  75   0.0000      -0.033382        -0.9084 
  76   0.0000      -0.030298        -0.8245 
  77   0.0000      -0.019261        -0.5241 
  78   0.0000      -0.015343        -0.4175 
  79   0.0000      -0.013548        -0.3687 
  80   0.0000      -0.010665        -0.2902 
  81   0.0000      -0.006151        -0.1674 
  82   0.0000      -0.004016        -0.1093 
  83   0.0000      -0.001763        -0.0480 
  84   0.0000       0.003730         0.1015 
  85   0.0000       0.011160         0.3037 
  86   0.0000       0.014113         0.3840 
  87   0.0000       0.018496         0.5033 
  88   0.0000       0.025949         0.7061 
  89   0.0000       0.035901         0.9769 
  90   0.0000       0.038076         1.0361 
  91   0.0000       0.041288         1.1235 
  92   0.0000       0.045266         1.2318 
  93   0.0000       0.048360         1.3159 
  94   0.0000       0.056337         1.5330 
  95   0.0000       0.056946         1.5496 
  96   0.0000       0.067482         1.8363 
  97   0.0000       0.069793         1.8992 
  98   0.0000       0.073119         1.9897 
  99   0.0000       0.075104         2.0437 
 100   0.0000       0.082935         2.2568 
 101   0.0000       0.088402         2.4055 
 102   0.0000       0.091337         2.4854 
 103   0.0000       0.094205         2.5635 
 104   0.0000       0.097162         2.6439 
 105   0.0000       0.102031         2.7764 
 106   0.0000       0.106128         2.8879 
 107   0.0000       0.115170         3.1339 
 108   0.0000       0.123051         3.3484 
 109   0.0000       0.128280         3.4907 
 110   0.0000       0.131106         3.5676 
 111   0.0000       0.133231         3.6254 
 112   0.0000       0.135395         3.6843 
 113   0.0000       0.138438         3.7671 
 114   0.0000       0.142567         3.8794 
 115   0.0000       0.145917         3.9706 
 116   0.0000       0.147136         4.0038 
 117   0.0000       0.149199         4.0599 
 118   0.0000       0.156306         4.2533 
 119   0.0000       0.159088         4.3290 
 120   0.0000       0.161224         4.3871 
 121   0.0000       0.163888         4.4596 
 122   0.0000       0.165563         4.5052 
 123   0.0000       0.169541         4.6135 
 124   0.0000       0.170566         4.6413 
 125   0.0000       0.173785         4.7289 
 126   0.0000       0.177481         4.8295 
 127   0.0000       0.182725         4.9722 
 128   0.0000       0.184992         5.0339 
 129   0.0000       0.186386         5.0718 
 130   0.0000       0.189340         5.1522 
 131   0.0000       0.192457         5.2370 
 132   0.0000       0.194181         5.2839 
 133   0.0000       0.198374         5.3980 
 134   0.0000       0.202554         5.5118 
 135   0.0000       0.204636         5.5684 
 136   0.0000       0.207954         5.6587 
 137   0.0000       0.211540         5.7563 
 138   0.0000       0.213675         5.8144 
 139   0.0000       0.218491         5.9454 
 140   0.0000       0.220279         5.9941 
 141   0.0000       0.223872         6.0919 
 142   0.0000       0.226685         6.1684 
 143   0.0000       0.231350         6.2954 
 144   0.0000       0.234317         6.3761 
 145   0.0000       0.239148         6.5075 
 146   0.0000       0.240190         6.5359 
 147   0.0000       0.241694         6.5768 
 148   0.0000       0.243076         6.6144 
 149   0.0000       0.247533         6.7357 
 150   0.0000       0.253057         6.8860 
 151   0.0000       0.256896         6.9905 
 152   0.0000       0.261549         7.1171 
 153   0.0000       0.264684         7.2024 
 154   0.0000       0.271211         7.3800 
 155   0.0000       0.273075         7.4307 
 156   0.0000       0.274338         7.4651 
 157   0.0000       0.279369         7.6020 
 158   0.0000       0.283648         7.7184 
 159   0.0000       0.286608         7.7990 
 160   0.0000       0.288152         7.8410 
 161   0.0000       0.289949         7.8899 
 162   0.0000       0.295483         8.0405 
 163   0.0000       0.301246         8.1973 
 164   0.0000       0.303327         8.2540 
 165   0.0000       0.305585         8.3154 
 166   0.0000       0.311379         8.4730 
 167   0.0000       0.314658         8.5623 
 168   0.0000       0.315339         8.5808 
 169   0.0000       0.316226         8.6049 
 170   0.0000       0.323426         8.8009 
 171   0.0000       0.327851         8.9213 
 172   0.0000       0.329633         8.9698 
 173   0.0000       0.333418         9.0728 
 174   0.0000       0.335415         9.1271 
 175   0.0000       0.338297         9.2055 
 176   0.0000       0.342197         9.3117 
 177   0.0000       0.345218         9.3938 
 178   0.0000       0.347164         9.4468 
 179   0.0000       0.351905         9.5758 
 180   0.0000       0.355703         9.6792 
 181   0.0000       0.359099         9.7716 
 182   0.0000       0.362625         9.8675 
 183   0.0000       0.369278        10.0486 
 184   0.0000       0.369497        10.0545 
 185   0.0000       0.378450        10.2981 
 186   0.0000       0.380791        10.3619 
 187   0.0000       0.384351        10.4587 
 188   0.0000       0.386715        10.5230 
 189   0.0000       0.393214        10.6999 
 190   0.0000       0.397846        10.8259 
 191   0.0000       0.404578        11.0091 
 192   0.0000       0.407266        11.0823 
 193   0.0000       0.408212        11.1080 
 194   0.0000       0.409528        11.1438 
 195   0.0000       0.415422        11.3042 
 196   0.0000       0.421404        11.4670 
 197   0.0000       0.422285        11.4910 
 198   0.0000       0.424944        11.5633 
 199   0.0000       0.427931        11.6446 
 200   0.0000       0.428235        11.6529 
 201   0.0000       0.438620        11.9355 
 202   0.0000       0.439968        11.9721 
 203   0.0000       0.446087        12.1386 
 204   0.0000       0.453777        12.3479 
 205   0.0000       0.455787        12.4026 
 206   0.0000       0.458116        12.4660 
 207   0.0000       0.461945        12.5702 
 208   0.0000       0.465772        12.6743 
 209   0.0000       0.468203        12.7404 
 210   0.0000       0.474842        12.9211 
 211   0.0000       0.477887        13.0040 
 212   0.0000       0.478861        13.0305 
 213   0.0000       0.483492        13.1565 
 214   0.0000       0.487398        13.2628 
 215   0.0000       0.494200        13.4479 
 216   0.0000       0.500201        13.6112 
 217   0.0000       0.503333        13.6964 
 218   0.0000       0.507607        13.8127 
 219   0.0000       0.513513        13.9734 
 220   0.0000       0.518742        14.1157 
 221   0.0000       0.523486        14.2448 
 222   0.0000       0.531116        14.4524 
 223   0.0000       0.531461        14.4618 
 224   0.0000       0.537052        14.6139 
 225   0.0000       0.540790        14.7156 
 226   0.0000       0.545915        14.8551 
 227   0.0000       0.552348        15.0301 
 228   0.0000       0.558707        15.2032 
 229   0.0000       0.561516        15.2796 
 230   0.0000       0.565545        15.3893 
 231   0.0000       0.569210        15.4890 
 232   0.0000       0.579377        15.7656 
 233   0.0000       0.582814        15.8592 
 234   0.0000       0.584495        15.9049 
 235   0.0000       0.594736        16.1836 
 236   0.0000       0.595528        16.2051 
 237   0.0000       0.600645        16.3444 
 238   0.0000       0.607276        16.5248 
 239   0.0000       0.610913        16.6238 
 240   0.0000       0.621192        16.9035 
 241   0.0000       0.623973        16.9792 
 242   0.0000       0.626611        17.0510 
 243   0.0000       0.629759        17.1366 
 244   0.0000       0.633362        17.2346 
 245   0.0000       0.634542        17.2668 
 246   0.0000       0.641660        17.4605 
 247   0.0000       0.648601        17.6493 
 248   0.0000       0.653825        17.7915 
 249   0.0000       0.657855        17.9011 
 250   0.0000       0.659703        17.9514 
 251   0.0000       0.663311        18.0496 
 252   0.0000       0.669815        18.2266 
 253   0.0000       0.670566        18.2470 
 254   0.0000       0.673314        18.3218 
 255   0.0000       0.676894        18.4192 
 256   0.0000       0.681579        18.5467 
 257   0.0000       0.684318        18.6212 
 258   0.0000       0.688230        18.7277 
 259   0.0000       0.690109        18.7788 
 260   0.0000       0.699518        19.0349 
 261   0.0000       0.705854        19.2073 
 262   0.0000       0.710190        19.3252 
 263   0.0000       0.711993        19.3743 
 264   0.0000       0.716747        19.5037 
 265   0.0000       0.721773        19.6404 
 266   0.0000       0.725959        19.7544 
 267   0.0000       0.727229        19.7889 
 268   0.0000       0.733356        19.9556 
 269   0.0000       0.738589        20.0980 
 270   0.0000       0.746989        20.3266 
 271   0.0000       0.754545        20.5322 
 272   0.0000       0.757616        20.6158 
 273   0.0000       0.762763        20.7558 
 274   0.0000       0.766448        20.8561 
 275   0.0000       0.770014        20.9531 
 276   0.0000       0.776766        21.1369 
 277   0.0000       0.786052        21.3896 
 278   0.0000       0.788738        21.4626 
 279   0.0000       0.793187        21.5837 
 280   0.0000       0.800463        21.7817 
 281   0.0000       0.807026        21.9603 
 282   0.0000       0.811885        22.0925 
 283   0.0000       0.814412        22.1613 
 284   0.0000       0.816657        22.2224 
 285   0.0000       0.821601        22.3569 
 286   0.0000       0.822761        22.3885 
 287   0.0000       0.836293        22.7567 
 288   0.0000       0.837919        22.8009 
 289   0.0000       0.842311        22.9204 
 290   0.0000       0.848300        23.0834 
 291   0.0000       0.856171        23.2976 
 292   0.0000       0.867452        23.6046 
 293   0.0000       0.870957        23.6999 
 294   0.0000       0.878399        23.9025 
 295   0.0000       0.894027        24.3277 
 296   0.0000       0.899001        24.4631 
 297   0.0000       0.907243        24.6874 
 298   0.0000       0.915845        24.9214 
 299   0.0000       0.924906        25.1680 
 300   0.0000       0.927232        25.2313 
 301   0.0000       0.931821        25.3561 
 302   0.0000       0.940901        25.6032 
 303   0.0000       0.954396        25.9704 
 304   0.0000       0.959332        26.1048 
 305   0.0000       0.966774        26.3073 
 306   0.0000       0.969994        26.3949 
 307   0.0000       0.979359        26.6497 
 308   0.0000       0.983808        26.7708 
 309   0.0000       0.987805        26.8795 
 310   0.0000       0.998205        27.1626 
 311   0.0000       1.004337        27.3294 
 312   0.0000       1.008573        27.4447 
 313   0.0000       1.012877        27.5618 
 314   0.0000       1.020022        27.7562 
 315   0.0000       1.040465        28.3125 
 316   0.0000       1.043033        28.3824 
 317   0.0000       1.047410        28.5015 
 318   0.0000       1.050460        28.5845 
 319   0.0000       1.065268        28.9874 
 320   0.0000       1.069137        29.0927 
 321   0.0000       1.072607        29.1871 
 322   0.0000       1.086093        29.5541 
 323   0.0000       1.099194        29.9106 
 324   0.0000       1.106706        30.1150 
 325   0.0000       1.116130        30.3714 
 326   0.0000       1.121821        30.5263 
 327   0.0000       1.132373        30.8134 
 328   0.0000       1.144490        31.1432 
 329   0.0000       1.148950        31.2645 
 330   0.0000       1.156159        31.4607 
 331   0.0000       1.159735        31.5580 
 332   0.0000       1.169051        31.8115 
 333   0.0000       1.173438        31.9309 
 334   0.0000       1.179449        32.0944 
 335   0.0000       1.186292        32.2807 
 336   0.0000       1.192316        32.4446 
 337   0.0000       1.195081        32.5198 
 338   0.0000       1.199489        32.6398 
 339   0.0000       1.203047        32.7366 
 340   0.0000       1.222386        33.2628 
 341   0.0000       1.226000        33.3612 
 342   0.0000       1.229806        33.4647 
 343   0.0000       1.234690        33.5976 
 344   0.0000       1.239913        33.7397 
 345   0.0000       1.244216        33.8568 
 346   0.0000       1.248758        33.9804 
 347   0.0000       1.262294        34.3488 
 348   0.0000       1.271696        34.6046 
 349   0.0000       1.275521        34.7087 
 350   0.0000       1.282107        34.8879 
 351   0.0000       1.283089        34.9146 
 352   0.0000       1.288851        35.0714 
 353   0.0000       1.294303        35.2198 
 354   0.0000       1.298069        35.3222 
 355   0.0000       1.301597        35.4182 
 356   0.0000       1.310973        35.6734 
 357   0.0000       1.320219        35.9250 
 358   0.0000       1.322465        35.9861 
 359   0.0000       1.334463        36.3126 
 360   0.0000       1.339035        36.4370 
 361   0.0000       1.341812        36.5126 
 362   0.0000       1.345704        36.6185 
 363   0.0000       1.354124        36.8476 
 364   0.0000       1.369903        37.2769 
 365   0.0000       1.375906        37.4403 
 366   0.0000       1.380721        37.5713 
 367   0.0000       1.387251        37.7490 
 368   0.0000       1.394968        37.9590 
 369   0.0000       1.408615        38.3304 
 370   0.0000       1.418551        38.6007 
 371   0.0000       1.437851        39.1259 
 372   0.0000       1.446897        39.3721 
 373   0.0000       1.451502        39.4974 
 374   0.0000       1.456722        39.6394 
 375   0.0000       1.464303        39.8457 
 376   0.0000       1.468388        39.9569 
 377   0.0000       1.474371        40.1197 
 378   0.0000       1.492018        40.5999 
 379   0.0000       1.495929        40.7063 
 380   0.0000       1.496857        40.7315 
 381   0.0000       1.505423        40.9646 
 382   0.0000       1.521143        41.3924 
 383   0.0000       1.539555        41.8934 
 384   0.0000       1.542285        41.9677 
 385   0.0000       1.556259        42.3480 
 386   0.0000       1.563170        42.5360 
 387   0.0000       1.567461        42.6528 
 388   0.0000       1.570341        42.7312 
 389   0.0000       1.573389        42.8141 
 390   0.0000       1.580360        43.0038 
 391   0.0000       1.589425        43.2505 
 392   0.0000       1.598250        43.4906 
 393   0.0000       1.600730        43.5581 
 394   0.0000       1.612226        43.8709 
 395   0.0000       1.615647        43.9640 
 396   0.0000       1.620882        44.1064 
 397   0.0000       1.627052        44.2743 
 398   0.0000       1.629129        44.3308 
 399   0.0000       1.630692        44.3734 
 400   0.0000       1.640169        44.6313 
 401   0.0000       1.648091        44.8468 
 402   0.0000       1.655171        45.0395 
 403   0.0000       1.667841        45.3843 
 404   0.0000       1.671460        45.4827 
 405   0.0000       1.676095        45.6089 
 406   0.0000       1.678892        45.6850 
 407   0.0000       1.686973        45.9049 
 408   0.0000       1.691098        46.0171 
 409   0.0000       1.698833        46.2276 
 410   0.0000       1.705612        46.4121 
 411   0.0000       1.708317        46.4857 
 412   0.0000       1.716243        46.7013 
 413   0.0000       1.729163        47.0529 
 414   0.0000       1.738639        47.3108 
 415   0.0000       1.748974        47.5920 
 416   0.0000       1.764358        48.0106 
 417   0.0000       1.778539        48.3965 
 418   0.0000       1.784929        48.5704 
 419   0.0000       1.799695        48.9722 
 420   0.0000       1.809665        49.2435 
 421   0.0000       1.835692        49.9517 
 422   0.0000       1.840267        50.0762 
 423   0.0000       1.862227        50.6738 
 424   0.0000       1.873460        50.9794 
 425   0.0000       1.881829        51.2072 
 426   0.0000       1.893741        51.5313 
 427   0.0000       1.905323        51.8465 
 428   0.0000       1.920213        52.2516 
 429   0.0000       1.928789        52.4850 
 430   0.0000       1.933569        52.6151 
 431   0.0000       1.946506        52.9671 
 432   0.0000       1.957720        53.2723 
 433   0.0000       1.971292        53.6416 
 434   0.0000       1.977184        53.8019 
 435   0.0000       1.984563        54.0027 
 436   0.0000       1.990329        54.1596 
 437   0.0000       2.014308        54.8121 
 438   0.0000       2.030337        55.2483 
 439   0.0000       2.043703        55.6120 
 440   0.0000       2.054186        55.8972 
 441   0.0000       2.062753        56.1304 
 442   0.0000       2.074388        56.4470 
 443   0.0000       2.096228        57.0413 
 444   0.0000       2.102585        57.2143 
 445   0.0000       2.110094        57.4186 
 446   0.0000       2.132011        58.0150 
 447   0.0000       2.144134        58.3448 
 448   0.0000       2.159507        58.7632 
 449   0.0000       2.174531        59.1720 
 450   0.0000       2.184819        59.4519 
 451   0.0000       2.189734        59.5857 
 452   0.0000       2.204664        59.9919 
 453   0.0000       2.227074        60.6018 
 454   0.0000       2.234324        60.7990 
 455   0.0000       2.253351        61.3168 
 456   0.0000       2.262940        61.5777 
 457   0.0000       2.284363        62.1607 
 458   0.0000       2.311988        62.9124 
 459   0.0000       2.334776        63.5325 
 460   0.0000       2.349511        63.9334 
 461   0.0000       2.362320        64.2820 
 462   0.0000       2.382038        64.8185 
 463   0.0000       2.411778        65.6278 
 464   0.0000       2.420423        65.8630 
 465   0.0000       2.448182        66.6184 
 466   0.0000       2.464568        67.0643 
 467   0.0000       2.500531        68.0429 
 468   0.0000       2.502912        68.1077 
 469   0.0000       2.521725        68.6196 
 470   0.0000       2.538194        69.0678 
 471   0.0000       2.544201        69.2312 
 472   0.0000       2.571750        69.9809 
 473   0.0000       2.589586        70.4662 
 474   0.0000       2.600314        70.7582 
 475   0.0000       2.619083        71.2689 
 476   0.0000       2.637428        71.7681 
 477   0.0000       2.645797        71.9958 
 478   0.0000       2.668642        72.6175 
 479   0.0000       2.682115        72.9841 
 480   0.0000       2.728427        74.2443 
 481   0.0000       2.745811        74.7173 
 482   0.0000       2.752419        74.8971 
 483   0.0000       2.761770        75.1516 
 484   0.0000       2.766854        75.2899 
 485   0.0000       2.783930        75.7546 
 486   0.0000       2.788841        75.8882 
 487   0.0000       2.814424        76.5844 
 488   0.0000       2.824861        76.8684 
 489   0.0000       2.829767        77.0019 
 490   0.0000       2.830759        77.0289 
 491   0.0000       2.838942        77.2515 
 492   0.0000       2.852806        77.6288 
 493   0.0000       2.863019        77.9067 
 494   0.0000       2.866874        78.0116 
 495   0.0000       2.869509        78.0833 
 496   0.0000       2.878824        78.3368 
 497   0.0000       2.884608        78.4942 
 498   0.0000       2.895687        78.7956 
 499   0.0000       2.903408        79.0058 
 500   0.0000       2.911930        79.2376 
 501   0.0000       2.916363        79.3583 
 502   0.0000       2.922851        79.5348 
 503   0.0000       2.933246        79.8177 
 504   0.0000       2.938422        79.9585 
 505   0.0000       2.951054        80.3023 
 506   0.0000       2.973374        80.9096 
 507   0.0000       2.987031        81.2812 
 508   0.0000       2.999311        81.6154 
 509   0.0000       3.014018        82.0156 
 510   0.0000       3.024729        82.3071 
 511   0.0000       3.033873        82.5559 
 512   0.0000       3.043780        82.8255 
 513   0.0000       3.067363        83.4672 
 514   0.0000       3.071507        83.5800 
 515   0.0000       3.081865        83.8618 
 516   0.0000       3.093577        84.1805 
 517   0.0000       3.096393        84.2571 
 518   0.0000       3.100582        84.3711 
 519   0.0000       3.117109        84.8209 
 520   0.0000       3.127671        85.1083 
 521   0.0000       3.135500        85.3213 
 522   0.0000       3.137697        85.3811 
 523   0.0000       3.148855        85.6847 
 524   0.0000       3.149902        85.7132 
 525   0.0000       3.159860        85.9842 
 526   0.0000       3.162164        86.0468 
 527   0.0000       3.162991        86.0694 
 528   0.0000       3.165460        86.1365 
 529   0.0000       3.170959        86.2862 
 530   0.0000       3.178562        86.4931 
 531   0.0000       3.190224        86.8104 
 532   0.0000       3.199059        87.0508 
 533   0.0000       3.211065        87.3775 
 534   0.0000       3.219722        87.6131 
 535   0.0000       3.234083        88.0039 
 536   0.0000       3.237283        88.0909 
 537   0.0000       3.251754        88.4847 
 538   0.0000       3.259741        88.7021 
 539   0.0000       3.272718        89.0552 
 540   0.0000       3.278201        89.2044 
 541   0.0000       3.291064        89.5544 
 542   0.0000       3.297382        89.7263 
 543   0.0000       3.307949        90.0139 
 544   0.0000       3.332469        90.6811 
 545   0.0000       3.341907        90.9379 
 546   0.0000       3.345031        91.0229 
 547   0.0000       3.355825        91.3166 
 548   0.0000       3.359263        91.4102 
 549   0.0000       3.373409        91.7951 
 550   0.0000       3.377717        91.9124 
 551   0.0000       3.382449        92.0411 
 552   0.0000       3.390344        92.2559 
 553   0.0000       3.394037        92.3564 
 554   0.0000       3.397412        92.4483 
 555   0.0000       3.404521        92.6417 
 556   0.0000       3.411622        92.8350 
 557   0.0000       3.420873        93.0867 
 558   0.0000       3.430737        93.3551 
 559   0.0000       3.451836        93.9292 
 560   0.0000       3.459870        94.1478 
 561   0.0000       3.462823        94.2282 
 562   0.0000       3.474262        94.5395 
 563   0.0000       3.484884        94.8285 
 564   0.0000       3.492859        95.0455 
 565   0.0000       3.497424        95.1697 
 566   0.0000       3.509111        95.4878 
 567   0.0000       3.522542        95.8532 
 568   0.0000       3.536956        96.2455 
 569   0.0000       3.537473        96.2595 
 570   0.0000       3.537757        96.2673 
 571   0.0000       3.546525        96.5058 
 572   0.0000       3.560854        96.8958 
 573   0.0000       3.574789        97.2750 
 574   0.0000       3.580375        97.4270 
 575   0.0000       3.583378        97.5087 
 576   0.0000       3.592991        97.7703 
 577   0.0000       3.599992        97.9608 
 578   0.0000       3.607726        98.1712 
 579   0.0000       3.613382        98.3251 
 580   0.0000       3.630932        98.8027 
 581   0.0000       3.634030        98.8870 
 582   0.0000       3.637239        98.9743 
 583   0.0000       3.640604        99.0659 
 584   0.0000       3.650279        99.3291 
 585   0.0000       3.656206        99.4904 
 586   0.0000       3.663378        99.6856 
 587   0.0000       3.671202        99.8985 
 588   0.0000       3.676601       100.0454 
 589   0.0000       3.696704       100.5924 
 590   0.0000       3.698299       100.6358 
 591   0.0000       3.700507       100.6959 
 592   0.0000       3.705177       100.8230 
 593   0.0000       3.712049       101.0100 
 594   0.0000       3.721587       101.2695 
 595   0.0000       3.727718       101.4364 
 596   0.0000       3.742453       101.8373 
 597   0.0000       3.747198       101.9665 
 598   0.0000       3.753949       102.1502 
 599   0.0000       3.758932       102.2857 
 600   0.0000       3.774239       102.7023 
 601   0.0000       3.778538       102.8192 
 602   0.0000       3.788320       103.0854 
 603   0.0000       3.806934       103.5919 
 604   0.0000       3.823761       104.0498 
 605   0.0000       3.833681       104.3198 
 606   0.0000       3.847664       104.7003 
 607   0.0000       3.859069       105.0106 
 608   0.0000       3.877965       105.5248 
 609   0.0000       3.884378       105.6993 
 610   0.0000       3.897281       106.0504 
 611   0.0000       3.904192       106.2385 
 612   0.0000       3.923911       106.7750 
 613   0.0000       3.930879       106.9647 
 614   0.0000       3.939462       107.1982 
 615   0.0000       3.942162       107.2717 
 616   0.0000       3.947029       107.4041 
 617   0.0000       3.965813       107.9153 
 618   0.0000       3.971419       108.0678 
 619   0.0000       3.973584       108.1267 
 620   0.0000       3.994414       108.6935 
 621   0.0000       4.001837       108.8955 
 622   0.0000       4.007986       109.0628 
 623   0.0000       4.018821       109.3577 
 624   0.0000       4.025186       109.5309 
 625   0.0000       4.028136       109.6112 
 626   0.0000       4.039102       109.9096 
 627   0.0000       4.045359       110.0798 
 628   0.0000       4.053732       110.3077 
 629   0.0000       4.075108       110.8893 
 630   0.0000       4.078186       110.9731 
 631   0.0000       4.082456       111.0893 
 632   0.0000       4.086565       111.2011 
 633   0.0000       4.092245       111.3557 
 634   0.0000       4.099101       111.5422 
 635   0.0000       4.109227       111.8177 
 636   0.0000       4.115859       111.9982 
 637   0.0000       4.134228       112.4981 
 638   0.0000       4.136423       112.5578 
 639   0.0000       4.153103       113.0117 
 640   0.0000       4.162944       113.2795 
 641   0.0000       4.165653       113.3532 
 642   0.0000       4.167475       113.4028 
 643   0.0000       4.170381       113.4818 
 644   0.0000       4.175310       113.6160 
 645   0.0000       4.178474       113.7021 
 646   0.0000       4.181958       113.7969 
 647   0.0000       4.189322       113.9973 
 648   0.0000       4.195949       114.1776 
 649   0.0000       4.197824       114.2286 
 650   0.0000       4.206639       114.4685 
 651   0.0000       4.210257       114.5669 
 652   0.0000       4.216892       114.7475 
 653   0.0000       4.227462       115.0351 
 654   0.0000       4.234826       115.2355 
 655   0.0000       4.241089       115.4059 
 656   0.0000       4.250761       115.6691 
 657   0.0000       4.259750       115.9137 
 658   0.0000       4.268474       116.1511 
 659   0.0000       4.271653       116.2376 
 660   0.0000       4.280708       116.4840 
 661   0.0000       4.285414       116.6120 
 662   0.0000       4.299226       116.9879 
 663   0.0000       4.314120       117.3932 
 664   0.0000       4.320277       117.5607 
 665   0.0000       4.330773       117.8463 
 666   0.0000       4.339475       118.0831 
 667   0.0000       4.350711       118.3889 
 668   0.0000       4.353697       118.4701 
 669   0.0000       4.361618       118.6857 
 670   0.0000       4.374840       119.0454 
 671   0.0000       4.388693       119.4224 
 672   0.0000       4.410791       120.0237 
 673   0.0000       4.418075       120.2219 
 674   0.0000       4.429650       120.5369 
 675   0.0000       4.462294       121.4252 
 676   0.0000       4.469336       121.6168 
 677   0.0000       4.488703       122.1438 
 678   0.0000       4.500086       122.4536 
 679   0.0000       4.512190       122.7829 
 680   0.0000       4.527326       123.1948 
 681   0.0000       4.536776       123.4520 
 682   0.0000       4.542779       123.6153 
 683   0.0000       4.580968       124.6545 
 684   0.0000       4.586413       124.8026 
 685   0.0000       4.613063       125.5278 
 686   0.0000       4.630726       126.0085 
 687   0.0000       4.650946       126.5587 
 688   0.0000       4.678333       127.3039 
 689   0.0000       4.718381       128.3937 
 690   0.0000       4.737300       128.9085 
 691   0.0000       4.751974       129.3078 
 692   0.0000       4.767561       129.7319 
 693   0.0000       4.769786       129.7925 
 694   0.0000       4.774974       129.9337 
 695   0.0000       4.793300       130.4323 
 696   0.0000       4.795532       130.4930 
 697   0.0000       4.835541       131.5818 
 698   0.0000       4.843537       131.7993 
 699   0.0000       4.849790       131.9695 
 700   0.0000       4.860423       132.2588 
 701   0.0000       4.874739       132.6484 
 702   0.0000       4.883799       132.8949 
 703   0.0000       4.896887       133.2511 
 704   0.0000       4.906015       133.4994 
 705   0.0000       4.907170       133.5309 
 706   0.0000       4.930470       134.1649 
 707   0.0000       4.935732       134.3081 
 708   0.0000       4.954414       134.8165 
 709   0.0000       5.012813       136.4056 
 710   0.0000       5.034335       136.9912 
 711   0.0000       5.070255       137.9687 
 712   0.0000       5.106236       138.9478 
 713   0.0000       5.137192       139.7901 
 714   0.0000       5.144935       140.0008 
 715   0.0000       5.151873       140.1896 
 716   0.0000       5.176119       140.8494 
 717   0.0000       5.193138       141.3125 
 718   0.0000       5.206868       141.6861 
 719   0.0000       5.216678       141.9530 
 720   0.0000       5.229030       142.2891 
 721   0.0000       5.257743       143.0705 
 722   0.0000       5.270086       143.4063 
 723   0.0000       5.286431       143.8511 
 724   0.0000       5.293654       144.0476 
 725   0.0000       5.304546       144.3440 
 726   0.0000       5.318862       144.7336 
 727   0.0000       5.322831       144.8416 
 728   0.0000       5.329846       145.0325 
 729   0.0000       5.353033       145.6634 
 730   0.0000       5.362388       145.9180 
 731   0.0000       5.391598       146.7128 
 732   0.0000       5.395965       146.8317 
 733   0.0000       5.412169       147.2726 
 734   0.0000       5.415359       147.3594 
 735   0.0000       5.434132       147.8702 
 736   0.0000       5.447888       148.2446 
 737   0.0000       5.458323       148.5285 
 738   0.0000       5.460002       148.5742 
 739   0.0000       5.486832       149.3043 
 740   0.0000       5.496475       149.5667 
 741   0.0000       5.522808       150.2833 
 742   0.0000       5.529033       150.4526 
 743   0.0000       5.537726       150.6892 
 744   0.0000       5.556219       151.1924 
 745   0.0000       5.574290       151.6841 
 746   0.0000       5.592831       152.1887 
 747   0.0000       5.629686       153.1915 
 748   0.0000       5.647092       153.6652 
 749   0.0000       5.654036       153.8541 
 750   0.0000       5.689518       154.8197 
 751   0.0000       5.708016       155.3230 
 752   0.0000       5.724044       155.7592 
 753   0.0000       5.742988       156.2747 
 754   0.0000       5.750517       156.4795 
 755   0.0000       5.764705       156.8656 
 756   0.0000       5.769542       156.9972 
 757   0.0000       5.789911       157.5515 
 758   0.0000       5.800753       157.8465 
 759   0.0000       5.804922       157.9600 
 760   0.0000       5.813146       158.1838 
 761   0.0000       5.891674       160.3206 
 762   0.0000       5.901491       160.5877 
 763   0.0000       5.955987       162.0706 
 764   0.0000       5.971276       162.4867 
 765   0.0000       5.988023       162.9424 
 766   0.0000       6.081885       165.4965 
 767   0.0000       6.101502       166.0303 
 768   0.0000       6.174261       168.0102 
 769   0.0000       6.266362       170.5164 
 770   0.0000       6.372443       173.4030 
 771   0.0000       6.389815       173.8757 
 772   0.0000       6.489335       176.5838 
 773   0.0000       6.588530       179.2830 
 774   0.0000       6.612269       179.9290 
 775   0.0000       6.626744       180.3229 
 776   0.0000       6.649031       180.9293 
 777   0.0000       6.698786       182.2832 
 778   0.0000       6.709508       182.5750 
 779   0.0000       6.750403       183.6878 
 780   0.0000       6.821097       185.6115 
 781   0.0000       6.893571       187.5836 
 782   0.0000       6.941137       188.8780 
 783   0.0000       6.983587       190.0331 
 784   0.0000       7.001527       190.5212 
 785   0.0000       7.029126       191.2722 
 786   0.0000       7.144605       194.4146 
 787   0.0000       7.151961       194.6147 
 788   0.0000       7.276930       198.0153 
 789   0.0000       7.353594       200.1015 
 790   0.0000       7.377820       200.7607 
 791   0.0000       7.431164       202.2123 
 792   0.0000       7.622581       207.4210 
 793   0.0000       7.734001       210.4529 
 794   0.0000       8.038039       218.7262 
 795   0.0000       8.048774       219.0183 
 796   0.0000       8.057483       219.2553 
 797   0.0000      16.479397       448.4272 
 798   0.0000      23.358867       635.6271 
 799   0.0000      23.514594       639.8646 
 800   0.0000      23.778293       647.0402 
 801   0.0000      23.899462       650.3374 
 802   0.0000      23.941660       651.4857 
 803   0.0000      24.082010       655.3048 
 804   0.0000      24.137200       656.8066 
 805   0.0000      24.179747       657.9644 
 806   0.0000      24.271466       660.4602 
 807   0.0000      29.094138       791.6917 
 808   0.0000      31.570903       859.0879 
 809   0.0000      34.209933       930.8996 
 810   0.0000      44.781032      1218.5538 
 811   0.0000      44.878515      1221.2065 
 812   0.0000      44.976718      1223.8787 
 813   0.0000      45.240209      1231.0487 
 814   0.0000     202.882620      5520.7168 

                    ********************************
                    * MULLIKEN POPULATION ANALYSIS *
                    ********************************

-----------------------
MULLIKEN ATOMIC CHARGES
-----------------------
   0 C :    0.461652
   1 C :   -0.760841
   2 C :   -0.672887
   3 H :    0.084029
   4 H :    0.155758
   5 H :    0.157471
   6 C :    2.790828
   7 O :   -0.426055
   8 C :    0.712954
   9 O :   -0.565874
  10 C :    0.235412
  11 O :   -0.574133
  12 C :   -0.430877
  13 H :    0.099150
  14 H :    0.138819
  15 H :    0.108326
  16 C :   -0.620566
  17 H :    0.139084
  18 H :    0.133399
  19 H :    0.143802
  20 C :   -0.936321
  21 H :    0.123114
  22 H :    0.119206
  23 H :    0.163312
  24 Au:   -0.084843
  25 P :    0.067403
  26 H :    0.081761
  27 H :    0.074642
  28 H :    0.082272
Sum of atomic charges:    1.0000000

--------------------------------
MULLIKEN REDUCED ORBITAL CHARGES
--------------------------------
  0 C s       :     3.322822  s :     3.322822
      pz      :     0.894214  p :     2.282215
      px      :     0.868960
      py      :     0.519040
      dz2     :    -0.018068  d :    -0.076251
      dxz     :     0.007797
      dyz     :    -0.021386
      dx2y2   :     0.056313
      dxy     :    -0.100907
      f0      :     0.001432  f :     0.009562
      f+1     :     0.000709
      f-1     :     0.001246
      f+2     :     0.000836
      f-2     :     0.001209
      f+3     :     0.001846
      f-3     :     0.002284
  1 C s       :     4.024193  s :     4.024193
      pz      :     1.153640  p :     2.630880
      px      :     0.480164
      py      :     0.997077
      dz2     :     0.011336  d :     0.094869
      dxz     :    -0.005289
      dyz     :    -0.011531
      dx2y2   :     0.129548
      dxy     :    -0.029195
      f0      :     0.001356  f :     0.010899
      f+1     :     0.000960
      f-1     :     0.001307
      f+2     :     0.000581
      f-2     :     0.001766
      f+3     :     0.002360
      f-3     :     0.002569
  2 C s       :     3.346497  s :     3.346497
      pz      :     1.142291  p :     3.254590
      px      :     1.147697
      py      :     0.964603
      dz2     :     0.024787  d :     0.067828
      dxz     :     0.028215
      dyz     :    -0.000396
      dx2y2   :     0.004794
      dxy     :     0.010427
      f0      :     0.000292  f :     0.003971
      f+1     :     0.000684
      f-1     :     0.000516
      f+2     :     0.000385
      f-2     :     0.000258
      f+3     :     0.000813
      f-3     :     0.001023
  3 H s       :     0.878959  s :     0.878959
      pz      :     0.013111  p :     0.035119
      px      :     0.020358
      py      :     0.001649
      dz2     :     0.000105  d :     0.001893
      dxz     :     0.000630
      dyz     :     0.000100
      dx2y2   :     0.000588
      dxy     :     0.000470
  4 H s       :     0.811566  s :     0.811566
      pz      :     0.015503  p :     0.030776
      px      :     0.010228
      py      :     0.005044
      dz2     :     0.000634  d :     0.001900
      dxz     :     0.000311
      dyz     :     0.000314
      dx2y2   :     0.000397
      dxy     :     0.000244
  5 H s       :     0.813611  s :     0.813611
      pz      :     0.017053  p :     0.027021
      px      :     0.008956
      py      :     0.001012
      dz2     :     0.000605  d :     0.001898
      dxz     :     0.000433
      dyz     :     0.000524
      dx2y2   :     0.000198
      dxy     :     0.000138
  6 C s       :     1.948379  s :     1.948379
      pz      :     0.436785  p :     1.312399
      px      :     0.326262
      py      :     0.549351
      dz2     :     0.094614  d :    -0.066063
      dxz     :     0.008880
      dyz     :    -0.072239
      dx2y2   :    -0.066552
      dxy     :    -0.030767
      f0      :     0.002058  f :     0.014458
      f+1     :     0.002972
      f-1     :     0.001571
      f+2     :     0.001921
      f-2     :     0.001365
      f+3     :     0.002451
      f-3     :     0.002120
  7 O s       :     3.889749  s :     3.889749
      pz      :     1.731901  p :     4.509851
      px      :     1.303517
      py      :     1.474432
      dz2     :     0.002544  d :     0.024270
      dxz     :     0.005737
      dyz     :     0.009524
      dx2y2   :     0.009621
      dxy     :    -0.003155
      f0      :     0.000311  f :     0.002186
      f+1     :     0.000300
      f-1     :     0.000233
      f+2     :     0.000280
      f-2     :     0.000168
      f+3     :     0.000487
      f-3     :     0.000407
  8 C s       :     3.112967  s :     3.112967
      pz      :     0.616601  p :     1.902236
      px      :     0.698214
      py      :     0.587421
      dz2     :     0.002340  d :     0.244771
      dxz     :    -0.001297
      dyz     :     0.084862
      dx2y2   :     0.119522
      dxy     :     0.039344
      f0      :     0.002739  f :     0.027071
      f+1     :     0.001599
      f-1     :     0.001962
      f+2     :     0.002088
      f-2     :     0.004321
      f+3     :     0.004954
      f-3     :     0.009407
  9 O s       :     3.963865  s :     3.963865
      pz      :     1.497778  p :     4.564793
      px      :     1.585849
      py      :     1.481165
      dz2     :     0.003604  d :     0.035296
      dxz     :     0.006819
      dyz     :     0.011972
      dx2y2   :    -0.000584
      dxy     :     0.013485
      f0      :     0.000198  f :     0.001921
      f+1     :     0.000111
      f-1     :     0.000230
      f+2     :     0.000113
      f-2     :     0.000344
      f+3     :     0.000423
      f-3     :     0.000501
 10 C s       :     3.541792  s :     3.541792
      pz      :     0.613449  p :     2.073936
      px      :     0.725479
      py      :     0.735009
      dz2     :     0.037029  d :     0.129947
      dxz     :     0.074546
      dyz     :    -0.033986
      dx2y2   :     0.013264
      dxy     :     0.039095
      f0      :     0.001486  f :     0.018912
      f+1     :     0.004055
      f-1     :     0.001630
      f+2     :     0.003109
      f-2     :     0.002670
      f+3     :     0.002839
      f-3     :     0.003124
 11 O s       :     4.012984  s :     4.012984
      pz      :     1.595681  p :     4.519732
      px      :     1.320108
      py      :     1.603944
      dz2     :     0.005081  d :     0.039444
      dxz     :     0.008603
      dyz     :     0.005483
      dx2y2   :     0.010608
      dxy     :     0.009668
      f0      :     0.000151  f :     0.001974
      f+1     :     0.000435
      f-1     :     0.000082
      f+2     :     0.000283
      f-2     :     0.000276
      f+3     :     0.000425
      f-3     :     0.000322
 12 C s       :     3.109727  s :     3.109727
      pz      :     0.993461  p :     3.245391
      px      :     1.132879
      py      :     1.119051
      dz2     :     0.003303  d :     0.072030
      dxz     :     0.015494
      dyz     :     0.020655
      dx2y2   :     0.013046
      dxy     :     0.019533
      f0      :     0.000383  f :     0.003729
      f+1     :     0.000539
      f-1     :     0.000647
      f+2     :     0.000648
      f-2     :     0.000893
      f+3     :     0.000224
      f-3     :     0.000396
 13 H s       :     0.866704  s :     0.866704
      pz      :     0.014390  p :     0.032200
      px      :     0.012025
      py      :     0.005785
[...]
      dz2     :     0.071043  d :     0.430350
      dxz     :     0.091346
      dyz     :     0.123872
      dx2y2   :     0.050741
      dxy     :     0.093348
      f0      :     0.003907  f :     0.030920
      f+1     :     0.005327
      f-1     :     0.004829
      f+2     :     0.004960
      f-2     :     0.004887
      f+3     :     0.002617
      f-3     :     0.004392
 13 H s       :     0.681252  s :     0.681252
      pz      :     0.094923  p :     0.275460
      px      :     0.077622
      py      :     0.102915
      dz2     :     0.007362  d :     0.029522
      dxz     :     0.005150
      dyz     :     0.007723
      dx2y2   :     0.004081
      dxy     :     0.005206
 14 H s       :     0.688367  s :     0.688367
      pz      :     0.075765  p :     0.270404
      px      :     0.095657
      py      :     0.098982
      dz2     :     0.003937  d :     0.029896
      dxz     :     0.004756
      dyz     :     0.005955
      dx2y2   :     0.008223
      dxy     :     0.007026
 15 H s       :     0.677650  s :     0.677650
      pz      :     0.074478  p :     0.276906
      px      :     0.117157
      py      :     0.085270
      dz2     :     0.003145  d :     0.029660
      dxz     :     0.007181
      dyz     :     0.002696
      dx2y2   :     0.008200
      dxy     :     0.008439
 16 C s       :     2.619537  s :     2.619537
      pz      :     0.914440  p :     2.678666
      px      :     0.836811
      py      :     0.927415
      dz2     :     0.059429  d :     0.398055
      dxz     :     0.080958
      dyz     :     0.067929
      dx2y2   :     0.102663
      dxy     :     0.087078
      f0      :     0.002498  f :     0.030799
      f+1     :     0.004786
      f-1     :     0.004345
      f+2     :     0.003764
      f-2     :     0.003519
      f+3     :     0.007047
      f-3     :     0.004840
 17 H s       :     0.687880  s :     0.687880
      pz      :     0.075342  p :     0.268052
      px      :     0.068557
      py      :     0.124153
      dz2     :     0.003137  d :     0.029769
      dxz     :     0.001202
      dyz     :     0.008847
      dx2y2   :     0.008139
      dxy     :     0.008443
 18 H s       :     0.685170  s :     0.685170
      pz      :     0.107707  p :     0.269608
      px      :     0.065421
      py      :     0.096481
      dz2     :     0.008921  d :     0.029558
      dxz     :     0.005599
      dyz     :     0.007695
      dx2y2   :     0.003879
      dxy     :     0.003464
 19 H s       :     0.681523  s :     0.681523
      pz      :     0.107994  p :     0.267409
      px      :     0.077855
      py      :     0.081560
      dz2     :     0.008423  d :     0.029430
      dxz     :     0.006940
      dyz     :     0.006556
      dx2y2   :     0.004137
      dxy     :     0.003374
 20 C s       :     2.611199  s :     2.611199
      pz      :     0.815000  p :     2.636793
      px      :     0.912421
      py      :     0.909372
      dz2     :     0.122626  d :     0.478529
      dxz     :     0.100916
      dyz     :     0.112772
      dx2y2   :     0.063705
      dxy     :     0.078510
      f0      :     0.008759  f :     0.031120
      f+1     :     0.004147
      f-1     :     0.005617
      f+2     :     0.003575
      f-2     :     0.003481
      f+3     :     0.005307
      f-3     :     0.000233
 21 H s       :     0.684996  s :     0.684996
      pz      :     0.064104  p :     0.263445
      px      :     0.088091
      py      :     0.111249
      dz2     :     0.003340  d :     0.029456
      dxz     :     0.002620
      dyz     :     0.006432
      dx2y2   :     0.009171
      dxy     :     0.007893
 22 H s       :     0.676335  s :     0.676335
      pz      :     0.076566  p :     0.285085
      px      :     0.130333
      py      :     0.078187
      dz2     :     0.004280  d :     0.029983
      dxz     :     0.008748
      dyz     :     0.001082
      dx2y2   :     0.006945
      dxy     :     0.008928
 23 H s       :     0.681064  s :     0.681064
      pz      :     0.075350  p :     0.272097
      px      :     0.085706
      py      :     0.111041
      dz2     :     0.005118  d :     0.029633
      dxz     :     0.003265
      dyz     :     0.006842
      dx2y2   :     0.007500
      dxy     :     0.006908
 24 Aus       :     2.370577  s :     2.370577
      pz      :     2.027035  p :     6.402509
      px      :     2.277987
      py      :     2.097487
      dz2     :     1.948183  d :     9.592545
      dxz     :     1.922158
      dyz     :     1.961651
      dx2y2   :     1.894919
      dxy     :     1.865633
      f0      :     0.002001  f :     0.038081
      f+1     :     0.008572
      f-1     :     0.002794
      f+2     :     0.001110
      f-2     :     0.002144
      f+3     :     0.004658
      f-3     :     0.016803
      g0      :     0.000053  g :     0.000576
      g+1     :     0.000045
      g-1     :     0.000014
      g+2     :     0.000044
      g-2     :     0.000085
      g+3     :     0.000009
      g-3     :     0.000039
      g+4     :     0.000114
      g-4     :     0.000172
 25 P s       :     4.796307  s :     4.796307
      pz      :     2.842732  p :     8.752826
      px      :     3.023426
      py      :     2.886667
      dz2     :     0.086528  d :     0.524673
      dxz     :     0.058327
      dyz     :     0.146744
      dx2y2   :     0.076990
      dxy     :     0.156083
      f0      :     0.003785  f :     0.059501
      f+1     :     0.008521
      f-1     :     0.009567
      f+2     :     0.009213
      f-2     :     0.007045
      f+3     :     0.009457
      f-3     :     0.011912
 26 H s       :     0.854497  s :     0.854497
      pz      :     0.106437  p :     0.293208
      px      :     0.082278
      py      :     0.104492
      dz2     :     0.002599  d :     0.012153
      dxz     :     0.001865
      dyz     :     0.004373
      dx2y2   :     0.001436
      dxy     :     0.001879
 27 H s       :     0.855678  s :     0.855678
      pz      :     0.057880  p :     0.296668
      px      :     0.140528
      py      :     0.098260
      dz2     :     0.001586  d :     0.012141
      dxz     :     0.001429
      dyz     :     0.001210
      dx2y2   :     0.003488
      dxy     :     0.004428
 28 H s       :     0.853502  s :     0.853502
      pz      :     0.120204  p :     0.292688
      px      :     0.082441
      py      :     0.090044
      dz2     :     0.003296  d :     0.012157
      dxz     :     0.002481
      dyz     :     0.004187
      dx2y2   :     0.000851
      dxy     :     0.001342


                      *****************************
                      * MAYER POPULATION ANALYSIS *
                      *****************************

  NA   - Mulliken gross atomic population
  ZA   - Total nuclear charge
  QA   - Mulliken gross atomic charge
  VA   - Mayer's total valence
  BVA  - Mayer's bonded valence
  FA   - Mayer's free valence

  ATOM       NA         ZA         QA         VA         BVA        FA
  0 C      5.5383     6.0000     0.4617     2.3275     2.3275    -0.0000
  1 C      6.7608     6.0000    -0.7608     1.9467     1.9467    -0.0000
  2 C      6.6729     6.0000    -0.6729     3.8006     3.8006    -0.0000
  3 H      0.9160     1.0000     0.0840     1.0609     1.0609    -0.0000
  4 H      0.8442     1.0000     0.1558     0.9915     0.9915    -0.0000
  5 H      0.8425     1.0000     0.1575     0.9953     0.9953    -0.0000
  6 C      3.2092     6.0000     2.7908     0.3806     0.3806     0.0000
  7 O      8.4261     8.0000    -0.4261     1.6441     1.6441    -0.0000
  8 C      5.2870     6.0000     0.7130     3.6842     3.6842    -0.0000
  9 O      8.5659     8.0000    -0.5659     1.7800     1.7800     0.0000
 10 C      5.7646     6.0000     0.2354     2.8660     2.8660     0.0000
 11 O      8.5741     8.0000    -0.5741     1.7200     1.7200    -0.0000
 12 C      6.4309     6.0000    -0.4309     4.0621     4.0621    -0.0000
 13 H      0.9008     1.0000     0.0992     1.0369     1.0369    -0.0000
 14 H      0.8612     1.0000     0.1388     1.0189     1.0189    -0.0000
 15 H      0.8917     1.0000     0.1083     1.0392     1.0392     0.0000
 16 C      6.6206     6.0000    -0.6206     3.7410     3.7410    -0.0000
 17 H      0.8609     1.0000     0.1391     1.0415     1.0415    -0.0000
 18 H      0.8666     1.0000     0.1334     1.0330     1.0330    -0.0000
 19 H      0.8562     1.0000     0.1438     1.0308     1.0308    -0.0000
 20 C      6.9363     6.0000    -0.9363     3.9806     3.9806    -0.0000
 21 H      0.8769     1.0000     0.1231     1.0357     1.0357     0.0000
 22 H      0.8808     1.0000     0.1192     1.0723     1.0723    -0.0000
 23 H      0.8367     1.0000     0.1633     1.0045     1.0045    -0.0000
 24 Au    19.0848    19.0000    -0.0848     1.9074     1.9074    -0.0000
 25 P     14.9326    15.0000     0.0674     3.7638     3.7638    -0.0000
 26 H      0.9182     1.0000     0.0818     0.9520     0.9520     0.0000
 27 H      0.9254     1.0000     0.0746     0.9430     0.9430     0.0000
 28 H      0.9177     1.0000     0.0823     0.9529     0.9529    -0.0000

  Mayer bond orders larger than 0.100000
B(  0-C ,  1-C ) :   1.1476 B(  0-C ,  2-C ) :   1.0397 B(  0-C ,  6-C ) :  -0.1689 
B(  0-C , 24-Au) :   0.5924 B(  1-C ,  2-C ) :  -0.3985 B(  1-C ,  6-C ) :   0.1067 
B(  1-C , 10-C ) :   0.5102 B(  1-C , 20-C ) :   0.3098 B(  1-C , 24-Au) :   0.2674 
B(  2-C ,  3-H ) :   1.0841 B(  2-C ,  4-H ) :   0.9864 B(  2-C ,  5-H ) :   0.9830 
B(  6-C ,  7-O ) :   0.4476 B(  6-C ,  8-C ) :  -0.1336 B(  6-C , 20-C ) :   0.4664 
B(  6-C , 21-H ) :  -0.1064 B(  7-O ,  8-C ) :   1.0986 B(  7-O , 20-C ) :   0.1512 
B(  8-C ,  9-O ) :   1.7318 B(  8-C , 16-C ) :   0.9798 B( 10-C , 11-O ) :   1.6067 
B( 10-C , 12-C ) :   0.9853 B( 12-C , 13-H ) :   0.9706 B( 12-C , 14-H ) :   1.0518 
B( 12-C , 15-H ) :   0.9641 B( 16-C , 17-H ) :   1.0223 B( 16-C , 18-H ) :   0.9892 
B( 16-C , 19-H ) :   0.9721 B( 20-C , 21-H ) :   1.0186 B( 20-C , 22-H ) :   1.0334 
B( 20-C , 23-H ) :   0.9910 B( 24-Au, 25-P ) :   0.9672 B( 25-P , 26-H ) :   0.9505 
B( 25-P , 27-H ) :   0.9540 B( 25-P , 28-H ) :   0.9514 

-------
TIMINGS
-------

Total SCF time: 0 days 0 hours 1 min 5 sec 

Total time                  ....      65.517 sec
Sum of individual times     ....      64.641 sec  ( 98.7%)

Fock matrix formation       ....      57.450 sec  ( 87.7%)
  XC integration            ....       5.537 sec  (  9.6% of F)
    Basis function eval.    ....       1.017 sec  ( 18.4% of XC)
    Density eval.           ....       1.821 sec  ( 32.9% of XC)
    XC-Functional eval.     ....       0.059 sec  (  1.1% of XC)
    XC-Potential eval.      ....       1.996 sec  ( 36.0% of XC)
Diagonalization             ....       2.740 sec  (  4.2%)
Density matrix formation    ....       0.083 sec  (  0.1%)
Population analysis         ....       0.144 sec  (  0.2%)
Initial guess               ....       1.728 sec  (  2.6%)
Orbital Transformation      ....       0.000 sec  (  0.0%)
Orbital Orthonormalization  ....       0.000 sec  (  0.0%)
DIIS solution               ....       1.469 sec  (  2.2%)
Grid generation             ....       1.028 sec  (  1.6%)


           ************************************************************
           *        Program running with 24 parallel MPI-processes    *
           *              working on a common directory               *
           ************************************************************

------------------------------------------------------------------------------
                                ORCA  MP2 
------------------------------------------------------------------------------

Freezing NCore=34 chemical core electrons

-------------
RI-MP2 ENERGY
-------------
Dimension of the basis                    ...  815
Memory devoted to MP2                     ... 5000 MB   
Data format for buffers                   ... DOUBLE
Compression type for matrix containers    ... UNCOMPRESSED
Overall scaling of the MP2 energy         ...   2.700e-01
Calculating two index integrals           ... done (    0.030 sec)
Cholesky decomposition of V**-1           ... done (    0.418 sec)

-----------------
RI-TRANSFORMATION (AUX index driven)
-----------------

Dimension of the orbital-basis         ... 815
Dimension of the aux-basis             ... 2021
Transformation of internal/external MOs...   17-  62 to   63- 814
Number Format for Storage              ... Double (8 Byte)
Integral mode                          ... Direct

First Phase: integral generation and transformation of MO indices
  Aux angular momentum 0               ... done (    0.160 sec)
  Aux angular momentum 1               ... done (    0.308 sec)
  Aux angular momentum 2               ... done (    0.454 sec)
  Aux angular momentum 3               ... done (    0.408 sec)
  Aux angular momentum 4               ... done (    0.115 sec)
  Aux angular momentum 5               ... done (    0.143 sec)
  Aux angular momentum 6               ... done (    0.191 sec)
Closing buffer VIA ( 0.52 GB; CompressionRatio= 1.00)
  Phase 1 completed in     1.892 sec
Second Phase: sorting and transformation of aux index

IA-Transformation
Memory available                       ... 4916 MB 
Max. # MO pairs treated in a batch     ... 2    
# of internal orbitals                 ... 46
# batches for internal orbitals        ... 1
Closing buffer IAV ( 0.02 GB; CompressionRatio= 1.00)
(ia|v) transformation done in     0.394 sec

  Phase 2 completed in     0.895 sec
RI-Integral transformation completed in     2.800 sec
Opening buffers                              ... done

Starting loop over batches of integrals:

Operator 0  - window                       ... ( 17- 62)x( 63-814)
Operator 0  - Memory available             ...  5000 MB
Operator 0  - Memory needed per MO         ...  11.6 MB
Operator 0  - Number of orbitals per batch ... 2
Operator 0  - Number of batches            ... 1

OPERATOR  0   PASS   0:  MOs    17 ...   18 +   19 ...   20 +   21 ...   22 +   23 ...   24
                            +   25 ...   26 +   27 ...   28 +   29 ...   30 +   31 ...   32
                            +   33 ...   34 +   35 ...   36 +   37 ...   38 +   39 ...   40
                            +   41 ...   42 +   43 ...   44 +   45 ...   46 +   47 ...   48
                            +   49 ...   50 +   51 ...   52 +   53 ...   54 +   55 ...   56
                            +   57 ...   58 +   59 ...   60 +   61 ...   62
  Reading integrals       ... ok
Time spent in pair loops =     0.191 sec
Deleting buffer (Ka|jb)[aa] ...done

-----------------------------------------------
 RI-MP2 CORRELATION ENERGY:     -0.976670223 Eh
-----------------------------------------------


-------
TIMINGS
-------

Total time                :    7.384 sec
Integral trafo            :    2.813 sec ( 38.1%)
I/O of integrals          :    0.024 sec (  0.3%)
K(i,j) Operators          :    0.120 sec (  1.6%)
T(i,j) pair energies      :    0.023 sec (  0.3%)
V-calculation             :    0.030 sec (  0.4%)
V**(-1/2)                 :    0.418 sec (  5.7%)
Gamma(ia|P)               :    0.000 sec (  0.0%)
Gamma-Trafo               :    0.000 sec (  0.0%)
D(virtual)                :    0.000 sec (  0.0%)
D(internal)               :    0.000 sec (  0.0%)
W(virtual)                :    0.000 sec (  0.0%)
W(internal)               :    0.000 sec (  0.0%)
L(virtual)                :    0.000 sec (  0.0%)
L(internal)               :    0.000 sec (  0.0%)
G(D)                      :    0.000 sec (  0.0%)
G(Z)                      :    0.000 sec (  0.0%)
Z-Vector Solution         :    0.000 sec (  0.0%)
Z-Vector Solution         :    0.000 sec (  0.0%)
3-Index Derivative 
+ Separable RIJ part      :    0.000 sec (  0.0%)
2-Index Derivative 
+ Separable RIJ part      :    0.000 sec (  0.0%)
Separable Gradient (X)    :    0.000 sec (  0.0%)


---------------------------------------
MP2 TOTAL ENERGY:    -1054.038601374 Eh
---------------------------------------


-------------------------------------------------------------------------------
                          DFT DISPERSION CORRECTION                            
                                                                               
                              DFTD3 V3.1  Rev 1                                
                          USING Becke-Johnson damping                          
-------------------------------------------------------------------------------
The B2PLYP functional is recognized
Active option DFTDOPT                   ...         4   

molecular C6(AA) [au] = 11646.249776 


            DFT-D V3
 parameters
 s6 scaling factor         :     0.6400 
 a1 scaling factor         :     0.3065 
 s8 scaling factor         :     0.9147 
 a2 scaling factor         :     5.0570 
 ad hoc parameters k1-k3   :    16.0000     1.3333    -4.0000 

 Edisp/kcal,au: -18.203477804106  -0.029009085304 
 E6   /kcal   :  -9.627335625 
 E8   /kcal   :  -8.576142180 
 % E8         :  47.112657657 

-------------------------   ----------------
Dispersion correction           -0.029009085
-------------------------   ----------------


-------------------------   --------------------
FINAL SINGLE POINT ENERGY     -1054.067610459228
-------------------------   --------------------


                            ***************************************
                            *     ORCA property calculations      *
                            ***************************************


  WARNING: The energy has been calculated at the MP2 level but the densities
           used in the property calculations are still SCF densities
           MP2 response densities have not been calculated 
           use %mp2 Density relaxed end
           or  %mp2 Density unrelaxed end

                                    ---------------------
                                    Active property flags
                                    ---------------------
   (+) Dipole Moment


------------------------------------------------------------------------------
                       ORCA ELECTRIC PROPERTIES CALCULATION
------------------------------------------------------------------------------

Dipole Moment Calculation                       ... on
Quadrupole Moment Calculation                   ... off
Polarizability Calculation                      ... off
GBWName                                         ... TMB29_T1.gbw
Electron density file                           ... TMB29_T1.scfp
The origin for moment calculation is the CENTER OF MASS  = (-0.362876, -0.065725 -0.005009)

-------------
DIPOLE MOMENT
-------------
                                X             Y             Z
Electronic contribution:   -212.10260     -43.03428      -5.73914
Nuclear contribution   :    212.91002      43.46471       5.39034
                        -----------------------------------------
Total Dipole Moment    :      0.80742       0.43043      -0.34880
                        -----------------------------------------
Magnitude (a.u.)       :      0.97921
Magnitude (Debye)      :      2.48896



--------------------
Rotational spectrum 
--------------------
 
Rotational constants in cm-1:     0.027720     0.008314     0.006995 
Rotational constants in MHz :   831.016337   249.254276   209.717578 

 Dipole components along the rotational axes: 
x,y,z [a.u.] :     0.810104    -0.420732    -0.354360 
x,y,z [Debye]:     2.059122    -1.069415    -0.900711 

 

Timings for individual modules:

Sum of individual times         ...       77.377 sec (=   1.290 min)
GTO integral calculation        ...        3.437 sec (=   0.057 min)   4.4 %
SCF iterations                  ...       65.884 sec (=   1.098 min)  85.1 %
MP2 module                      ...        8.057 sec (=   0.134 min)  10.4 %
                             ****ORCA TERMINATED NORMALLY****
TOTAL RUN TIME: 0 days 0 hours 1 minutes 17 seconds 961 msec
