
                                 *****************
                                 * O   R   C   A *
                                 *****************

           --- An Ab Initio, DFT and Semiempirical electronic structure package ---

                  #######################################################
                  #                        -***-                        #
                  #          Department of theory and spectroscopy      #
                  #               Directorship: Frank Neese             #
                  #        Max Planck Institute fuer Kohlenforschung    #
                  #                Kaiser Wilhelm Platz 1               #
                  #                 D-45470 Muelheim/Ruhr               #
                  #                      Germany                        #
                  #                                                     #
                  #                  All rights reserved                #
                  #                        -***-                        #
                  #######################################################


                         Program Version 4.2.0 -  RELEASE  -


 With contributions from (in alphabetic order):
   Daniel Aravena         : Magnetic Suceptibility
   Michael Atanasov       : Ab Initio Ligand Field Theory (pilot matlab implementation)
   Alexander A. Auer      : GIAO ZORA, VPT2
   Ute Becker             : Parallelization
   Giovanni Bistoni       : ED, misc. LED, open-shell LED, HFLED
   Martin Brehm           : Molecular dynamics
   Dmytro Bykov           : SCF Hessian
   Vijay G. Chilkuri      : MRCI spin determinant printing, contributions to CSF-ICE
   Dipayan Datta          : RHF DLPNO-CCSD density
   Achintya Kumar Dutta   : EOM-CC, STEOM-CC
   Dmitry Ganyushin       : Spin-Orbit,Spin-Spin,Magnetic field MRCI
   Miquel Garcia          : C-PCM Hessian, Gaussian charge scheme
   Yang Guo               : DLPNO-NEVPT2, CIM, IAO-localization
   Andreas Hansen         : Spin unrestricted coupled pair/coupled cluster methods
   Benjamin Helmich-Paris : CASSCF linear response (MC-RPA)
   Lee Huntington         : MR-EOM, pCC
   Robert Izsak           : Overlap fitted RIJCOSX, COSX-SCS-MP3, EOM
   Christian Kollmar      : KDIIS, OOCD, Brueckner-CCSD(T), CCSD density
   Simone Kossmann        : Meta GGA functionals, TD-DFT gradient, OOMP2, MP2 Hessian
   Martin Krupicka        : AUTO-CI
   Lucas Lang             : DCDCAS
   Dagmar Lenk            : GEPOL surface, SMD
   Dimitrios Liakos       : Extrapolation schemes; Compound Job, initial MDCI parallelization
   Dimitrios Manganas     : Further ROCIS development; embedding schemes
   Dimitrios Pantazis     : SARC Basis sets
   Taras Petrenko         : DFT Hessian,TD-DFT gradient, ASA, ECA, R-Raman, ABS, FL, XAS/XES, NRVS
   Peter Pinski           : DLPNO-MP2, DLPNO-MP2 Gradient
   Christoph Reimann      : Effective Core Potentials
   Marius Retegan         : Local ZFS, SOC
   Christoph Riplinger    : Optimizer, TS searches, QM/MM, DLPNO-CCSD(T), (RO)-DLPNO pert. Triples
   Tobias Risthaus        : Range-separated hybrids, TD-DFT gradient, RPA, STAB
   Michael Roemelt        : Original ROCIS implementation
   Masaaki Saitow         : Open-shell DLPNO-CCSD energy and density
   Barbara Sandhoefer     : DKH picture change effects
   Avijit Sen             : IP-ROCIS
   Kantharuban Sivalingam : CASSCF convergence, NEVPT2, FIC-MRCI
   Bernardo de Souza      : ESD, SOC TD-DFT
   Georgi Stoychev        : AutoAux, RI-MP2 NMR
   Willem Van den Heuvel  : Paramagnetic NMR
   Boris Wezisla          : Elementary symmetry handling
   Frank Wennmohs         : Technical directorship


 We gratefully acknowledge several colleagues who have allowed us to
 interface, adapt or use parts of their codes:
   Stefan Grimme, W. Hujo, H. Kruse,             : VdW corrections, initial TS optimization,
                  C. Bannwarth                     DFT functionals, gCP, sTDA/sTD-DF
   Ed Valeev, F. Pavosevic, A. Kumar             : LibInt (2-el integral package), F12 methods
   Garnet Chan, S. Sharma, J. Yang, R. Olivares  : DMRG
   Ulf Ekstrom                                   : XCFun DFT Library
   Mihaly Kallay                                 : mrcc  (arbitrary order and MRCC methods)
   Andreas Klamt, Michael Diedenhofen            : otool_cosmo (COSMO solvation model)
   Jiri Pittner, Ondrej Demel                    : Mk-CCSD
   Frank Weinhold                                : gennbo (NPA and NBO analysis)
   Christopher J. Cramer and Donald G. Truhlar   : smd solvation model
   Lars Goerigk                                  : TD-DFT with DH, B97 family of functionals
   V. Asgeirsson, H. Jonsson                     : NEB implementation
   FAccTs GmbH                                   : IRC, NEB, NEB-TS, Multilevel, MM, QM/MM, CI optimization
   S Lehtola, MJT Oliveira, MAL Marques          : LibXC Library


 Your calculation uses the libint2 library for the computation of 2-el integrals
 For citations please refer to: http://libint.valeyev.net

 Your ORCA version has been built with support for libXC version: 4.2.3
 For citations please refer to: https://tddft.org/programs/libxc/

 This ORCA versions uses:
   CBLAS   interface :  Fast vector & matrix operations
   LAPACKE interface :  Fast linear algebra routines
   SCALAPACK package :  Parallel linear algebra routines


Your calculation utilizes the atom-pairwise dispersion correction
with the Becke-Johnson damping scheme (D3BJ)
Cite in your paper:
S.Grimme, S.Ehrlich, L.Goerigk, J Comput Chem, (2011), 32, 1456–1465 
S.Grimme, J.Antony, S.Ehrlich and H.Krieg, J.Chem.Phys., 132, (2010), 154104 
   

----- Orbital basis set information -----
Your calculation utilizes the basis: def2-TZVPPD
   F. Weigend and R. Ahlrichs, Phys. Chem. Chem. Phys. 7, 3297 (2005).
   D. Rappoport and F. Furche, J. Chem. Phys. 133 134105 (2010).

----- AuxC basis set information -----
Your calculation utilizes the auxiliary basis: def2-TZVPPD/C
   A. Hellweg, C. Hattig, S. Hofener and W. Klopper, Theor. Chem. Acc. 117, 587 (2007).

----- AuxJK basis set information -----
Your calculation utilizes the auxiliary basis: def2/JK
   H-Ba, Hf-Rn: F. Weigend, J. Comput. Chem. 29, 167 (2008).

cite the ECPs for Ir [Def2-ECP] as follows:
Ce-Yb(ecp-28): M. Dolg, H. Stoll, H.Preuss, J. Chem. Phys., 1989, 90, 1730-1734.
Y-Cd(ecp-28), Hf-Hg(ecp-46): D. Andrae,U. Haeussermann, M. Dolg, H. Stoll, H. Preuss, Theor. Chim. Acta, 1990, 77, 123-141.
In-Sb(ecp-28), Tl-Bi(ecp-46): B. Metz, H. Stoll, M. Dolg, J. Chem. Phys., 2000, 113, 2563-2569.
Te-Xe(ecp-28), Po-Rn(ecp-46): K. A. Peterson, D. Figgen, E. Goll, H. Stoll, M. Dolg, J. Chem. Phys., 2003, 119, 11113-11123.
Rb(ecp-28), Cs(ecp-46): T. Leininger, A. Nicklass, W. Kuechle, H. Stoll, M. Dolg, A. Bergner, Chem. Phys. Lett., 1996, 255, 274-280.
Sr(ecp-28), Ba(ecp-46): M. Kaupp, P. V. Schleyer, H. Stoll and H. Preuss, J. Chem. Phys., 1991, 94, 1360-1366.
La(ecp-46): M. Dolg, H. Stoll, A. Savin, H. Preuss, Theor. Chim. Acta, 1989, 75, 173-194.
Lu(ecp-28): X. Cao, M. Dolg, J. Chem. Phys., 2001, 115, 7348-7355.

ECP parameters for Ir [Def2-ECP] have been obtained from:
TURBOMOLE (7.0.2)

================================================================================
                                        WARNINGS
                       Please study these warnings very carefully!
================================================================================


WARNING: No MP2 level density has been requested!
         To caclulate MP2 level properties use
         %mp2 Density relaxed end
         or
         %mp2 Density unrelaxed end
         Otherwise for double-hybrid DFT only the energy is correct!

WARNING: The frozen-core approximation is turned on by default for 
         the MP2 part of double-hybrid DFT.

INFO   : the flag for use of LIBINT has been found!

================================================================================
                                       INPUT FILE
================================================================================
NAME = TMB31_C1.in
|  1> #
|  2> # TMB31_C1 ri-B2PLYP-D3BJ/Def2-TZVPPD
|  3> #
|  4> ! rijk ri-b2plyp d3bj def2-tzvppd def2/jk def2-tzvppd/c grid4 nofinalgrid
|  5> 
|  6> *xyz 1 1
|  7> Ir      -0.040708    0.096324    0.064455 
|  8> C       -0.971708    0.418734    1.931461 
|  9> C        1.819460    0.364204   -1.190947 
| 10> C        1.490903   -0.994938   -1.162590 
| 11> C        1.450197   -1.406167    0.225985 
| 12> C        1.875844   -0.290195    1.023097 
| 13> C        2.052625    0.814608    0.164170 
| 14> H       -0.394638    1.150210    2.498372 
| 15> H       -1.993156    0.794195    1.837094 
| 16> H       -1.008781   -0.505981    2.508304 
| 17> H        1.977900   -0.288415    2.097324 
| 18> H        2.352296    1.808383    0.458691 
| 19> H        1.885000    0.981073   -2.074563 
| 20> H        1.275763   -1.618283   -2.016436 
| 21> H        1.275639   -2.406893    0.589421 
| 22> C       -1.335861    2.101294   -0.927849 
| 23> H       -0.822201    1.778454    0.045587 
| 24> H       -0.969200    3.125001   -0.997930 
| 25> H       -1.110952    1.579089   -1.850904 
| 26> H       -2.401764    2.084149   -0.716661 
| 27> P       -1.870306   -1.156932   -0.405763 
| 28> H       -1.625569   -2.441008   -0.924735 
| 29> H       -2.747711   -1.466666    0.650785 
| 30> H       -2.792266   -0.681495   -1.360892 
| 31> *
| 32> 
| 33> %maxcore 5000
| 34> 
| 35> %pal
| 36> nprocs = 24
| 37> end
| 38> 
| 39> 
| 40>                          ****END OF INPUT****
================================================================================

                       ****************************
                       * Single Point Calculation *
                       ****************************

---------------------------------
CARTESIAN COORDINATES (ANGSTROEM)
---------------------------------
  Ir    -0.040708    0.096324    0.064455
  C     -0.971708    0.418734    1.931461
  C      1.819460    0.364204   -1.190947
  C      1.490903   -0.994938   -1.162590
  C      1.450197   -1.406167    0.225985
  C      1.875844   -0.290195    1.023097
  C      2.052625    0.814608    0.164170
  H     -0.394638    1.150210    2.498372
  H     -1.993156    0.794195    1.837094
  H     -1.008781   -0.505981    2.508304
  H      1.977900   -0.288415    2.097324
  H      2.352296    1.808383    0.458691
  H      1.885000    0.981073   -2.074563
  H      1.275763   -1.618283   -2.016436
  H      1.275639   -2.406893    0.589421
  C     -1.335861    2.101294   -0.927849
  H     -0.822201    1.778454    0.045587
  H     -0.969200    3.125001   -0.997930
  H     -1.110952    1.579089   -1.850904
  H     -2.401764    2.084149   -0.716661
  P     -1.870306   -1.156932   -0.405763
  H     -1.625569   -2.441008   -0.924735
  H     -2.747711   -1.466666    0.650785
  H     -2.792266   -0.681495   -1.360892

----------------------------
CARTESIAN COORDINATES (A.U.)
----------------------------
  NO LB      ZA    FRAG     MASS         X           Y           Z
   0 Ir   17.0000*   0   192.220   -0.076927    0.182026    0.121802
   1 C     6.0000    0    12.011   -1.836262    0.791293    3.649932
   2 C     6.0000    0    12.011    3.438281    0.688246   -2.250564
   3 C     6.0000    0    12.011    2.817398   -1.880160   -2.196977
   4 C     6.0000    0    12.011    2.740475   -2.657271    0.427050
   5 C     6.0000    0    12.011    3.544831   -0.548389    1.933373
   6 C     6.0000    0    12.011    3.878899    1.539386    0.310236
   7 H     1.0000    0     1.008   -0.745758    2.173582    4.721239
   8 H     1.0000    0     1.008   -3.766519    1.500811    3.471605
   9 H     1.0000    0     1.008   -1.906320   -0.956166    4.740008
  10 H     1.0000    0     1.008    3.737689   -0.545025    3.963368
  11 H     1.0000    0     1.008    4.445195    3.417349    0.866800
  12 H     1.0000    0     1.008    3.562134    1.853959   -3.920356
  13 H     1.0000    0     1.008    2.410843   -3.058112   -3.810512
  14 H     1.0000    0     1.008    2.410608   -4.548369    1.113844
  15 C     6.0000    0    12.011   -2.524411    3.970870   -1.753381
  16 H     1.0000    0     1.008   -1.553735    3.360791    0.086147
  17 H     1.0000    0     1.008   -1.831523    5.905396   -1.885814
  18 H     1.0000    0     1.008   -2.099395    2.984046   -3.497702
  19 H     1.0000    0     1.008   -4.538676    3.938471   -1.354293
  20 P    15.0000    0    30.974   -3.534366   -2.186285   -0.766781
  21 H     1.0000    0     1.008   -3.071880   -4.612837   -1.747496
  22 H     1.0000    0     1.008   -5.192421   -2.771597    1.229805
  23 H     1.0000    0     1.008   -5.276618   -1.287839   -2.571713
* core charge reduced due to ECP

--------------------------------
INTERNAL COORDINATES (ANGSTROEM)
--------------------------------
 Ir     0   0   0     0.000000000000     0.00000000     0.00000000
 C      1   0   0     2.111023593458     0.00000000     0.00000000
 C      1   2   0     2.260092667177   146.73423200     0.00000000
 C      3   1   2     1.398578134343    71.34923459   124.48758774
 C      4   3   1     1.448760435511   107.57049610   303.04956045
 C      5   4   3     1.435951396788   107.64531964   355.07564215
 C      6   5   4     1.410530673931   107.92907410     5.29699572
 H      2   1   3     1.090621384990   109.19606122    14.65305585
 H      2   1   3     1.092351642061   112.86021160   134.78801588
 H      2   1   3     1.090513679512   110.68968961   255.68292322
 H      6   5   4     1.079065448926   125.58701144   181.68842364
 H      7   6   5     1.078950452202   126.15761453   178.88712284
 H      3   1   2     1.079629607883   124.91098388   245.73915043
 H      4   3   1     1.078840674215   126.32038968   121.28422411
 H      5   4   3     1.078892371155   126.20641329   183.37512096
 C      1   2   3     2.584955168417    90.00449073   258.72145129
 H     16   1   2     1.147017832161    39.78355857    37.15076720
 H     16   1   2     1.089645656776   125.78795687    94.36583538
 H     16   1   2     1.084118376069    81.33199921   201.76799442
 H     16   1   2     1.086758265567   113.86513983   311.17262068
 P      1   2   3     2.266976932098    84.94835014   171.89847696
 H     21   1   2     1.406442074786   116.15696426   229.44369795
 H     21   1   2     1.407859496216   117.96560652   349.01392592
 H     21   1   2     1.410078717381   118.80223524   110.21613585

---------------------------
INTERNAL COORDINATES (A.U.)
---------------------------
 Ir     0   0   0     0.000000000000     0.00000000     0.00000000
 C      1   0   0     3.989256453882     0.00000000     0.00000000
 C      1   2   0     4.270956178248   146.73423200     0.00000000
 C      3   1   2     2.642929650799    71.34923459   124.48758774
 C      4   3   1     2.737760456776   107.57049610   303.04956045
 C      5   4   3     2.713554881551   107.64531964   355.07564215
 C      6   5   4     2.665516677224   107.92907410     5.29699572
 H      2   1   3     2.060975733429   109.19606122    14.65305585
 H      2   1   3     2.064245445435   112.86021160   134.78801588
 H      2   1   3     2.060772199573   110.68968961   255.68292322
 H      6   5   4     2.039138179046   125.58701144   181.68842364
 H      7   6   5     2.038920866732   126.15761453   178.88712284
 H      3   1   2     2.040204284971   124.91098388   245.73915043
 H      4   3   1     2.038713416402   126.32038968   121.28422411
 H      5   4   3     2.038811109459   126.20641329   183.37512096
 C      1   2   3     4.884857336772    90.00449073   258.72145129
 H     16   1   2     2.167549573509    39.78355857    37.15076720
 H     16   1   2     2.059131874324   125.78795687    94.36583538
 H     16   1   2     2.048686827522    81.33199921   201.76799442
 H     16   1   2     2.053675495697   113.86513983   311.17262068
 P      1   2   3     4.283965553582    84.94835014   171.89847696
 H     21   1   2     2.657790344570   116.15696426   229.44369795
 H     21   1   2     2.660468882888   117.96560652   349.01392592
 H     21   1   2     2.664662603120   118.80223524   110.21613585

---------------------
BASIS SET INFORMATION
---------------------
There are 4 groups of distinct atoms

 Group   1 Type Ir  : 8s8p6d2f1g contracted to 6s5p3d2f1g pattern {311111/41111/411/11/1}
 Group   2 Type C   : 12s6p3d1f contracted to 6s3p3d1f pattern {621111/411/111/1}
 Group   3 Type H   : 5s3p1d contracted to 3s3p1d pattern {311/111/1}
 Group   4 Type P   : 15s9p4d1f contracted to 6s5p4d1f pattern {732111/51111/1111/1}

Atom   0Ir   basis set group =>   1
Atom   1C    basis set group =>   2
Atom   2C    basis set group =>   2
Atom   3C    basis set group =>   2
Atom   4C    basis set group =>   2
Atom   5C    basis set group =>   2
Atom   6C    basis set group =>   2
Atom   7H    basis set group =>   3
Atom   8H    basis set group =>   3
Atom   9H    basis set group =>   3
Atom  10H    basis set group =>   3
Atom  11H    basis set group =>   3
Atom  12H    basis set group =>   3
Atom  13H    basis set group =>   3
Atom  14H    basis set group =>   3
Atom  15C    basis set group =>   2
Atom  16H    basis set group =>   3
Atom  17H    basis set group =>   3
Atom  18H    basis set group =>   3
Atom  19H    basis set group =>   3
Atom  20P    basis set group =>   4
Atom  21H    basis set group =>   3
Atom  22H    basis set group =>   3
Atom  23H    basis set group =>   3
---------------------------------
AUXILIARY/C BASIS SET INFORMATION
---------------------------------
There are 4 groups of distinct atoms

 Group   1 Type Ir  : 9s9p8d5f4g3h1i contracted to 9s9p8d5f4g3h1i pattern {111111111/111111111/11111111/11111/1111/111/1}
 Group   2 Type C   : 9s7p6d4f1g contracted to 9s7p5d4f1g pattern {111111111/1111111/21111/1111/1}
 Group   3 Type H   : 5s4p3d1f contracted to 5s4p3d1f pattern {11111/1111/111/1}
 Group   4 Type P   : 12s9p8d6f2g contracted to 12s9p8d6f2g pattern {111111111111/111111111/11111111/111111/11}

Atom   0Ir   basis set group =>   1
Atom   1C    basis set group =>   2
Atom   2C    basis set group =>   2
Atom   3C    basis set group =>   2
Atom   4C    basis set group =>   2
Atom   5C    basis set group =>   2
Atom   6C    basis set group =>   2
Atom   7H    basis set group =>   3
Atom   8H    basis set group =>   3
Atom   9H    basis set group =>   3
Atom  10H    basis set group =>   3
Atom  11H    basis set group =>   3
Atom  12H    basis set group =>   3
Atom  13H    basis set group =>   3
Atom  14H    basis set group =>   3
Atom  15C    basis set group =>   2
Atom  16H    basis set group =>   3
Atom  17H    basis set group =>   3
Atom  18H    basis set group =>   3
Atom  19H    basis set group =>   3
Atom  20P    basis set group =>   4
Atom  21H    basis set group =>   3
Atom  22H    basis set group =>   3
Atom  23H    basis set group =>   3
----------------------------------
AUXILIARY/JK BASIS SET INFORMATION
----------------------------------
There are 4 groups of distinct atoms

 Group   1 Type Ir  : 13s12p11d9f5g3h2i contracted to 11s9p9d7f4g3h2i pattern {31111111111/411111111/311111111/3111111/2111/111/11}
 Group   2 Type C   : 14s10p6d2f1g contracted to 10s8p5d1f1g pattern {5111111111/31111111/21111/2/1}
 Group   3 Type H   : 4s2p2d contracted to 2s2p2d pattern {31/11/11}
 Group   4 Type P   : 16s12p10d4f1g contracted to 13s11p9d4f1g pattern {4111111111111/21111111111/211111111/1111/1}

Atom   0Ir   basis set group =>   1
Atom   1C    basis set group =>   2
Atom   2C    basis set group =>   2
Atom   3C    basis set group =>   2
Atom   4C    basis set group =>   2
Atom   5C    basis set group =>   2
Atom   6C    basis set group =>   2
Atom   7H    basis set group =>   3
Atom   8H    basis set group =>   3
Atom   9H    basis set group =>   3
Atom  10H    basis set group =>   3
Atom  11H    basis set group =>   3
Atom  12H    basis set group =>   3
Atom  13H    basis set group =>   3
Atom  14H    basis set group =>   3
Atom  15C    basis set group =>   2
Atom  16H    basis set group =>   3
Atom  17H    basis set group =>   3
Atom  18H    basis set group =>   3
Atom  19H    basis set group =>   3
Atom  20P    basis set group =>   4
Atom  21H    basis set group =>   3
Atom  22H    basis set group =>   3
Atom  23H    basis set group =>   3
-------------------------
ECP PARAMETER INFORMATION
-------------------------

 Group 1, Type Ir ECP Def2-ECP (replacing 60 core electrons, lmax=3)

Atom   0Ir   ECP group =>   1



           ************************************************************
           *        Program running with 24 parallel MPI-processes    *
           *              working on a common directory               *
           ************************************************************
------------------------------------------------------------------------------
                           ORCA GTO INTEGRAL CALCULATION
                           -- RI-GTO INTEGRALS CHOSEN --
------------------------------------------------------------------------------

                         BASIS SET STATISTICS AND STARTUP INFO

Gaussian basis set:
 # of primitive gaussian shells          ...  343
 # of primitive gaussian functions       ...  803
 # of contracted shells                  ...  229
 # of contracted basis functions         ...  621
 Highest angular momentum                ...    4
 Maximum contraction depth               ...    7
Auxiliary gaussian basis set:
 # of primitive gaussian shells          ...  449
 # of primitive gaussian functions       ... 1389
 # of contracted shells                  ...  348
 # of contracted aux-basis functions     ... 1150
 Highest angular momentum                ...    6
 Maximum contraction depth               ...    5
Ratio of auxiliary to basis functions    ...  1.85
Integral package used                  ... LIBINT
 One Electron integrals                  
   ECP integrals                         ... done
 Ordering auxiliary basis shells         ... done
 Integral threshhold             Thresh  ...  1.000e-10
 Primitive cut-off               TCut    ...  1.000e-11
 Pre-screening matrix                    ... done
 Shell pair data                         ... 
 Ordering of the shell pairs             ... done (   0.004 sec) 24005 of 26335 pairs
 Determination of significant pairs      ... done (   0.000 sec)
 Creation of shell pair data             ... done (   0.002 sec)
 Storage of shell pair data              ... done (   0.013 sec)
 Shell pair data done in (   0.019 sec)
 Computing two index integrals           ... done
 Cholesky decomposition of the V-matrix  ... done


Timings:
 Total evaluation time                   ...   2.685 sec (  0.045 min)
 One electron matrix time                ...   2.265 sec (  0.038 min) = 84.3%
 Schwartz matrix evaluation time         ...   0.229 sec (  0.004 min) =  8.5%
 Two index repulsion integral time       ...   0.081 sec (  0.001 min) =  3.0%
 Cholesky decomposition of V             ...   0.058 sec (  0.001 min) =  2.2%
 Three index repulsion integral time     ...   0.000 sec (  0.000 min) =  0.0%



           ************************************************************
           *        Program running with 24 parallel MPI-processes    *
           *              working on a common directory               *
           ************************************************************
-------------------------------------------------------------------------------
                                 ORCA SCF
-------------------------------------------------------------------------------

------------
SCF SETTINGS
------------
Hamiltonian:
 Density Functional     Method          .... DFT(GTOs)
 Exchange Functional    Exchange        .... B88
   X-Alpha parameter    XAlpha          ....  0.666667
   Becke's b parameter  XBeta           ....  0.004200
 Correlation Functional Correlation     .... LYP
 LDA part of GGA corr.  LDAOpt          .... VWN-3
 Gradients option       PostSCFGGA      .... off
 Hybrid DFT is turned on
   Fraction HF Exchange ScalHFX         ....  0.530000
   Scaling of DF-GGA-X  ScalDFX         ....  0.470000
   Scaling of DF-GGA-C  ScalDFC         ....  0.730000
   Scaling of DF-LDA-C  ScalLDAC        ....  0.730000
   Perturbative correction              ....  0.270000
   Density functional embedding theory  .... OFF
 RI-approximation to the Coulomb term is turned on
   Number of auxiliary basis functions  .... 1150
   RI-JK (J+K treated both via RI)      .... on


General Settings:
 Integral files         IntName         .... TMB31_C1
 Hartree-Fock type      HFTyp           .... RHF
 Total Charge           Charge          ....    1
 Multiplicity           Mult            ....    1
 Number of Electrons    NEL             ....   88
 Basis Dimension        Dim             ....  621
 Nuclear Repulsion      ENuc            ....    705.0157848725 Eh

Convergence Acceleration:
 DIIS                   CNVDIIS         .... on
   Start iteration      DIISMaxIt       ....    12
   Startup error        DIISStart       ....  0.200000
   # of expansion vecs  DIISMaxEq       ....     5
   Bias factor          DIISBfac        ....   1.050
   Max. coefficient     DIISMaxC        ....  10.000
 Newton-Raphson         CNVNR           .... off
 SOSCF                  CNVSOSCF        .... off
 Level Shifting         CNVShift        .... on
   Level shift para.    LevelShift      ....    0.2500
   Turn off err/grad.   ShiftErr        ....    0.0010
 Zerner damping         CNVZerner       .... off
 Static damping         CNVDamp         .... on
   Fraction old density DampFac         ....    0.7000
   Max. Damping (<1)    DampMax         ....    0.9800
   Min. Damping (>=0)   DampMin         ....    0.0000
   Turn off err/grad.   DampErr         ....    0.1000
 Fernandez-Rico         CNVRico         .... off

SCF Procedure:
 Maximum # iterations   MaxIter         ....   125
 SCF integral mode      SCFMode         .... Direct
   Integral package                     .... LIBINT
 Reset frequency        DirectResetFreq ....    20
 Integral Threshold     Thresh          ....  1.000e-10 Eh
 Primitive CutOff       TCut            ....  1.000e-11 Eh

Convergence Tolerance:
 Convergence Check Mode ConvCheckMode   .... Total+1el-Energy
 Convergence forced     ConvForced      .... 0
 Energy Change          TolE            ....  1.000e-06 Eh
 1-El. energy change                    ....  1.000e-03 Eh
 DIIS Error             TolErr          ....  1.000e-06


Diagonalization of the overlap matrix:
Smallest eigenvalue                        ... 9.746e-07
Time for diagonalization                   ...    0.056 sec
Threshold for overlap eigenvalues          ... 1.000e-08
Number of eigenvalues below threshold      ... 0
Time for construction of square roots      ...    0.057 sec
Total time needed                          ...    0.115 sec

-------------------
DFT GRID GENERATION
-------------------

General Integration Accuracy     IntAcc      ...  4.670
Radial Grid Type                 RadialGrid  ... Gauss-Chebyshev
Angular Grid (max. acc.)         AngularGrid ... Lebedev-302
Angular grid pruning method      GridPruning ... 3 (G Style)
Weight generation scheme         WeightScheme... Becke
Basis function cutoff            BFCut       ...    1.0000e-10
Integration weight cutoff        WCut        ...    1.0000e-14
Grids for H and He will be reduced by one unit

# of grid points (after initial pruning)     ... 112892 (   0.0 sec)
# of grid points (after weights+screening)   ... 100084 (   0.1 sec)
nearest neighbour list constructed           ...    0.0 sec
Grid point re-assignment to atoms done       ...    0.0 sec
Grid point division into batches done        ...    0.3 sec
Reduced shell lists constructed in    0.6 sec

Total number of grid points                  ...   100084
Total number of batches                      ...     1575
Average number of points per batch           ...       63
Average number of grid points per atom       ...     4170
Average number of shells per batch           ...   180.76 (78.94%)
Average number of basis functions per batch  ...   509.24 (82.00%)
Average number of large shells per batch     ...   149.13 (82.50%)
Average number of large basis fcns per batch ...   414.66 (81.43%)
Average number of aux-shells per batch       ...   180.76 (51.94%)
Average number of aux functions per batch    ...   509.24 (44.28%)
Maximum spatial batch extension              ...   1.94,  1.87,  1.92 au
Average spatial batch extension              ...   0.05,  0.05,  0.05 au

Time for grid setup =    0.680 sec

------------------------------
INITIAL GUESS: MODEL POTENTIAL
------------------------------
Loading Hartree-Fock densities                     ... done
  calling /sw/apps/orca/orca_4_2_0_linux_x86-64_openmpi314/orca TMB31_C1_atom77.inp > TMB31_C1_atom77.out in order to generate an atomic fitting density for atom 0 (Ir with ECP) on-the-fly... 
    atom 0 (Ir), assumed electronic state with S=4: 1s2 2s2 2p6 3s2 3p6 4s2 3d10 4p6 5s2 4d10 5p6 6s2 4f14 5d7           ... done
Calculating cut-offs                               ... done
Setting up the integral package                    ... done
Initializing the effective Hamiltonian             ... done
Starting the Coulomb interaction                   ... done (   0.0 sec)
Reading the grid                                   ... done
Mapping shells                                     ... done
Starting the XC term evaluation                    ... done (   0.2 sec)
  promolecular density results
     # of electrons  =    148.994632463
     EX              =   -413.763990103
     EC              =     -2.386418214
     EX+EC           =   -416.150408317
Transforming the Hamiltonian                       ... done (   0.0 sec)
Diagonalizing the Hamiltonian                      ... done (   0.1 sec)
Back transforming the eigenvectors                 ... done (   0.0 sec)
Now organizing SCF variables                       ... done
                      ------------------
                      INITIAL GUESS DONE (   2.4 sec)
                      ------------------
--------------
SCF ITERATIONS
--------------
ITER       Energy         Delta-E        Max-DP      RMS-DP      [F,P]     Damp
  0   -715.1354143697   0.000000000000161.63234983  0.50882971  1.0079240 0.7000
  1   -715.7356134139  -0.60019904424630.21784626  0.12032702  0.4045326 0.7000
                               ***Turning on DIIS***
  2   -716.1495323115  -0.41391889751940.36061787  0.14677361  0.1964735 0.7000
  3   -718.4954315065  -2.34589919507728.40667125  0.10336362  0.1172412 0.7000
  4   -719.0399151336  -0.54448362702519.91818411  0.07247610  0.1476223 0.7000
  5   -719.3061230875  -0.26620795392513.95355308  0.05076039  0.1555885 0.7000
  6   -719.5090448628  -0.202921775357 9.77257417  0.03554222  0.1456744 0.7000
  7   -719.6641303367  -0.155085473896 6.84364008  0.02488525  0.1333275 0.7000
  8   -719.7813711793  -0.117240842567 4.78206173  0.01741636  0.1280022 0.7000
  9   -719.8685711906  -0.087200011285 3.33939799  0.01220217  0.1221184 0.7000
 10   -719.9286386170  -0.060067426450 7.62695547  0.02825560  0.0977608 0.0000
 11   -720.1669070298  -0.238268412799 0.08670140  0.00088173  0.0787902 0.0000
 12   -720.2044258485  -0.037518818632 0.01764518  0.00023518  0.0129717 0.0000
 13   -720.2058962758  -0.001470427344 0.00886787  0.00007591  0.0043849 0.0000
 14   -720.2060838335  -0.000187557651 0.00369773  0.00004288  0.0010822 0.0000
 15   -720.2061220315  -0.000038198031 0.00507596  0.00004459  0.0006939 0.0000
 16   -720.2061416954  -0.000019663944 0.00146185  0.00001390  0.0003844 0.0000
 17   -720.2061441450  -0.000002449588 0.00280677  0.00001540  0.0002741 0.0000
 18   -720.2061447249  -0.000000579894 0.00406133  0.00002219  0.0001633 0.0000
 19   -720.2061449194  -0.000000194447 0.00549722  0.00002391  0.0000712 0.0000
                 **** Energy Check signals convergence ****

               *****************************************************
               *                     SUCCESS                       *
               *           SCF CONVERGED AFTER  20 CYCLES          *
               *****************************************************


----------------
TOTAL SCF ENERGY
----------------

Total Energy       :         -720.20614499 Eh          -19597.80554 eV

Components:
Nuclear Repulsion  :          705.01578487 Eh           19184.45483 eV
Electronic Energy  :        -1425.22192986 Eh          -38782.26036 eV
One Electron Energy:        -2409.36555519 Eh          -65562.16987 eV
Two Electron Energy:          984.14362533 Eh           26779.90951 eV

Virial components:
Potential Energy   :        -1370.36544784 Eh          -37289.53960 eV
Kinetic Energy     :          650.15930286 Eh           17691.73406 eV
Virial Ratio       :            2.10773797


DFT components:
N(Alpha)           :       43.999850231412 electrons
N(Beta)            :       43.999850231412 electrons
N(Total)           :       87.999700462824 electrons
E(X)               :      -34.802448443652 Eh       
E(C)               :       -2.213998233656 Eh       
E(XC)              :      -37.016446677309 Eh       
DFET-embed. en.    :        0.000000000000 Eh       

---------------
SCF CONVERGENCE
---------------

  Last Energy change         ...   -6.7731e-08  Tolerance :   1.0000e-06
  Last MAX-Density change    ...    2.9807e-03  Tolerance :   1.0000e-05
  Last RMS-Density change    ...    1.5933e-05  Tolerance :   1.0000e-06
  Last DIIS Error            ...    2.9100e-05  Tolerance :   1.0000e-06

             **** THE GBW FILE WAS UPDATED (TMB31_C1.gbw) ****
             **** DENSITY FILE WAS UPDATED (TMB31_C1.scfp) ****
             **** ENERGY FILE WAS UPDATED (TMB31_C1.en.tmp) ****
             **** THE GBW FILE WAS UPDATED (TMB31_C1.gbw) ****
             **** DENSITY FILE WAS UPDATED (TMB31_C1.scfp) ****
----------------
ORBITAL ENERGIES
----------------

  NO   OCC          E(Eh)            E(eV) 
   0   2.0000     -78.456974     -2134.9228 
   1   2.0000     -10.810026      -294.1558 
   2   2.0000     -10.808477      -294.1136 
   3   2.0000     -10.805579      -294.0348 
   4   2.0000     -10.804229      -293.9980 
   5   2.0000     -10.800508      -293.8968 
   6   2.0000     -10.775947      -293.2284 
   7   2.0000     -10.729539      -291.9656 
   8   2.0000      -7.126506      -193.9221 
   9   2.0000      -5.177813      -140.8955 
  10   2.0000      -5.177598      -140.8896 
  11   2.0000      -5.175818      -140.8412 
  12   2.0000      -4.094346      -111.4128 
  13   2.0000      -2.382304       -64.8258 
  14   2.0000      -2.365506       -64.3687 
  15   2.0000      -2.356812       -64.1321 
  16   2.0000      -1.193399       -32.4740 
  17   2.0000      -1.007656       -27.4197 
  18   2.0000      -0.997020       -27.1303 
  19   2.0000      -0.978637       -26.6301 
  20   2.0000      -0.923241       -25.1227 
  21   2.0000      -0.901003       -24.5175 
  22   2.0000      -0.806326       -21.9412 
  23   2.0000      -0.804095       -21.8805 
  24   2.0000      -0.786961       -21.4143 
  25   2.0000      -0.679942       -18.5022 
  26   2.0000      -0.663077       -18.0433 
  27   2.0000      -0.653015       -17.7695 
  28   2.0000      -0.650287       -17.6952 
  29   2.0000      -0.643529       -17.5113 
  30   2.0000      -0.637001       -17.3337 
  31   2.0000      -0.625035       -17.0081 
  32   2.0000      -0.620840       -16.8939 
  33   2.0000      -0.619463       -16.8565 
  34   2.0000      -0.614554       -16.7229 
  35   2.0000      -0.589411       -16.0387 
  36   2.0000      -0.585015       -15.9191 
  37   2.0000      -0.574268       -15.6266 
  38   2.0000      -0.536668       -14.6035 
  39   2.0000      -0.504340       -13.7238 
  40   2.0000      -0.498123       -13.5546 
  41   2.0000      -0.477229       -12.9861 
  42   2.0000      -0.455919       -12.4062 
  43   2.0000      -0.424999       -11.5648 
  44   0.0000      -0.157799        -4.2939 
  45   0.0000      -0.111828        -3.0430 
  46   0.0000      -0.100807        -2.7431 
  47   0.0000      -0.085531        -2.3274 
  48   0.0000      -0.081931        -2.2294 
  49   0.0000      -0.078476        -2.1354 
  50   0.0000      -0.074346        -2.0230 
  51   0.0000      -0.069796        -1.8993 
  52   0.0000      -0.054634        -1.4867 
  53   0.0000      -0.053730        -1.4621 
  54   0.0000      -0.045341        -1.2338 
  55   0.0000      -0.042209        -1.1486 
  56   0.0000      -0.038996        -1.0611 
  57   0.0000      -0.031739        -0.8637 
  58   0.0000      -0.024321        -0.6618 
  59   0.0000      -0.022344        -0.6080 
  60   0.0000      -0.011467        -0.3120 
  61   0.0000      -0.002277        -0.0619 
  62   0.0000       0.002023         0.0551 
  63   0.0000       0.006378         0.1736 
  64   0.0000       0.013547         0.3686 
  65   0.0000       0.016427         0.4470 
  66   0.0000       0.020895         0.5686 
  67   0.0000       0.027010         0.7350 
  68   0.0000       0.031340         0.8528 
  69   0.0000       0.036438         0.9915 
  70   0.0000       0.040773         1.1095 
  71   0.0000       0.042691         1.1617 
  72   0.0000       0.046685         1.2704 
  73   0.0000       0.048135         1.3098 
  74   0.0000       0.056491         1.5372 
  75   0.0000       0.064180         1.7464 
  76   0.0000       0.066296         1.8040 
  77   0.0000       0.069727         1.8974 
  78   0.0000       0.076628         2.0851 
  79   0.0000       0.083639         2.2759 
  80   0.0000       0.098257         2.6737 
  81   0.0000       0.102421         2.7870 
  82   0.0000       0.105575         2.8729 
  83   0.0000       0.107323         2.9204 
  84   0.0000       0.111532         3.0350 
  85   0.0000       0.120896         3.2897 
  86   0.0000       0.124810         3.3963 
  87   0.0000       0.128681         3.5016 
  88   0.0000       0.133058         3.6207 
  89   0.0000       0.139690         3.8012 
  90   0.0000       0.148905         4.0519 
  91   0.0000       0.154819         4.2128 
  92   0.0000       0.165554         4.5049 
  93   0.0000       0.170038         4.6270 
  94   0.0000       0.171817         4.6754 
  95   0.0000       0.174672         4.7531 
  96   0.0000       0.178719         4.8632 
  97   0.0000       0.182241         4.9590 
  98   0.0000       0.183558         4.9949 
  99   0.0000       0.187807         5.1105 
 100   0.0000       0.192700         5.2436 
 101   0.0000       0.194568         5.2945 
 102   0.0000       0.194640         5.2964 
 103   0.0000       0.203343         5.5333 
 104   0.0000       0.205145         5.5823 
 105   0.0000       0.211674         5.7599 
 106   0.0000       0.213413         5.8073 
 107   0.0000       0.218868         5.9557 
 108   0.0000       0.221105         6.0166 
 109   0.0000       0.224638         6.1127 
 110   0.0000       0.226998         6.1769 
 111   0.0000       0.233619         6.3571 
 112   0.0000       0.239308         6.5119 
 113   0.0000       0.240029         6.5315 
 114   0.0000       0.247191         6.7264 
 115   0.0000       0.251974         6.8566 
 116   0.0000       0.255105         6.9418 
 117   0.0000       0.257576         7.0090 
 118   0.0000       0.262517         7.1435 
 119   0.0000       0.262981         7.1561 
 120   0.0000       0.266419         7.2496 
 121   0.0000       0.271890         7.3985 
 122   0.0000       0.274696         7.4749 
 123   0.0000       0.280252         7.6260 
 124   0.0000       0.284066         7.7298 
 125   0.0000       0.285443         7.7673 
 126   0.0000       0.290400         7.9022 
 127   0.0000       0.293781         7.9942 
 128   0.0000       0.301240         8.1972 
 129   0.0000       0.303156         8.2493 
 130   0.0000       0.307204         8.3594 
 131   0.0000       0.311615         8.4795 
 132   0.0000       0.313174         8.5219 
 133   0.0000       0.325641         8.8611 
 134   0.0000       0.331331         9.0160 
 135   0.0000       0.332512         9.0481 
 136   0.0000       0.341589         9.2951 
 137   0.0000       0.343572         9.3491 
 138   0.0000       0.345639         9.4053 
 139   0.0000       0.352008         9.5786 
 140   0.0000       0.358821         9.7640 
 141   0.0000       0.362754         9.8710 
 142   0.0000       0.363805         9.8996 
 143   0.0000       0.364939         9.9305 
 144   0.0000       0.373596        10.1661 
 145   0.0000       0.377741        10.2789 
 146   0.0000       0.382827        10.4172 
 147   0.0000       0.385656        10.4942 
 148   0.0000       0.392736        10.6869 
 149   0.0000       0.395547        10.7634 
 150   0.0000       0.400404        10.8956 
 151   0.0000       0.403347        10.9756 
 152   0.0000       0.406996        11.0749 
 153   0.0000       0.410137        11.1604 
 154   0.0000       0.421752        11.4764 
 155   0.0000       0.426200        11.5975 
 156   0.0000       0.431398        11.7389 
 157   0.0000       0.438060        11.9202 
 158   0.0000       0.443079        12.0568 
 159   0.0000       0.448494        12.2041 
 160   0.0000       0.456249        12.4152 
 161   0.0000       0.458063        12.4645 
 162   0.0000       0.465794        12.6749 
 163   0.0000       0.472126        12.8472 
 164   0.0000       0.478303        13.0153 
 165   0.0000       0.481048        13.0900 
 166   0.0000       0.486795        13.2464 
 167   0.0000       0.487748        13.2723 
 168   0.0000       0.492587        13.4040 
 169   0.0000       0.498448        13.5635 
 170   0.0000       0.505103        13.7446 
 171   0.0000       0.508780        13.8446 
 172   0.0000       0.514674        14.0050 
 173   0.0000       0.519334        14.1318 
 174   0.0000       0.530089        14.4244 
 175   0.0000       0.537270        14.6199 
 176   0.0000       0.544094        14.8056 
 177   0.0000       0.550189        14.9714 
 178   0.0000       0.554971        15.1015 
 179   0.0000       0.560394        15.2491 
 180   0.0000       0.572662        15.5829 
 181   0.0000       0.577293        15.7089 
 182   0.0000       0.583386        15.8747 
 183   0.0000       0.586447        15.9580 
 184   0.0000       0.588223        16.0064 
 185   0.0000       0.595668        16.2089 
 186   0.0000       0.604734        16.4556 
 187   0.0000       0.607965        16.5436 
 188   0.0000       0.612565        16.6687 
 189   0.0000       0.622525        16.9398 
 190   0.0000       0.625882        17.0311 
 191   0.0000       0.630716        17.1626 
 192   0.0000       0.635341        17.2885 
 193   0.0000       0.644121        17.5274 
 194   0.0000       0.646954        17.6045 
 195   0.0000       0.655326        17.8323 
 196   0.0000       0.657669        17.8961 
 197   0.0000       0.663052        18.0426 
 198   0.0000       0.669441        18.2164 
 199   0.0000       0.670084        18.2339 
 200   0.0000       0.673750        18.3337 
 201   0.0000       0.674601        18.3568 
 202   0.0000       0.681676        18.5494 
 203   0.0000       0.686323        18.6758 
 204   0.0000       0.690901        18.8004 
 205   0.0000       0.694198        18.8901 
 206   0.0000       0.696554        18.9542 
 207   0.0000       0.699779        19.0420 
 208   0.0000       0.705749        19.2044 
 209   0.0000       0.713608        19.4183 
 210   0.0000       0.720989        19.6191 
 211   0.0000       0.722909        19.6713 
 212   0.0000       0.729974        19.8636 
 213   0.0000       0.744199        20.2507 
 214   0.0000       0.756569        20.5873 
 215   0.0000       0.761140        20.7117 
 216   0.0000       0.763946        20.7880 
 217   0.0000       0.781159        21.2564 
 218   0.0000       0.792092        21.5539 
 219   0.0000       0.798418        21.7261 
 220   0.0000       0.812327        22.1045 
 221   0.0000       0.819626        22.3032 
 222   0.0000       0.825841        22.4723 
 223   0.0000       0.834500        22.7079 
 224   0.0000       0.853952        23.2372 
 225   0.0000       0.873723        23.7752 
 226   0.0000       0.876573        23.8528 
 227   0.0000       0.888862        24.1872 
 228   0.0000       0.891156        24.2496 
 229   0.0000       0.899899        24.4875 
 230   0.0000       0.903888        24.5961 
 231   0.0000       0.921743        25.0819 
 232   0.0000       0.927340        25.2342 
 233   0.0000       0.942040        25.6342 
 234   0.0000       0.948792        25.8180 
 235   0.0000       0.956340        26.0233 
 236   0.0000       0.960695        26.1418 
 237   0.0000       0.974259        26.5109 
 238   0.0000       0.994178        27.0530 
 239   0.0000       1.001582        27.2544 
 240   0.0000       1.014509        27.6062 
 241   0.0000       1.018374        27.7114 
 242   0.0000       1.036447        28.2032 
 243   0.0000       1.049964        28.5710 
 244   0.0000       1.054933        28.7062 
 245   0.0000       1.064895        28.9773 
 246   0.0000       1.072154        29.1748 
 247   0.0000       1.084059        29.4988 
 248   0.0000       1.109245        30.1841 
 249   0.0000       1.112084        30.2614 
 250   0.0000       1.123398        30.5692 
 251   0.0000       1.131055        30.7776 
 252   0.0000       1.140808        31.0430 
 253   0.0000       1.143770        31.1236 
 254   0.0000       1.154038        31.4030 
 255   0.0000       1.166340        31.7377 
 256   0.0000       1.176155        32.0048 
 257   0.0000       1.185058        32.2471 
 258   0.0000       1.188043        32.3283 
 259   0.0000       1.206024        32.8176 
 260   0.0000       1.212127        32.9837 
 261   0.0000       1.214021        33.0352 
 262   0.0000       1.226618        33.3780 
 263   0.0000       1.234173        33.5836 
 264   0.0000       1.243587        33.8397 
 265   0.0000       1.249327        33.9959 
 266   0.0000       1.253064        34.0976 
 267   0.0000       1.268170        34.5087 
 268   0.0000       1.279628        34.8204 
 269   0.0000       1.289632        35.0927 
 270   0.0000       1.300385        35.3853 
 271   0.0000       1.308720        35.6121 
 272   0.0000       1.327412        36.1207 
 273   0.0000       1.340249        36.4700 
 274   0.0000       1.341711        36.5098 
 275   0.0000       1.349303        36.7164 
 276   0.0000       1.353956        36.8430 
 277   0.0000       1.361668        37.0529 
 278   0.0000       1.367549        37.2129 
 279   0.0000       1.376102        37.4456 
 280   0.0000       1.383207        37.6390 
 281   0.0000       1.393493        37.9189 
 282   0.0000       1.401415        38.1344 
 283   0.0000       1.414134        38.4806 
 284   0.0000       1.416393        38.5420 
 285   0.0000       1.420596        38.6564 
 286   0.0000       1.425143        38.7801 
 287   0.0000       1.429292        38.8930 
 288   0.0000       1.431133        38.9431 
 289   0.0000       1.458247        39.6809 
 290   0.0000       1.465513        39.8786 
 291   0.0000       1.480874        40.2966 
 292   0.0000       1.506033        40.9812 
 293   0.0000       1.508151        41.0389 
 294   0.0000       1.513331        41.1798 
 295   0.0000       1.537270        41.8312 
 296   0.0000       1.545619        42.0584 
 297   0.0000       1.553588        42.2753 
 298   0.0000       1.560418        42.4611 
 299   0.0000       1.578824        42.9620 
 300   0.0000       1.585474        43.1429 
 301   0.0000       1.593621        43.3646 
 302   0.0000       1.597406        43.4676 
 303   0.0000       1.604017        43.6475 
 304   0.0000       1.613078        43.8941 
 305   0.0000       1.625627        44.2356 
 306   0.0000       1.631151        44.3859 
 307   0.0000       1.640697        44.6456 
 308   0.0000       1.642213        44.6869 
 309   0.0000       1.664799        45.3015 
 310   0.0000       1.673610        45.5412 
 311   0.0000       1.683040        45.7979 
 312   0.0000       1.702764        46.3346 
 313   0.0000       1.707858        46.4732 
 314   0.0000       1.718245        46.7558 
 315   0.0000       1.731660        47.1209 
 316   0.0000       1.752533        47.6888 
 317   0.0000       1.765244        48.0347 
 318   0.0000       1.769434        48.1488 
 319   0.0000       1.783358        48.5276 
 320   0.0000       1.795510        48.8583 
 321   0.0000       1.797396        48.9096 
 322   0.0000       1.813468        49.3470 
 323   0.0000       1.821160        49.5563 
 324   0.0000       1.844344        50.1872 
 325   0.0000       1.863017        50.6953 
 326   0.0000       1.875423        51.0328 
 327   0.0000       1.889295        51.4103 
 328   0.0000       1.898117        51.6504 
 329   0.0000       1.905266        51.8449 
 330   0.0000       1.910991        52.0007 
 331   0.0000       1.921573        52.2887 
 332   0.0000       1.928051        52.4649 
 333   0.0000       1.951086        53.0917 
 334   0.0000       1.971989        53.6605 
 335   0.0000       1.986244        54.0484 
 336   0.0000       1.996447        54.3261 
 337   0.0000       2.011111        54.7251 
 338   0.0000       2.021323        55.0030 
 339   0.0000       2.050651        55.8011 
 340   0.0000       2.069622        56.3173 
 341   0.0000       2.096843        57.0580 
 342   0.0000       2.102980        57.2250 
 343   0.0000       2.118949        57.6595 
 344   0.0000       2.139805        58.2271 
 345   0.0000       2.154052        58.6147 
 346   0.0000       2.167157        58.9713 
 347   0.0000       2.189737        59.5858 
 348   0.0000       2.220869        60.4329 
 349   0.0000       2.242807        61.0299 
 350   0.0000       2.276864        61.9566 
 351   0.0000       2.299347        62.5684 
 352   0.0000       2.320691        63.1492 
 353   0.0000       2.350592        63.9629 
 354   0.0000       2.389675        65.0264 
 355   0.0000       2.428669        66.0875 
 356   0.0000       2.484052        67.5945 
 357   0.0000       2.491302        67.7918 
 358   0.0000       2.495693        67.9113 
 359   0.0000       2.529500        68.8312 
 360   0.0000       2.539414        69.1010 
 361   0.0000       2.572331        69.9967 
 362   0.0000       2.592290        70.5398 
 363   0.0000       2.615741        71.1779 
 364   0.0000       2.619737        71.2867 
 365   0.0000       2.662072        72.4387 
 366   0.0000       2.703516        73.5664 
 367   0.0000       2.734024        74.3966 
 368   0.0000       2.745370        74.7053 
 369   0.0000       2.763224        75.1912 
 370   0.0000       2.769199        75.3537 
 371   0.0000       2.776397        75.5496 
 372   0.0000       2.783475        75.7422 
 373   0.0000       2.792351        75.9837 
 374   0.0000       2.800539        76.2066 
 375   0.0000       2.813144        76.5495 
 376   0.0000       2.830209        77.0139 
 377   0.0000       2.836443        77.1835 
 378   0.0000       2.843477        77.3750 
 379   0.0000       2.852781        77.6281 
 380   0.0000       2.860486        77.8378 
 381   0.0000       2.871879        78.1478 
 382   0.0000       2.881645        78.4135 
 383   0.0000       2.891972        78.6946 
 384   0.0000       2.902269        78.9748 
 385   0.0000       2.911506        79.2261 
 386   0.0000       2.922949        79.5375 
 387   0.0000       2.940216        80.0073 
 388   0.0000       2.947551        80.2069 
 389   0.0000       2.956753        80.4573 
 390   0.0000       2.971176        80.8498 
 391   0.0000       2.991274        81.3967 
 392   0.0000       2.994003        81.4710 
 393   0.0000       3.010732        81.9262 
 394   0.0000       3.013133        81.9915 
 395   0.0000       3.026340        82.3509 
 396   0.0000       3.042853        82.8002 
 397   0.0000       3.051500        83.0355 
 398   0.0000       3.063354        83.3581 
 399   0.0000       3.075639        83.6924 
 400   0.0000       3.083898        83.9171 
 401   0.0000       3.097496        84.2872 
 402   0.0000       3.109159        84.6045 
 403   0.0000       3.131027        85.1996 
 404   0.0000       3.133927        85.2785 
 405   0.0000       3.150488        85.7291 
 406   0.0000       3.156392        85.8898 
 407   0.0000       3.171993        86.3143 
 408   0.0000       3.175216        86.4020 
 409   0.0000       3.186858        86.7188 
 410   0.0000       3.206682        87.2583 
 411   0.0000       3.219614        87.6102 
 412   0.0000       3.231655        87.9378 
 413   0.0000       3.238347        88.1199 
 414   0.0000       3.250919        88.4620 
 415   0.0000       3.258730        88.6746 
 416   0.0000       3.270828        89.0037 
 417   0.0000       3.283114        89.3381 
 418   0.0000       3.284384        89.3726 
 419   0.0000       3.291403        89.5636 
 420   0.0000       3.304328        89.9153 
 421   0.0000       3.315668        90.2239 
 422   0.0000       3.330935        90.6394 
 423   0.0000       3.340929        90.9113 
 424   0.0000       3.346747        91.0696 
 425   0.0000       3.353178        91.2446 
 426   0.0000       3.360185        91.4353 
 427   0.0000       3.367352        91.6303 
 428   0.0000       3.388125        92.1956 
 429   0.0000       3.393962        92.3544 
 430   0.0000       3.408531        92.7508 
 431   0.0000       3.423737        93.1646 
 432   0.0000       3.429119        93.3111 
 433   0.0000       3.440232        93.6135 
 434   0.0000       3.445921        93.7683 
 435   0.0000       3.450473        93.8921 
 436   0.0000       3.458997        94.1241 
 437   0.0000       3.472701        94.4970 
 438   0.0000       3.473349        94.5146 
 439   0.0000       3.481484        94.7360 
 440   0.0000       3.486309        94.8673 
 441   0.0000       3.495011        95.1041 
 442   0.0000       3.506483        95.4163 
 443   0.0000       3.517065        95.7042 
 444   0.0000       3.525323        95.9289 
 445   0.0000       3.538687        96.2926 
 446   0.0000       3.549824        96.5956 
 447   0.0000       3.556743        96.7839 
 448   0.0000       3.575320        97.2894 
 449   0.0000       3.580358        97.4265 
 450   0.0000       3.584631        97.5428 
 451   0.0000       3.602712        98.0348 
 452   0.0000       3.610014        98.2335 
 453   0.0000       3.615835        98.3919 
 454   0.0000       3.627277        98.7032 
 455   0.0000       3.638889        99.0192 
 456   0.0000       3.649884        99.3184 
 457   0.0000       3.653490        99.4165 
 458   0.0000       3.663402        99.6862 
 459   0.0000       3.672689        99.9389 
 460   0.0000       3.692535       100.4790 
 461   0.0000       3.699785       100.6763 
 462   0.0000       3.709340       100.9363 
 463   0.0000       3.716240       101.1240 
 464   0.0000       3.728490       101.4574 
 465   0.0000       3.730293       101.5064 
 466   0.0000       3.738421       101.7276 
 467   0.0000       3.751086       102.0722 
 468   0.0000       3.770925       102.6121 
 469   0.0000       3.786631       103.0395 
 470   0.0000       3.796300       103.3026 
 471   0.0000       3.820941       103.9731 
 472   0.0000       3.831551       104.2618 
 473   0.0000       3.840501       104.5053 
 474   0.0000       3.853926       104.8707 
 475   0.0000       3.871025       105.3359 
 476   0.0000       3.880353       105.5898 
 477   0.0000       3.882883       105.6586 
 478   0.0000       3.901837       106.1744 
 479   0.0000       3.909240       106.3758 
 480   0.0000       3.915450       106.5448 
 481   0.0000       3.923749       106.7706 
 482   0.0000       3.929912       106.9383 
 483   0.0000       3.934554       107.0647 
 484   0.0000       3.945450       107.3611 
 485   0.0000       3.966036       107.9213 
 486   0.0000       3.985104       108.4402 
 487   0.0000       3.995227       108.7156 
 488   0.0000       4.024615       109.5153 
 489   0.0000       4.029398       109.6455 
 490   0.0000       4.035063       109.7996 
 491   0.0000       4.045815       110.0922 
 492   0.0000       4.057164       110.4010 
 493   0.0000       4.066355       110.6512 
 494   0.0000       4.072594       110.8209 
 495   0.0000       4.093660       111.3941 
 496   0.0000       4.097898       111.5095 
 497   0.0000       4.104760       111.6962 
 498   0.0000       4.120271       112.1183 
 499   0.0000       4.128595       112.3448 
 500   0.0000       4.140377       112.6654 
 501   0.0000       4.153584       113.0248 
 502   0.0000       4.156790       113.1120 
 503   0.0000       4.173598       113.5694 
 504   0.0000       4.182357       113.8077 
 505   0.0000       4.191106       114.0458 
 506   0.0000       4.199273       114.2680 
 507   0.0000       4.203410       114.3806 
 508   0.0000       4.210862       114.5834 
 509   0.0000       4.221975       114.8858 
 510   0.0000       4.230565       115.1195 
 511   0.0000       4.234514       115.2270 
 512   0.0000       4.255741       115.8046 
 513   0.0000       4.257255       115.8458 
 514   0.0000       4.266720       116.1034 
 515   0.0000       4.273341       116.2835 
 516   0.0000       4.279948       116.4633 
 517   0.0000       4.290241       116.7434 
 518   0.0000       4.294727       116.8655 
 519   0.0000       4.313290       117.3706 
 520   0.0000       4.317293       117.4795 
 521   0.0000       4.329676       117.8165 
 522   0.0000       4.341635       118.1419 
 523   0.0000       4.353776       118.4723 
 524   0.0000       4.369934       118.9119 
 525   0.0000       4.375030       119.0506 
 526   0.0000       4.393358       119.5494 
 527   0.0000       4.403892       119.8360 
 528   0.0000       4.416746       120.1858 
 529   0.0000       4.422323       120.3375 
 530   0.0000       4.441985       120.8726 
 531   0.0000       4.457472       121.2940 
 532   0.0000       4.470070       121.6368 
 533   0.0000       4.494593       122.3041 
 534   0.0000       4.497735       122.3896 
 535   0.0000       4.523733       123.0970 
 536   0.0000       4.527587       123.2019 
 537   0.0000       4.554643       123.9381 
 538   0.0000       4.577083       124.5488 
 539   0.0000       4.588256       124.8528 
 540   0.0000       4.600922       125.1974 
 541   0.0000       4.615093       125.5831 
 542   0.0000       4.619239       125.6959 
 543   0.0000       4.651961       126.5863 
 544   0.0000       4.692230       127.6821 
 545   0.0000       4.701120       127.9240 
 546   0.0000       4.716274       128.3363 
 547   0.0000       4.763740       129.6279 
 548   0.0000       4.774151       129.9112 
 549   0.0000       4.792027       130.3977 
 550   0.0000       4.813767       130.9893 
 551   0.0000       4.823127       131.2439 
 552   0.0000       4.840886       131.7272 
 553   0.0000       4.851942       132.0280 
 554   0.0000       4.864048       132.3575 
 555   0.0000       4.876854       132.7059 
 556   0.0000       4.941368       134.4615 
 557   0.0000       4.967850       135.1821 
 558   0.0000       4.988158       135.7347 
 559   0.0000       5.000103       136.0597 
 560   0.0000       5.025542       136.7520 
 561   0.0000       5.081752       138.2815 
 562   0.0000       5.109100       139.0257 
 563   0.0000       5.129630       139.5843 
 564   0.0000       5.183694       141.0555 
 565   0.0000       5.203940       141.6064 
 566   0.0000       5.213832       141.8756 
 567   0.0000       5.231171       142.3474 
 568   0.0000       5.246954       142.7769 
 569   0.0000       5.255434       143.0076 
 570   0.0000       5.265353       143.2775 
 571   0.0000       5.268685       143.3682 
 572   0.0000       5.283758       143.7784 
 573   0.0000       5.309095       144.4678 
 574   0.0000       5.318170       144.7148 
 575   0.0000       5.322187       144.8241 
 576   0.0000       5.347144       145.5032 
 577   0.0000       5.364123       145.9652 
 578   0.0000       5.379132       146.3736 
 579   0.0000       5.391724       146.7163 
 580   0.0000       5.396134       146.8363 
 581   0.0000       5.415277       147.3572 
 582   0.0000       5.458024       148.5204 
 583   0.0000       5.488822       149.3584 
 584   0.0000       5.500659       149.6806 
 585   0.0000       5.515692       150.0896 
 586   0.0000       5.575778       151.7246 
 587   0.0000       5.638483       153.4309 
 588   0.0000       5.668752       154.2546 
 589   0.0000       5.736449       156.0967 
 590   0.0000       5.746594       156.3728 
 591   0.0000       5.751383       156.5031 
 592   0.0000       5.780142       157.2857 
 593   0.0000       5.785566       157.4333 
 594   0.0000       5.829840       158.6380 
 595   0.0000       5.943880       161.7412 
 596   0.0000       5.961530       162.2215 
 597   0.0000       5.983384       162.8162 
 598   0.0000       6.008721       163.5056 
 599   0.0000       6.040004       164.3569 
 600   0.0000       6.061116       164.9314 
 601   0.0000       6.167056       167.8141 
 602   0.0000       6.544320       178.0800 
 603   0.0000       6.699571       182.3046 
 604   0.0000       6.712536       182.6574 
 605   0.0000       8.134898       221.3618 
 606   0.0000       8.162410       222.1105 
 607   0.0000       8.214260       223.5214 
 608   0.0000      16.561602       450.6641 
 609   0.0000      23.515918       639.9007 
 610   0.0000      23.674906       644.2270 
 611   0.0000      23.752965       646.3510 
 612   0.0000      24.077293       655.1764 
 613   0.0000      24.122208       656.3986 
 614   0.0000      24.133740       656.7124 
 615   0.0000      24.239879       659.6007 
 616   0.0000      39.757718      1081.8625 
 617   0.0000      40.399870      1099.3363 
 618   0.0000      43.177456      1174.9183 
 619   0.0000      59.455732      1617.8727 
 620   0.0000     361.351545      9832.8754 

                    ********************************
                    * MULLIKEN POPULATION ANALYSIS *
                    ********************************

-----------------------
MULLIKEN ATOMIC CHARGES
-----------------------
   0 Ir:    0.650925
   1 C :   -0.646422
   2 C :   -0.008095
   3 C :   -0.114311
   4 C :    0.432436
   5 C :   -0.385172
   6 C :    0.118005
   7 H :    0.154951
   8 H :    0.160366
   9 H :    0.117628
  10 H :    0.027014
  11 H :    0.027317
  12 H :    0.050538
  13 H :    0.042305
  14 H :    0.087884
  15 C :   -0.488127
  16 H :    0.084199
  17 H :    0.108144
  18 H :    0.167571
  19 H :    0.148231
  20 P :    0.143251
  21 H :    0.036274
  22 H :    0.046072
  23 H :    0.039018
Sum of atomic charges:    1.0000000

--------------------------------
MULLIKEN REDUCED ORBITAL CHARGES
--------------------------------
  0 Irs       :     2.413865  s :     2.413865
      pz      :     2.145836  p :     6.442531
      px      :     2.174825
      py      :     2.121869
      dz2     :     1.561269  d :     7.414621
      dxz     :     1.347415
      dyz     :     1.820426
      dx2y2   :     1.654533
      dxy     :     1.030977
      f0      :     0.008733  f :     0.075648
      f+1     :     0.013204
      f-1     :     0.007918
      f+2     :     0.010102
      f-2     :     0.009147
      f+3     :     0.012250
      f-3     :     0.014294
      g0      :     0.000239  g :     0.002410
      g+1     :     0.000392
      g-1     :     0.000147
      g+2     :     0.000237
      g-2     :     0.000241
      g+3     :     0.000204
      g-3     :     0.000258
      g+4     :     0.000357
      g-4     :     0.000336
  1 C s       :     3.173423  s :     3.173423
      pz      :     1.062374  p :     3.418547
      px      :     1.183692
      py      :     1.172482
      dz2     :    -0.005472  d :     0.051097
      dxz     :    -0.000992
      dyz     :     0.016443
      dx2y2   :     0.026220
      dxy     :     0.014900
      f0      :     0.000676  f :     0.003354
      f+1     :     0.000640
      f-1     :     0.000342
      f+2     :     0.000576
      f-2     :     0.000517
      f+3     :     0.000208
      f-3     :     0.000397
  2 C s       :     3.283660  s :     3.283660
      pz      :     0.894197  p :     2.715330
      px      :     0.948391
      py      :     0.872742
      dz2     :    -0.019002  d :     0.000159
      dxz     :     0.010231
      dyz     :    -0.001938
      dx2y2   :     0.001782
      dxy     :     0.009085
      f0      :     0.001710  f :     0.008946
      f+1     :     0.001415
      f-1     :     0.001597
      f+2     :     0.001326
      f-2     :     0.000701
      f+3     :     0.000935
      f-3     :     0.001261
  3 C s       :     3.334303  s :     3.334303
      pz      :     0.902771  p :     2.760688
      px      :     0.965060
      py      :     0.892856
      dz2     :     0.000104  d :     0.010257
      dxz     :     0.000035
      dyz     :    -0.001682
      dx2y2   :     0.007925
      dxy     :     0.003875
      f0      :     0.001680  f :     0.009064
      f+1     :     0.001514
      f-1     :     0.001660
      f+2     :     0.001275
      f-2     :     0.000673
      f+3     :     0.001406
      f-3     :     0.000856
  4 C s       :     2.916301  s :     2.916301
      pz      :     0.892238  p :     2.650415
      px      :     0.960828
      py      :     0.797350
      dz2     :    -0.007582  d :    -0.008604
      dxz     :     0.019630
      dyz     :    -0.004125
      dx2y2   :     0.005029
      dxy     :    -0.021555
      f0      :     0.001536  f :     0.009452
      f+1     :     0.001006
      f-1     :     0.001862
      f+2     :     0.001078
      f-2     :     0.001434
      f+3     :     0.001398
      f-3     :     0.001138
  5 C s       :     3.437970  s :     3.437970
      pz      :     1.063048  p :     2.889744
      px      :     0.987289
      py      :     0.839406
      dz2     :     0.002992  d :     0.047841
      dxz     :     0.014781
      dyz     :    -0.004276
      dx2y2   :     0.018982
      dxy     :     0.015362
      f0      :     0.001554  f :     0.009617
      f+1     :     0.000833
      f-1     :     0.002102
      f+2     :     0.001458
      f-2     :     0.001626
      f+3     :     0.001009
      f-3     :     0.001036
  6 C s       :     3.158456  s :     3.158456
      pz      :     0.859943  p :     2.736682
      px      :     1.008724
      py      :     0.868015
      dz2     :    -0.001663  d :    -0.022076
      dxz     :     0.014843
      dyz     :    -0.013203
      dx2y2   :    -0.008313
      dxy     :    -0.013742
      f0      :     0.001507  f :     0.008933
      f+1     :     0.000719
      f-1     :     0.001953
      f+2     :     0.001328
      f-2     :     0.001189
      f+3     :     0.001022
      f-3     :     0.001215
  7 H s       :     0.785399  s :     0.785399
      pz      :     0.018842  p :     0.057764
      px      :     0.019878
      py      :     0.019044
      dz2     :     0.000508  d :     0.001886
      dxz     :     0.000242
      dyz     :     0.000311
      dx2y2   :     0.000517
      dxy     :     0.000310
  8 H s       :     0.786006  s :     0.786006
      pz      :     0.012419  p :     0.051784
      px      :     0.029899
      py      :     0.009466
      dz2     :     0.000085  d :     0.001845
      dxz     :     0.000715
      dyz     :     0.000136
      dx2y2   :     0.000425
      dxy     :     0.000483
  9 H s       :     0.819657  s :     0.819657
      pz      :     0.017852  p :     0.060830
      px      :     0.019586
      py      :     0.023392
      dz2     :     0.000522  d :     0.001885
      dxz     :     0.000215
      dyz     :     0.000326
      dx2y2   :     0.000302
      dxy     :     0.000520
 10 H s       :     0.927914  s :     0.927914
      pz      :     0.017908  p :     0.043174
      px      :     0.020370
      py      :     0.004896
      dz2     :     0.000393  d :     0.001898
      dxz     :     0.000615
      dyz     :     0.000842
      dx2y2   :     0.000023
      dxy     :     0.000024
 11 H s       :     0.934999  s :     0.934999
      pz      :     0.007956  p :     0.035814
      px      :     0.018443
      py      :     0.009414
      dz2     :     0.000234  d :     0.001870
      dxz     :     0.000104
      dyz     :     0.000625
      dx2y2   :     0.000403
      dxy     :     0.000503
 12 H s       :     0.911195  s :     0.911195
      pz      :     0.011971  p :     0.036405
      px      :     0.017202
      py      :     0.007232
      dz2     :     0.000666  d :     0.001862
      dxz     :     0.000404
      dyz     :     0.000346
      dx2y2   :     0.000228
      dxy     :     0.000219
 13 H s       :     0.914507  s :     0.914507
      pz      :     0.012050  p :     0.041341
      px      :     0.018514
      py      :     0.010777
      dz2     :     0.000652  d :     0.001846
      dxz     :     0.000346
      dyz     :     0.000352
      dx2y2   :     0.000237
      dxy     :     0.000259
 14 H s       :     0.893230  s :     0.893230
      pz      :     0.009511  p :     0.016988
      px      :     0.004236
      py      :     0.003240
      dz2     :     0.000305  d :     0.001898
      dxz     :     0.000087
      dyz     :     0.000596
      dx2y2   :     0.000325
      dxy     :     0.000585
 15 C s       :     3.121072  s :     3.121072
      pz      :     1.043053  p :     3.290057
      px      :     1.091436
      py      :     1.155568
      dz2     :     0.021626  d :     0.074853
      dxz     :     0.009484
      dyz     :     0.019522
      dx2y2   :     0.006027
      dxy     :     0.018193
      f0      :     0.000081  f :     0.002146
      f+1     :     0.000454
      f-1     :     0.000611
      f+2     :     0.000171
      f-2     :     0.000179
      f+3     :     0.000520
      f-3     :     0.000129
 16 H s       :     0.882021  s :     0.882021
      pz      :     0.034231  p :     0.030798
      px      :     0.007338
      py      :    -0.010771
      dz2     :     0.000589  d :     0.002982
      dxz     :     0.000535
      dyz     :     0.000786
      dx2y2   :     0.000498
      dxy     :     0.000573
 17 H s       :     0.832580  s :     0.832580
      pz      :     0.012329  p :     0.057426
      px      :     0.013305
      py      :     0.031792
      dz2     :     0.000109  d :     0.001850
      dxz     :     0.000059
      dyz     :     0.000667
      dx2y2   :     0.000519
      dxy     :     0.000496
 18 H s       :     0.803607  s :     0.803607
      pz      :     0.017958  p :     0.027096
      px      :    -0.001281
      py      :     0.010419
      dz2     :     0.000451  d :     0.001726
      dxz     :     0.000483
      dyz     :     0.000434
      dx2y2   :     0.000220
      dxy     :     0.000138
 19 H s       :     0.807943  s :     0.807943
      pz      :     0.003519  p :     0.042016
      px      :     0.022978
      py      :     0.015518
      dz2     :     0.000148  d :     0.001810
      dxz     :     0.000639
      dyz     :     0.000030
      dx2y2   :     0.000298
      dxy     :     0.000695
 20 P s       :     5.523115  s :     5.523115
      pz      :     2.925705  p :     9.004213
      px      :     3.065601
      py      :     3.012907
      dz2     :     0.023133  d :     0.305300
      dxz     :     0.121280
      dyz     :     0.050036
      dx2y2   :     0.075505
      dxy     :     0.035345
      f0      :     0.002210  f :     0.024121
      f+1     :     0.004468
      f-1     :     0.001920
      f+2     :     0.004033
      f-2     :     0.003914
      f+3     :     0.004240
      f-3     :     0.003336
 21 H s       :     0.948480  s :     0.948480
      pz      :     0.005011  p :     0.013984
      px      :    -0.001540
      py      :     0.010513
      dz2     :     0.000167  d :     0.001262
      dxz     :     0.000092
      dyz     :     0.000349
      dx2y2   :     0.000303
      dxy     :     0.000352
 22 H s       :     0.936331  s :     0.936331
      pz      :     0.007625  p :     0.016295
      px      :     0.006680
      py      :     0.001991
      dz2     :     0.000352  d :     0.001302
      dxz     :     0.000388
      dyz     :     0.000269
      dx2y2   :     0.000126
      dxy     :     0.000166
 23 H s       :     0.944040  s :     0.944040
      pz      :     0.004935  p :     0.015669
      px      :     0.008959
      py      :     0.001776
      dz2     :     0.000319  d :     0.001272
      dxz     :     0.000320
      dyz     :     0.000208
      dx2y2   :     0.000190
      dxy     :     0.000235


                     *******************************
                     * LOEWDIN POPULATION ANALYSIS *
                     *******************************

----------------------
LOEWDIN ATOMIC CHARGES
----------------------
   0 Ir:    0.935692
   1 C :   -0.026941
   2 C :   -0.046229
   3 C :   -0.058768
   4 C :   -0.098539
   5 C :   -0.053448
   6 C :   -0.046662
   7 H :   -0.082276
   8 H :   -0.095562
   9 H :   -0.087946
  10 H :    0.030136
  11 H :    0.022618
  12 H :    0.023388
  13 H :    0.017089
  14 H :    0.019180
  15 C :    0.254886
  16 H :   -0.144461
  17 H :   -0.019002
  18 H :   -0.059929
  19 H :   -0.030633
  20 P :    0.929985
  21 H :   -0.131863
  22 H :   -0.120303
  23 H :   -0.130410

-------------------------------
LOEWDIN REDUCED ORBITAL CHARGES
-------------------------------
  0 Irs       :     1.993298  s :     1.993298
      pz      :     2.128112  p :     6.389716
      px      :     2.150390
      py      :     2.111214
      dz2     :     1.573860  d :     7.506906
      dxz     :     1.358436
      dyz     :     1.766159
      dx2y2   :     1.634304
      dxy     :     1.174146
      f0      :     0.019815  f :     0.169068
      f+1     :     0.028345
      f-1     :     0.017941
      f+2     :     0.021489
      f-2     :     0.020576
      f+3     :     0.027572
      f-3     :     0.033331
      g0      :     0.000504  g :     0.005320
      g+1     :     0.000861
      g-1     :     0.000293
      g+2     :     0.000462
      g-2     :     0.000527
      g+3     :     0.000443
      g-3     :     0.000588
      g+4     :     0.000797
      g-4     :     0.000843
  1 C s       :     2.704613  s :     2.704613
      pz      :     0.906378  p :     2.811419
      px      :     0.941925
      py      :     0.963116
      dz2     :     0.095638  d :     0.487431
      dxz     :     0.083851
      dyz     :     0.150691
      dx2y2   :     0.083216
      dxy     :     0.074035
      f0      :     0.003881  f :     0.023478
      f+1     :     0.003677
      f-1     :     0.002270
      f+2     :     0.003944
      f-2     :     0.003819
      f+3     :     0.002162
      f-3     :     0.003725
  2 C s       :     2.644105  s :     2.644105
      pz      :     0.918558  p :     2.574890
      px      :     0.727392
      py      :     0.928941
      dz2     :     0.161985  d :     0.776889
      dxz     :     0.122429
      dyz     :     0.243019
      dx2y2   :     0.131967
      dxy     :     0.117489
      f0      :     0.011764  f :     0.050345
      f+1     :     0.007670
      f-1     :     0.008742
      f+2     :     0.007478
      f-2     :     0.003639
      f+3     :     0.004937
      f-3     :     0.006116
  3 C s       :     2.644788  s :     2.644788
      pz      :     0.915964  p :     2.584248
      px      :     0.745437
      py      :     0.922846
      dz2     :     0.162876  d :     0.778715
      dxz     :     0.122364
      dyz     :     0.247827
      dx2y2   :     0.124237
      dxy     :     0.121411
      f0      :     0.011862  f :     0.051018
      f+1     :     0.008470
      f-1     :     0.009058
      f+2     :     0.006726
      f-2     :     0.003512
      f+3     :     0.006517
      f-3     :     0.004874
  4 C s       :     2.641521  s :     2.641521
      pz      :     0.904328  p :     2.583183
      px      :     0.762168
      py      :     0.916688
      dz2     :     0.204932  d :     0.821458
      dxz     :     0.157401
      dyz     :     0.204537
      dx2y2   :     0.140671
      dxy     :     0.113917
      f0      :     0.008735  f :     0.052377
      f+1     :     0.005809
      f-1     :     0.012684
      f+2     :     0.005697
      f-2     :     0.008332
      f+3     :     0.006011
      f-3     :     0.005108
  5 C s       :     2.641221  s :     2.641221
      pz      :     0.942999  p :     2.553813
      px      :     0.705645
      py      :     0.905170
      dz2     :     0.209170  d :     0.804260
      dxz     :     0.098751
      dyz     :     0.176367
      dx2y2   :     0.165864
      dxy     :     0.154107
      f0      :     0.006604  f :     0.054154
      f+1     :     0.003164
      f-1     :     0.014844
      f+2     :     0.009353
      f-2     :     0.010112
      f+3     :     0.005080
      f-3     :     0.004996
  6 C s       :     2.641135  s :     2.641135
      pz      :     0.905932  p :     2.593935
      px      :     0.751119
      py      :     0.936884
      dz2     :     0.209244  d :     0.761575
      dxz     :     0.142136
      dyz     :     0.194774
      dx2y2   :     0.122635
      dxy     :     0.092785
      f0      :     0.008832  f :     0.050018
      f+1     :     0.004043
      f-1     :     0.012957
      f+2     :     0.008237
      f-2     :     0.006938
      f+3     :     0.004100
      f-3     :     0.004910
  7 H s       :     0.726745  s :     0.726745
      pz      :     0.108877  p :     0.325296
      px      :     0.103868
      py      :     0.112550
      dz2     :     0.005981  d :     0.030235
      dxz     :     0.004778
      dyz     :     0.006428
      dx2y2   :     0.007393
      dxy     :     0.005656
  8 H s       :     0.724155  s :     0.724155
      pz      :     0.099340  p :     0.341103
      px      :     0.142272
      py      :     0.099491
      dz2     :     0.002685  d :     0.030304
      dxz     :     0.008511
      dyz     :     0.001347
      dx2y2   :     0.008722
      dxy     :     0.009040
  9 H s       :     0.726996  s :     0.726996
      pz      :     0.114829  p :     0.330729
      px      :     0.088053
      py      :     0.127848
      dz2     :     0.006069  d :     0.030220
      dxz     :     0.002714
      dyz     :     0.008516
      dx2y2   :     0.005688
      dxy     :     0.007233
 10 H s       :     0.689824  s :     0.689824
      pz      :     0.126013  p :     0.251352
      px      :     0.066954
      py      :     0.058385
      dz2     :     0.012347  d :     0.028687
      dxz     :     0.007630
      dyz     :     0.008460
      dx2y2   :     0.000140
      dxy     :     0.000110
 11 H s       :     0.697387  s :     0.697387
      pz      :     0.061718  p :     0.251051
      px      :     0.074175
      py      :     0.115159
      dz2     :     0.003637  d :     0.028944
      dxz     :     0.001243
      dyz     :     0.007979
      dx2y2   :     0.008335
      dxy     :     0.007750
 12 H s       :     0.697461  s :     0.697461
      pz      :     0.103073  p :     0.250600
      px      :     0.068025
      py      :     0.079502
      dz2     :     0.008780  d :     0.028552
      dxz     :     0.005280
      dyz     :     0.008991
      dx2y2   :     0.002885
      dxy     :     0.002615
 13 H s       :     0.698023  s :     0.698023
      pz      :     0.100155  p :     0.256206
      px      :     0.075854
      py      :     0.080198
      dz2     :     0.008338  d :     0.028681
      dxz     :     0.005407
      dyz     :     0.008667
      dx2y2   :     0.003025
      dxy     :     0.003244
 14 H s       :     0.698149  s :     0.698149
      pz      :     0.064991  p :     0.253638
      px      :     0.072040
      py      :     0.116607
      dz2     :     0.003978  d :     0.029033
      dxz     :     0.001103
      dyz     :     0.008521
      dx2y2   :     0.007738
      dxy     :     0.007692
 15 C s       :     2.646981  s :     2.646981
      pz      :     0.892469  p :     2.726840
      px      :     0.918705
      py      :     0.915667
      dz2     :     0.078969  d :     0.350950
      dxz     :     0.049773
      dyz     :     0.061776
      dx2y2   :     0.106147
      dxy     :     0.054286
      f0      :     0.001361  f :     0.020343
      f+1     :     0.004610
      f-1     :     0.004718
      f+2     :     0.000979
      f-2     :     0.002864
      f+3     :     0.004416
      f-3     :     0.001395
 16 H s       :     0.646678  s :     0.646678
      pz      :     0.170260  p :     0.466910
      px      :     0.135958
      py      :     0.160692
      dz2     :     0.007416  d :     0.030873
      dxz     :     0.006703
      dyz     :     0.007908
      dx2y2   :     0.004657
      dxy     :     0.004189
 17 H s       :     0.701023  s :     0.701023
      pz      :     0.076228  p :     0.288683
      px      :     0.083008
      py      :     0.129447
      dz2     :     0.002714  d :     0.029296
      dxz     :     0.000911
      dyz     :     0.008742
      dx2y2   :     0.008622
      dxy     :     0.008308
 18 H s       :     0.702395  s :     0.702395
      pz      :     0.121080  p :     0.327756
      px      :     0.091472
      py      :     0.115204
      dz2     :     0.008931  d :     0.029778
      dxz     :     0.007350
      dyz     :     0.008411
      dx2y2   :     0.003004
      dxy     :     0.002082
 19 H s       :     0.706448  s :     0.706448
      pz      :     0.077605  p :     0.294819
      px      :     0.133931
      py      :     0.083283
      dz2     :     0.003080  d :     0.029366
      dxz     :     0.009033
      dyz     :     0.000372
      dx2y2   :     0.007740
      dxy     :     0.009141
 20 P s       :     4.737664  s :     4.737664
      pz      :     2.813977  p :     8.573072
      px      :     2.901739
      py      :     2.857356
      dz2     :     0.061228  d :     0.695747
      dxz     :     0.241359
      dyz     :     0.120563
      dx2y2   :     0.178689
      dxy     :     0.093908
      f0      :     0.006116  f :     0.063532
      f+1     :     0.011227
      f-1     :     0.005334
      f+2     :     0.010327
      f-2     :     0.009776
      f+3     :     0.011123
      f-3     :     0.009630
 21 H s       :     0.847241  s :     0.847241
      pz      :     0.069347  p :     0.272649
      px      :     0.065728
      py      :     0.137574
      dz2     :     0.001412  d :     0.011973
      dxz     :     0.000588
      dyz     :     0.003525
      dx2y2   :     0.003890
      dxy     :     0.002556
 22 H s       :     0.831763  s :     0.831763
      pz      :     0.114520  p :     0.276397
      px      :     0.097919
      py      :     0.063958
      dz2     :     0.002586  d :     0.012143
      dxz     :     0.004656
      dyz     :     0.002119
      dx2y2   :     0.001318
      dxy     :     0.001464
 23 H s       :     0.843681  s :     0.843681
      pz      :     0.097614  p :     0.274720
      px      :     0.103940
      py      :     0.073166
      dz2     :     0.002215  d :     0.012010
      dxz     :     0.004273
      dyz     :     0.001736
      dx2y2   :     0.001972
      dxy     :     0.001815


                      *****************************
                      * MAYER POPULATION ANALYSIS *
                      *****************************

  NA   - Mulliken gross atomic population
  ZA   - Total nuclear charge
  QA   - Mulliken gross atomic charge
  VA   - Mayer's total valence
  BVA  - Mayer's bonded valence
  FA   - Mayer's free valence

  ATOM       NA         ZA         QA         VA         BVA        FA
  0 Ir    16.3491    17.0000     0.6509     4.1268     4.1268    -0.0000
  1 C      6.6464     6.0000    -0.6464     3.8109     3.8109     0.0000
  2 C      6.0081     6.0000    -0.0081     3.4830     3.4830    -0.0000
  3 C      6.1143     6.0000    -0.1143     3.4885     3.4885     0.0000
  4 C      5.5676     6.0000     0.4324     2.8531     2.8531    -0.0000
  5 C      6.3852     6.0000    -0.3852     3.7933     3.7933     0.0000
  6 C      5.8820     6.0000     0.1180     3.2162     3.2162     0.0000
  7 H      0.8450     1.0000     0.1550     1.0818     1.0818    -0.0000
  8 H      0.8396     1.0000     0.1604     1.1112     1.1112     0.0000
  9 H      0.8824     1.0000     0.1176     1.1246     1.1246     0.0000
 10 H      0.9730     1.0000     0.0270     1.0101     1.0101     0.0000
 11 H      0.9727     1.0000     0.0273     1.0011     1.0011     0.0000
 12 H      0.9495     1.0000     0.0505     0.9956     0.9956    -0.0000
 13 H      0.9577     1.0000     0.0423     1.0104     1.0104     0.0000
 14 H      0.9121     1.0000     0.0879     0.9385     0.9385    -0.0000
 15 C      6.4881     6.0000    -0.4881     4.0677     4.0677     0.0000
 16 H      0.9158     1.0000     0.0842     0.9082     0.9082    -0.0000
 17 H      0.8919     1.0000     0.1081     1.1020     1.1020     0.0000
 18 H      0.8324     1.0000     0.1676     0.9838     0.9838     0.0000
 19 H      0.8518     1.0000     0.1482     1.0186     1.0186     0.0000
 20 P     14.8567    15.0000     0.1433     3.9252     3.9252     0.0000
 21 H      0.9637     1.0000     0.0363     0.9584     0.9584     0.0000
 22 H      0.9539     1.0000     0.0461     0.9671     0.9671    -0.0000
 23 H      0.9610     1.0000     0.0390     0.9663     0.9663    -0.0000

  Mayer bond orders larger than 0.100000
B(  0-Ir,  1-C ) :   0.5950 B(  0-Ir,  2-C ) :   0.4423 B(  0-Ir,  3-C ) :   0.4040 
B(  0-Ir,  4-C ) :   0.5050 B(  0-Ir,  5-C ) :   0.5612 B(  0-Ir,  6-C ) :   0.3824 
B(  0-Ir, 15-C ) :   0.1062 B(  0-Ir, 16-H ) :   0.1187 B(  0-Ir, 20-P ) :   0.9431 
B(  1-C ,  5-C ) :   0.1242 B(  1-C ,  7-H ) :   0.9994 B(  1-C ,  8-H ) :   0.9798 
B(  1-C ,  9-H ) :   1.0400 B(  2-C ,  3-C ) :   1.3645 B(  2-C ,  4-C ) :  -0.2762 
B(  2-C ,  6-C ) :   1.0204 B(  2-C , 12-H ) :   0.9799 B(  3-C ,  4-C ) :   1.0096 
B(  3-C ,  6-C ) :  -0.2408 B(  3-C , 13-H ) :   1.0108 B(  4-C ,  5-C ) :   0.9666 
B(  4-C ,  6-C ) :  -0.2741 B(  4-C , 14-H ) :   0.9375 B(  5-C ,  6-C ) :   1.3002 
B(  5-C , 10-H ) :   0.9666 B(  6-C , 11-H ) :   0.9832 B( 15-C , 16-H ) :   0.8426 
B( 15-C , 17-H ) :   1.0468 B( 15-C , 18-H ) :   0.9525 B( 15-C , 19-H ) :   0.9983 
B( 20-P , 21-H ) :   0.9604 B( 20-P , 22-H ) :   0.9578 B( 20-P , 23-H ) :   0.9573 


-------
TIMINGS
-------

Total SCF time: 0 days 0 hours 0 min 48 sec 

Total time                  ....      48.179 sec
Sum of individual times     ....      47.526 sec  ( 98.6%)

Fock matrix formation       ....      41.650 sec  ( 86.4%)
  XC integration            ....       6.030 sec  ( 14.5% of F)
    Basis function eval.    ....       1.022 sec  ( 16.9% of XC)
    Density eval.           ....       1.826 sec  ( 30.3% of XC)
    XC-Functional eval.     ....       0.073 sec  (  1.2% of XC)
    XC-Potential eval.      ....       2.184 sec  ( 36.2% of XC)
Diagonalization             ....       1.990 sec  (  4.1%)
Density matrix formation    ....       0.140 sec  (  0.3%)
Population analysis         ....       0.086 sec  (  0.2%)
Initial guess               ....       1.674 sec  (  3.5%)
Orbital Transformation      ....       0.000 sec  (  0.0%)
Orbital Orthonormalization  ....       0.000 sec  (  0.0%)
DIIS solution               ....       1.306 sec  (  2.7%)
Grid generation             ....       0.680 sec  (  1.4%)


           ************************************************************
           *        Program running with 24 parallel MPI-processes    *
           *              working on a common directory               *
           ************************************************************

------------------------------------------------------------------------------
                                ORCA  MP2 
------------------------------------------------------------------------------

Freezing NCore=24 chemical core electrons

-------------
RI-MP2 ENERGY
-------------
Dimension of the basis                    ...  621
Memory devoted to MP2                     ... 5000 MB   
Data format for buffers                   ... DOUBLE
Compression type for matrix containers    ... UNCOMPRESSED
Overall scaling of the MP2 energy         ...   2.700e-01
Calculating two index integrals           ... done (    0.019 sec)
Cholesky decomposition of V**-1           ... done (    0.229 sec)

-----------------
RI-TRANSFORMATION (AUX index driven)
-----------------

Dimension of the orbital-basis         ... 621
Dimension of the aux-basis             ... 1561
Transformation of internal/external MOs...   12-  43 to   44- 620
Number Format for Storage              ... Double (8 Byte)
Integral mode                          ... Direct

First Phase: integral generation and transformation of MO indices
  Aux angular momentum 0               ... done (    0.073 sec)
  Aux angular momentum 1               ... done (    0.147 sec)
  Aux angular momentum 2               ... done (    0.178 sec)
  Aux angular momentum 3               ... done (    0.179 sec)
  Aux angular momentum 4               ... done (    0.073 sec)
  Aux angular momentum 5               ... done (    0.095 sec)
  Aux angular momentum 6               ... done (    0.123 sec)
Closing buffer VIA ( 0.21 GB; CompressionRatio= 1.00)
  Phase 1 completed in     0.966 sec
Second Phase: sorting and transformation of aux index

IA-Transformation
Memory available                       ... 4951 MB 
Max. # MO pairs treated in a batch     ... 2    
# of internal orbitals                 ... 32
# batches for internal orbitals        ... 1
Closing buffer IAV ( 0.01 GB; CompressionRatio= 1.00)
(ia|v) transformation done in     0.170 sec

  Phase 2 completed in     0.367 sec
RI-Integral transformation completed in     1.343 sec
Opening buffers                              ... done

Starting loop over batches of integrals:

Operator 0  - window                       ... ( 12- 43)x( 44-620)
Operator 0  - Memory available             ...  5000 MB
Operator 0  - Memory needed per MO         ...   6.9 MB
Operator 0  - Number of orbitals per batch ... 2
Operator 0  - Number of batches            ... 1

OPERATOR  0   PASS   0:  MOs    12 ...   13 +   14 ...   15 +   16 ...   17 +   18 ...   19
                            +   20 ...   21 +   22 ...   23 +   24 ...   25 +   26 ...   27
                            +   28 ...   29 +   30 ...   31 +   32 ...   33 +   34 ...   35
                            +   36 ...   37 +   38 ...   39 +   40 ...   41 +   42 ...   43
  Reading integrals       ... ok
Time spent in pair loops =     0.086 sec
Deleting buffer (Ka|jb)[aa] ...done

-----------------------------------------------
 RI-MP2 CORRELATION ENERGY:     -0.673053483 Eh
-----------------------------------------------


-------
TIMINGS
-------

Total time                :    3.063 sec
Integral trafo            :    1.356 sec ( 44.3%)
I/O of integrals          :    0.010 sec (  0.3%)
K(i,j) Operators          :    0.053 sec (  1.7%)
T(i,j) pair energies      :    0.012 sec (  0.4%)
V-calculation             :    0.019 sec (  0.6%)
V**(-1/2)                 :    0.229 sec (  7.5%)
Gamma(ia|P)               :    0.000 sec (  0.0%)
Gamma-Trafo               :    0.000 sec (  0.0%)
D(virtual)                :    0.000 sec (  0.0%)
D(internal)               :    0.000 sec (  0.0%)
W(virtual)                :    0.000 sec (  0.0%)
W(internal)               :    0.000 sec (  0.0%)
L(virtual)                :    0.000 sec (  0.0%)
L(internal)               :    0.000 sec (  0.0%)
G(D)                      :    0.000 sec (  0.0%)
G(Z)                      :    0.000 sec (  0.0%)
Z-Vector Solution         :    0.000 sec (  0.0%)
Z-Vector Solution         :    0.000 sec (  0.0%)
3-Index Derivative 
+ Separable RIJ part      :    0.000 sec (  0.0%)
2-Index Derivative 
+ Separable RIJ part      :    0.000 sec (  0.0%)
Separable Gradient (X)    :    0.000 sec (  0.0%)


---------------------------------------
MP2 TOTAL ENERGY:     -720.879198470 Eh
---------------------------------------


-------------------------------------------------------------------------------
                          DFT DISPERSION CORRECTION                            
                                                                               
                              DFTD3 V3.1  Rev 1                                
                          USING Becke-Johnson damping                          
-------------------------------------------------------------------------------
The B2PLYP functional is recognized
Active option DFTDOPT                   ...         4   

molecular C6(AA) [au] = 7344.858850 


            DFT-D V3
 parameters
 s6 scaling factor         :     0.6400 
 a1 scaling factor         :     0.3065 
 s8 scaling factor         :     0.9147 
 a2 scaling factor         :     5.0570 
 ad hoc parameters k1-k3   :    16.0000     1.3333    -4.0000 

 Edisp/kcal,au: -16.680863580548  -0.026582645347 
 E6   /kcal   :  -8.395883084 
 E8   /kcal   :  -8.284980497 
 % E8         :  49.667575403 

-------------------------   ----------------
Dispersion correction           -0.026582645
-------------------------   ----------------


-------------------------   --------------------
FINAL SINGLE POINT ENERGY      -720.905781115780
-------------------------   --------------------


                            ***************************************
                            *     ORCA property calculations      *
                            ***************************************


  WARNING: The energy has been calculated at the MP2 level but the densities
           used in the property calculations are still SCF densities
           MP2 response densities have not been calculated 
           use %mp2 Density relaxed end
           or  %mp2 Density unrelaxed end

                                    ---------------------
                                    Active property flags
                                    ---------------------
   (+) Dipole Moment


------------------------------------------------------------------------------
                       ORCA ELECTRIC PROPERTIES CALCULATION
------------------------------------------------------------------------------

Dipole Moment Calculation                       ... on
Quadrupole Moment Calculation                   ... off
Polarizability Calculation                      ... off
GBWName                                         ... TMB31_C1.gbw
Electron density file                           ... TMB31_C1.scfp
The origin for moment calculation is the CENTER OF MASS  = ( 0.021896, -0.007590  0.007804)

-------------
DIPOLE MOMENT
-------------
                                X             Y             Z
Electronic contribution:     -2.91412      10.00870       7.24885
Nuclear contribution   :      2.66689     -10.24599      -8.00272
                        -----------------------------------------
Total Dipole Moment    :     -0.24723      -0.23729      -0.75387
                        -----------------------------------------
Magnitude (a.u.)       :      0.82810
Magnitude (Debye)      :      2.10487



--------------------
Rotational spectrum 
--------------------
 
Rotational constants in cm-1:     0.050543     0.032436     0.029954 
Rotational constants in MHz :  1515.232111   972.406510   898.012536 

 Dipole components along the rotational axes: 
x,y,z [a.u.] :    -0.253174    -0.279992    -0.737061 
x,y,z [Debye]:    -0.643517    -0.711683    -1.873461 

 

Timings for individual modules:

Sum of individual times         ...       55.256 sec (=   0.921 min)
GTO integral calculation        ...        3.063 sec (=   0.051 min)   5.5 %
SCF iterations                  ...       48.544 sec (=   0.809 min)  87.9 %
MP2 module                      ...        3.648 sec (=   0.061 min)   6.6 %
                             ****ORCA TERMINATED NORMALLY****
TOTAL RUN TIME: 0 days 0 hours 0 minutes 55 seconds 828 msec
