
                                 *****************
                                 * O   R   C   A *
                                 *****************

           --- An Ab Initio, DFT and Semiempirical electronic structure package ---

                  #######################################################
                  #                        -***-                        #
                  #          Department of theory and spectroscopy      #
                  #               Directorship: Frank Neese             #
                  #        Max Planck Institute fuer Kohlenforschung    #
                  #                Kaiser Wilhelm Platz 1               #
                  #                 D-45470 Muelheim/Ruhr               #
                  #                      Germany                        #
                  #                                                     #
                  #                  All rights reserved                #
                  #                        -***-                        #
                  #######################################################


                         Program Version 4.2.0 -  RELEASE  -


 With contributions from (in alphabetic order):
   Daniel Aravena         : Magnetic Suceptibility
   Michael Atanasov       : Ab Initio Ligand Field Theory (pilot matlab implementation)
   Alexander A. Auer      : GIAO ZORA, VPT2
   Ute Becker             : Parallelization
   Giovanni Bistoni       : ED, misc. LED, open-shell LED, HFLED
   Martin Brehm           : Molecular dynamics
   Dmytro Bykov           : SCF Hessian
   Vijay G. Chilkuri      : MRCI spin determinant printing, contributions to CSF-ICE
   Dipayan Datta          : RHF DLPNO-CCSD density
   Achintya Kumar Dutta   : EOM-CC, STEOM-CC
   Dmitry Ganyushin       : Spin-Orbit,Spin-Spin,Magnetic field MRCI
   Miquel Garcia          : C-PCM Hessian, Gaussian charge scheme
   Yang Guo               : DLPNO-NEVPT2, CIM, IAO-localization
   Andreas Hansen         : Spin unrestricted coupled pair/coupled cluster methods
   Benjamin Helmich-Paris : CASSCF linear response (MC-RPA)
   Lee Huntington         : MR-EOM, pCC
   Robert Izsak           : Overlap fitted RIJCOSX, COSX-SCS-MP3, EOM
   Christian Kollmar      : KDIIS, OOCD, Brueckner-CCSD(T), CCSD density
   Simone Kossmann        : Meta GGA functionals, TD-DFT gradient, OOMP2, MP2 Hessian
   Martin Krupicka        : AUTO-CI
   Lucas Lang             : DCDCAS
   Dagmar Lenk            : GEPOL surface, SMD
   Dimitrios Liakos       : Extrapolation schemes; Compound Job, initial MDCI parallelization
   Dimitrios Manganas     : Further ROCIS development; embedding schemes
   Dimitrios Pantazis     : SARC Basis sets
   Taras Petrenko         : DFT Hessian,TD-DFT gradient, ASA, ECA, R-Raman, ABS, FL, XAS/XES, NRVS
   Peter Pinski           : DLPNO-MP2, DLPNO-MP2 Gradient
   Christoph Reimann      : Effective Core Potentials
   Marius Retegan         : Local ZFS, SOC
   Christoph Riplinger    : Optimizer, TS searches, QM/MM, DLPNO-CCSD(T), (RO)-DLPNO pert. Triples
   Tobias Risthaus        : Range-separated hybrids, TD-DFT gradient, RPA, STAB
   Michael Roemelt        : Original ROCIS implementation
   Masaaki Saitow         : Open-shell DLPNO-CCSD energy and density
   Barbara Sandhoefer     : DKH picture change effects
   Avijit Sen             : IP-ROCIS
   Kantharuban Sivalingam : CASSCF convergence, NEVPT2, FIC-MRCI
   Bernardo de Souza      : ESD, SOC TD-DFT
   Georgi Stoychev        : AutoAux, RI-MP2 NMR
   Willem Van den Heuvel  : Paramagnetic NMR
   Boris Wezisla          : Elementary symmetry handling
   Frank Wennmohs         : Technical directorship


 We gratefully acknowledge several colleagues who have allowed us to
 interface, adapt or use parts of their codes:
   Stefan Grimme, W. Hujo, H. Kruse,             : VdW corrections, initial TS optimization,
                  C. Bannwarth                     DFT functionals, gCP, sTDA/sTD-DF
   Ed Valeev, F. Pavosevic, A. Kumar             : LibInt (2-el integral package), F12 methods
   Garnet Chan, S. Sharma, J. Yang, R. Olivares  : DMRG
   Ulf Ekstrom                                   : XCFun DFT Library
   Mihaly Kallay                                 : mrcc  (arbitrary order and MRCC methods)
   Andreas Klamt, Michael Diedenhofen            : otool_cosmo (COSMO solvation model)
   Jiri Pittner, Ondrej Demel                    : Mk-CCSD
   Frank Weinhold                                : gennbo (NPA and NBO analysis)
   Christopher J. Cramer and Donald G. Truhlar   : smd solvation model
   Lars Goerigk                                  : TD-DFT with DH, B97 family of functionals
   V. Asgeirsson, H. Jonsson                     : NEB implementation
   FAccTs GmbH                                   : IRC, NEB, NEB-TS, Multilevel, MM, QM/MM, CI optimization
   S Lehtola, MJT Oliveira, MAL Marques          : LibXC Library


 Your calculation uses the libint2 library for the computation of 2-el integrals
 For citations please refer to: http://libint.valeyev.net

 Your ORCA version has been built with support for libXC version: 4.2.3
 For citations please refer to: https://tddft.org/programs/libxc/

 This ORCA versions uses:
   CBLAS   interface :  Fast vector & matrix operations
   LAPACKE interface :  Fast linear algebra routines
   SCALAPACK package :  Parallel linear algebra routines


Your calculation utilizes the atom-pairwise dispersion correction
with the Becke-Johnson damping scheme (D3BJ)
Cite in your paper:
S.Grimme, S.Ehrlich, L.Goerigk, J Comput Chem, (2011), 32, 1456–1465 
S.Grimme, J.Antony, S.Ehrlich and H.Krieg, J.Chem.Phys., 132, (2010), 154104 
   

----- Orbital basis set information -----
Your calculation utilizes the basis: def2-TZVPPD
   F. Weigend and R. Ahlrichs, Phys. Chem. Chem. Phys. 7, 3297 (2005).
   D. Rappoport and F. Furche, J. Chem. Phys. 133 134105 (2010).

----- AuxC basis set information -----
Your calculation utilizes the auxiliary basis: def2-TZVPPD/C
   A. Hellweg, C. Hattig, S. Hofener and W. Klopper, Theor. Chem. Acc. 117, 587 (2007).

----- AuxJK basis set information -----
Your calculation utilizes the auxiliary basis: def2/JK
   H-Ba, Hf-Rn: F. Weigend, J. Comput. Chem. 29, 167 (2008).

cite the ECPs for Ir [Def2-ECP] as follows:
Ce-Yb(ecp-28): M. Dolg, H. Stoll, H.Preuss, J. Chem. Phys., 1989, 90, 1730-1734.
Y-Cd(ecp-28), Hf-Hg(ecp-46): D. Andrae,U. Haeussermann, M. Dolg, H. Stoll, H. Preuss, Theor. Chim. Acta, 1990, 77, 123-141.
In-Sb(ecp-28), Tl-Bi(ecp-46): B. Metz, H. Stoll, M. Dolg, J. Chem. Phys., 2000, 113, 2563-2569.
Te-Xe(ecp-28), Po-Rn(ecp-46): K. A. Peterson, D. Figgen, E. Goll, H. Stoll, M. Dolg, J. Chem. Phys., 2003, 119, 11113-11123.
Rb(ecp-28), Cs(ecp-46): T. Leininger, A. Nicklass, W. Kuechle, H. Stoll, M. Dolg, A. Bergner, Chem. Phys. Lett., 1996, 255, 274-280.
Sr(ecp-28), Ba(ecp-46): M. Kaupp, P. V. Schleyer, H. Stoll and H. Preuss, J. Chem. Phys., 1991, 94, 1360-1366.
La(ecp-46): M. Dolg, H. Stoll, A. Savin, H. Preuss, Theor. Chim. Acta, 1989, 75, 173-194.
Lu(ecp-28): X. Cao, M. Dolg, J. Chem. Phys., 2001, 115, 7348-7355.

ECP parameters for Ir [Def2-ECP] have been obtained from:
TURBOMOLE (7.0.2)

================================================================================
                                        WARNINGS
                       Please study these warnings very carefully!
================================================================================


WARNING: No MP2 level density has been requested!
         To caclulate MP2 level properties use
         %mp2 Density relaxed end
         or
         %mp2 Density unrelaxed end
         Otherwise for double-hybrid DFT only the energy is correct!

WARNING: The frozen-core approximation is turned on by default for 
         the MP2 part of double-hybrid DFT.

INFO   : the flag for use of LIBINT has been found!

================================================================================
                                       INPUT FILE
================================================================================
NAME = TMB31_T1.in
|  1> #
|  2> # TMB31_T1 ri-B2PLYP-D3BJ/Def2-TZVPPD
|  3> #
|  4> ! rijk ri-b2plyp d3bj def2-tzvppd def2/jk def2-tzvppd/c grid4 nofinalgrid
|  5> 
|  6> *xyz 1 1
|  7> Ir       0.050361    0.056236   -0.150076 
|  8> C        0.978842   -1.302743   -1.517387 
|  9> C       -1.864665    1.028637    0.563211 
| 10> C       -1.426558    0.128925    1.555248 
| 11> C       -1.389999   -1.187568    0.972706 
| 12> C       -1.852948   -1.076424   -0.368776 
| 13> C       -2.115280    0.291316   -0.640524 
| 14> H        0.395138   -1.326753   -2.435403 
| 15> H        2.003015   -1.039631   -1.784042 
| 16> H        0.978935   -2.299217   -1.075482 
| 17> H       -1.949414   -1.889112   -1.072248 
| 18> H       -2.488115    0.695321   -1.568578 
| 19> H       -1.982151    2.094988    0.682898 
| 20> H       -1.179131    0.379256    2.575311 
| 21> H       -1.144965   -2.105263    1.484015 
| 22> C        0.981659    2.033847   -0.552795 
| 23> H        0.609290    0.819803   -1.428069 
| 24> H        0.362656    2.677374   -1.174650 
| 25> H        1.003724    2.445002    0.454509 
| 26> H        1.994491    2.026607   -0.953376 
| 27> P        1.998129   -0.331589    0.938590 
| 28> H        2.205383    0.285042    2.190624 
| 29> H        2.302734   -1.672090    1.247762 
| 30> H        3.172367    0.056392    0.263634 
| 31> *
| 32> 
| 33> %maxcore 5000
| 34> 
| 35> %pal
| 36> nprocs = 24
| 37> end
| 38> 
| 39> 
| 40>                          ****END OF INPUT****
================================================================================

                       ****************************
                       * Single Point Calculation *
                       ****************************

---------------------------------
CARTESIAN COORDINATES (ANGSTROEM)
---------------------------------
  Ir     0.050361    0.056236   -0.150076
  C      0.978842   -1.302743   -1.517387
  C     -1.864665    1.028637    0.563211
  C     -1.426558    0.128925    1.555248
  C     -1.389999   -1.187568    0.972706
  C     -1.852948   -1.076424   -0.368776
  C     -2.115280    0.291316   -0.640524
  H      0.395138   -1.326753   -2.435403
  H      2.003015   -1.039631   -1.784042
  H      0.978935   -2.299217   -1.075482
  H     -1.949414   -1.889112   -1.072248
  H     -2.488115    0.695321   -1.568578
  H     -1.982151    2.094988    0.682898
  H     -1.179131    0.379256    2.575311
  H     -1.144965   -2.105263    1.484015
  C      0.981659    2.033847   -0.552795
  H      0.609290    0.819803   -1.428069
  H      0.362656    2.677374   -1.174650
  H      1.003724    2.445002    0.454509
  H      1.994491    2.026607   -0.953376
  P      1.998129   -0.331589    0.938590
  H      2.205383    0.285042    2.190624
  H      2.302734   -1.672090    1.247762
  H      3.172367    0.056392    0.263634

----------------------------
CARTESIAN COORDINATES (A.U.)
----------------------------
  NO LB      ZA    FRAG     MASS         X           Y           Z
   0 Ir   17.0000*   0   192.220    0.095168    0.106271   -0.283603
   1 C     6.0000    0    12.011    1.849743   -2.461827   -2.867446
   2 C     6.0000    0    12.011   -3.523706    1.943842    1.064315
   3 C     6.0000    0    12.011   -2.695804    0.243633    2.938993
   4 C     6.0000    0    12.011   -2.626717   -2.244178    1.838148
   5 C     6.0000    0    12.011   -3.501564   -2.034147   -0.696886
   6 C     6.0000    0    12.011   -3.997300    0.550507   -1.210415
   7 H     1.0000    0     1.008    0.746703   -2.507200   -4.602245
   8 H     1.0000    0     1.008    3.785150   -1.964618   -3.371351
   9 H     1.0000    0     1.008    1.849919   -4.344890   -2.032366
  10 H     1.0000    0     1.008   -3.683859   -3.569904   -2.026255
  11 H     1.0000    0     1.008   -4.701856    1.313966   -2.964183
  12 H     1.0000    0     1.008   -3.745723    3.958954    1.290490
  13 H     1.0000    0     1.008   -2.228235    0.716690    4.866632
  14 H     1.0000    0     1.008   -2.163670   -3.978371    2.804382
  15 C     6.0000    0    12.011    1.855067    3.843414   -1.044631
  16 H     1.0000    0     1.008    1.151391    1.549203   -2.698659
  17 H     1.0000    0     1.008    0.685321    5.059504   -2.219767
  18 H     1.0000    0     1.008    1.896763    4.620384    0.858898
  19 H     1.0000    0     1.008    3.769042    3.829732   -1.801620
  20 P    15.0000    0    30.974    3.775917   -0.626612    1.773678
  21 H     1.0000    0     1.008    4.167570    0.538651    4.139679
  22 H     1.0000    0     1.008    4.351537   -3.159792    2.357928
  23 H     1.0000    0     1.008    5.994905    0.106565    0.498196
* core charge reduced due to ECP

--------------------------------
INTERNAL COORDINATES (ANGSTROEM)
--------------------------------
 Ir     0   0   0     0.000000000000     0.00000000     0.00000000
 C      1   0   0     2.139729015675     0.00000000     0.00000000
 C      1   2   0     2.263109946478   147.29684165     0.00000000
 C      3   1   2     1.409097880121    71.60618925   109.95483900
 C      4   3   1     1.440085261814   107.86687635   299.51713212
 C      5   4   3     1.423463635525   107.55290156   358.13589628
 C      6   5   4     1.418935432403   108.41371098     2.61785804
 H      2   1   3     1.088136120149   108.68430622    28.89272371
 H      2   1   3     1.090533423375   114.23846180   149.07972475
 H      2   1   3     1.090064434036   108.75811861   270.61756156
 H      6   5   4     1.079185030143   125.77369162   180.32651451
 H      7   6   5     1.078661301877   126.13625043   180.71690752
 H      3   1   2     1.079459306026   123.47003648   231.36290723
 H      4   3   1     1.079080281471   126.06378854   120.50322017
 H      5   4   3     1.078722701931   126.28049873   183.31563958
 C      1   2   3     2.222710918020   105.51514942   240.74066631
 H     16   1   2     1.542292475885    45.67694378    34.08344470
 H     16   1   2     1.088115506168   113.04101722    99.90861638
 H     16   1   2     1.088207997887   100.19195419   215.15867565
 H     16   1   2     1.089195214544   116.76534690   332.51219958
 P      1   2   3     2.264818330905    79.93455623   160.91820452
 H     21   1   2     1.410949023825   118.55720729   181.75620396
 H     21   1   2     1.409011874545   117.02035915   303.05502782
 H     21   1   2     1.408875345423   116.06190261    61.93680212

---------------------------
INTERNAL COORDINATES (A.U.)
---------------------------
 Ir     0   0   0     0.000000000000     0.00000000     0.00000000
 C      1   0   0     4.043501840431     0.00000000     0.00000000
 C      1   2   0     4.276658009796   147.29684165     0.00000000
 C      3   1   2     2.662809089318    71.60618925   109.95483900
 C      4   3   1     2.721366754325   107.86687635   299.51713212
 C      5   4   3     2.689956432737   107.55290156   358.13589628
 C      6   5   4     2.681399368958   108.41371098     2.61785804
 H      2   1   3     2.056279263508   108.68430622    28.89272371
 H      2   1   3     2.060809510066   114.23846180   149.07972475
 H      2   1   3     2.059923248656   108.75811861   270.61756156
 H      6   5   4     2.039364154797   125.77369162   180.32651451
 H      7   6   5     2.038374451806   126.13625043   180.71690752
 H      3   1   2     2.039882461102   123.47003648   231.36290723
 H      4   3   1     2.039166208494   126.06378854   120.50322017
 H      5   4   3     2.038490481094   126.28049873   183.31563958
 C      1   2   3     4.200314909935   105.51514942   240.74066631
 H     16   1   2     2.914510397831    45.67694378    34.08344470
 H     16   1   2     2.056240308730   113.04101722    99.90861638
 H     16   1   2     2.056415092750   100.19195419   215.15867565
 H     16   1   2     2.058280661865   116.76534690   332.51219958
 P      1   2   3     4.279886388496    79.93455623   160.91820452
 H     21   1   2     2.666307243953   118.55720729   181.75620396
 H     21   1   2     2.662646562334   117.02035915   303.05502782
 H     21   1   2     2.662388559683   116.06190261    61.93680212

---------------------
BASIS SET INFORMATION
---------------------
There are 4 groups of distinct atoms

 Group   1 Type Ir  : 8s8p6d2f1g contracted to 6s5p3d2f1g pattern {311111/41111/411/11/1}
 Group   2 Type C   : 12s6p3d1f contracted to 6s3p3d1f pattern {621111/411/111/1}
 Group   3 Type H   : 5s3p1d contracted to 3s3p1d pattern {311/111/1}
 Group   4 Type P   : 15s9p4d1f contracted to 6s5p4d1f pattern {732111/51111/1111/1}

Atom   0Ir   basis set group =>   1
Atom   1C    basis set group =>   2
Atom   2C    basis set group =>   2
Atom   3C    basis set group =>   2
Atom   4C    basis set group =>   2
Atom   5C    basis set group =>   2
Atom   6C    basis set group =>   2
Atom   7H    basis set group =>   3
Atom   8H    basis set group =>   3
Atom   9H    basis set group =>   3
Atom  10H    basis set group =>   3
Atom  11H    basis set group =>   3
Atom  12H    basis set group =>   3
Atom  13H    basis set group =>   3
Atom  14H    basis set group =>   3
Atom  15C    basis set group =>   2
Atom  16H    basis set group =>   3
Atom  17H    basis set group =>   3
Atom  18H    basis set group =>   3
Atom  19H    basis set group =>   3
Atom  20P    basis set group =>   4
Atom  21H    basis set group =>   3
Atom  22H    basis set group =>   3
Atom  23H    basis set group =>   3
---------------------------------
AUXILIARY/C BASIS SET INFORMATION
---------------------------------
There are 4 groups of distinct atoms

 Group   1 Type Ir  : 9s9p8d5f4g3h1i contracted to 9s9p8d5f4g3h1i pattern {111111111/111111111/11111111/11111/1111/111/1}
 Group   2 Type C   : 9s7p6d4f1g contracted to 9s7p5d4f1g pattern {111111111/1111111/21111/1111/1}
 Group   3 Type H   : 5s4p3d1f contracted to 5s4p3d1f pattern {11111/1111/111/1}
 Group   4 Type P   : 12s9p8d6f2g contracted to 12s9p8d6f2g pattern {111111111111/111111111/11111111/111111/11}

Atom   0Ir   basis set group =>   1
Atom   1C    basis set group =>   2
Atom   2C    basis set group =>   2
Atom   3C    basis set group =>   2
Atom   4C    basis set group =>   2
Atom   5C    basis set group =>   2
Atom   6C    basis set group =>   2
Atom   7H    basis set group =>   3
Atom   8H    basis set group =>   3
Atom   9H    basis set group =>   3
Atom  10H    basis set group =>   3
Atom  11H    basis set group =>   3
Atom  12H    basis set group =>   3
Atom  13H    basis set group =>   3
Atom  14H    basis set group =>   3
Atom  15C    basis set group =>   2
Atom  16H    basis set group =>   3
Atom  17H    basis set group =>   3
Atom  18H    basis set group =>   3
Atom  19H    basis set group =>   3
Atom  20P    basis set group =>   4
Atom  21H    basis set group =>   3
Atom  22H    basis set group =>   3
Atom  23H    basis set group =>   3
----------------------------------
AUXILIARY/JK BASIS SET INFORMATION
----------------------------------
There are 4 groups of distinct atoms

 Group   1 Type Ir  : 13s12p11d9f5g3h2i contracted to 11s9p9d7f4g3h2i pattern {31111111111/411111111/311111111/3111111/2111/111/11}
 Group   2 Type C   : 14s10p6d2f1g contracted to 10s8p5d1f1g pattern {5111111111/31111111/21111/2/1}
 Group   3 Type H   : 4s2p2d contracted to 2s2p2d pattern {31/11/11}
 Group   4 Type P   : 16s12p10d4f1g contracted to 13s11p9d4f1g pattern {4111111111111/21111111111/211111111/1111/1}

Atom   0Ir   basis set group =>   1
Atom   1C    basis set group =>   2
Atom   2C    basis set group =>   2
Atom   3C    basis set group =>   2
Atom   4C    basis set group =>   2
Atom   5C    basis set group =>   2
Atom   6C    basis set group =>   2
Atom   7H    basis set group =>   3
Atom   8H    basis set group =>   3
Atom   9H    basis set group =>   3
Atom  10H    basis set group =>   3
Atom  11H    basis set group =>   3
Atom  12H    basis set group =>   3
Atom  13H    basis set group =>   3
Atom  14H    basis set group =>   3
Atom  15C    basis set group =>   2
Atom  16H    basis set group =>   3
Atom  17H    basis set group =>   3
Atom  18H    basis set group =>   3
Atom  19H    basis set group =>   3
Atom  20P    basis set group =>   4
Atom  21H    basis set group =>   3
Atom  22H    basis set group =>   3
Atom  23H    basis set group =>   3
-------------------------
ECP PARAMETER INFORMATION
-------------------------

 Group 1, Type Ir ECP Def2-ECP (replacing 60 core electrons, lmax=3)

Atom   0Ir   ECP group =>   1



           ************************************************************
           *        Program running with 24 parallel MPI-processes    *
           *              working on a common directory               *
           ************************************************************
------------------------------------------------------------------------------
                           ORCA GTO INTEGRAL CALCULATION
                           -- RI-GTO INTEGRALS CHOSEN --
------------------------------------------------------------------------------

                         BASIS SET STATISTICS AND STARTUP INFO

Gaussian basis set:
 # of primitive gaussian shells          ...  343
 # of primitive gaussian functions       ...  803
 # of contracted shells                  ...  229
 # of contracted basis functions         ...  621
 Highest angular momentum                ...    4
 Maximum contraction depth               ...    7
Auxiliary gaussian basis set:
 # of primitive gaussian shells          ...  449
 # of primitive gaussian functions       ... 1389
 # of contracted shells                  ...  348
 # of contracted aux-basis functions     ... 1150
 Highest angular momentum                ...    6
 Maximum contraction depth               ...    5
Ratio of auxiliary to basis functions    ...  1.85
Integral package used                  ... LIBINT
 One Electron integrals                  
   ECP integrals                         ... done
 Ordering auxiliary basis shells         ... done
 Integral threshhold             Thresh  ...  1.000e-10
 Primitive cut-off               TCut    ...  1.000e-11
 Pre-screening matrix                    ... done
 Shell pair data                         ... 
 Ordering of the shell pairs             ... done (   0.004 sec) 24109 of 26335 pairs
 Determination of significant pairs      ... done (   0.000 sec)
 Creation of shell pair data             ... done (   0.002 sec)
 Storage of shell pair data              ... done (   0.012 sec)
 Shell pair data done in (   0.019 sec)
 Computing two index integrals           ... done
 Cholesky decomposition of the V-matrix  ... done


Timings:
 Total evaluation time                   ...   2.759 sec (  0.046 min)
 One electron matrix time                ...   2.338 sec (  0.039 min) = 84.7%
 Schwartz matrix evaluation time         ...   0.229 sec (  0.004 min) =  8.3%
 Two index repulsion integral time       ...   0.081 sec (  0.001 min) =  2.9%
 Cholesky decomposition of V             ...   0.060 sec (  0.001 min) =  2.2%
 Three index repulsion integral time     ...   0.000 sec (  0.000 min) =  0.0%



           ************************************************************
           *        Program running with 24 parallel MPI-processes    *
           *              working on a common directory               *
           ************************************************************
-------------------------------------------------------------------------------
                                 ORCA SCF
-------------------------------------------------------------------------------

------------
SCF SETTINGS
------------
Hamiltonian:
 Density Functional     Method          .... DFT(GTOs)
 Exchange Functional    Exchange        .... B88
   X-Alpha parameter    XAlpha          ....  0.666667
   Becke's b parameter  XBeta           ....  0.004200
 Correlation Functional Correlation     .... LYP
 LDA part of GGA corr.  LDAOpt          .... VWN-3
 Gradients option       PostSCFGGA      .... off
 Hybrid DFT is turned on
   Fraction HF Exchange ScalHFX         ....  0.530000
   Scaling of DF-GGA-X  ScalDFX         ....  0.470000
   Scaling of DF-GGA-C  ScalDFC         ....  0.730000
   Scaling of DF-LDA-C  ScalLDAC        ....  0.730000
   Perturbative correction              ....  0.270000
   Density functional embedding theory  .... OFF
 RI-approximation to the Coulomb term is turned on
   Number of auxiliary basis functions  .... 1150
   RI-JK (J+K treated both via RI)      .... on


General Settings:
 Integral files         IntName         .... TMB31_T1
 Hartree-Fock type      HFTyp           .... RHF
 Total Charge           Charge          ....    1
 Multiplicity           Mult            ....    1
 Number of Electrons    NEL             ....   88
 Basis Dimension        Dim             ....  621
 Nuclear Repulsion      ENuc            ....    712.9282020928 Eh

Convergence Acceleration:
 DIIS                   CNVDIIS         .... on
   Start iteration      DIISMaxIt       ....    12
   Startup error        DIISStart       ....  0.200000
   # of expansion vecs  DIISMaxEq       ....     5
   Bias factor          DIISBfac        ....   1.050
   Max. coefficient     DIISMaxC        ....  10.000
 Newton-Raphson         CNVNR           .... off
 SOSCF                  CNVSOSCF        .... off
 Level Shifting         CNVShift        .... on
   Level shift para.    LevelShift      ....    0.2500
   Turn off err/grad.   ShiftErr        ....    0.0010
 Zerner damping         CNVZerner       .... off
 Static damping         CNVDamp         .... on
   Fraction old density DampFac         ....    0.7000
   Max. Damping (<1)    DampMax         ....    0.9800
   Min. Damping (>=0)   DampMin         ....    0.0000
   Turn off err/grad.   DampErr         ....    0.1000
 Fernandez-Rico         CNVRico         .... off

SCF Procedure:
 Maximum # iterations   MaxIter         ....   125
 SCF integral mode      SCFMode         .... Direct
   Integral package                     .... LIBINT
 Reset frequency        DirectResetFreq ....    20
 Integral Threshold     Thresh          ....  1.000e-10 Eh
 Primitive CutOff       TCut            ....  1.000e-11 Eh

Convergence Tolerance:
 Convergence Check Mode ConvCheckMode   .... Total+1el-Energy
 Convergence forced     ConvForced      .... 0
 Energy Change          TolE            ....  1.000e-06 Eh
 1-El. energy change                    ....  1.000e-03 Eh
 DIIS Error             TolErr          ....  1.000e-06


Diagonalization of the overlap matrix:
Smallest eigenvalue                        ... 9.569e-07
Time for diagonalization                   ...    0.067 sec
Threshold for overlap eigenvalues          ... 1.000e-08
Number of eigenvalues below threshold      ... 0
Time for construction of square roots      ...    0.067 sec
Total time needed                          ...    0.136 sec

-------------------
DFT GRID GENERATION
-------------------

General Integration Accuracy     IntAcc      ...  4.670
Radial Grid Type                 RadialGrid  ... Gauss-Chebyshev
Angular Grid (max. acc.)         AngularGrid ... Lebedev-302
Angular grid pruning method      GridPruning ... 3 (G Style)
Weight generation scheme         WeightScheme... Becke
Basis function cutoff            BFCut       ...    1.0000e-10
Integration weight cutoff        WCut        ...    1.0000e-14
Grids for H and He will be reduced by one unit

# of grid points (after initial pruning)     ... 112892 (   0.0 sec)
# of grid points (after weights+screening)   ...  99836 (   0.1 sec)
nearest neighbour list constructed           ...    0.0 sec
Grid point re-assignment to atoms done       ...    0.0 sec
Grid point division into batches done        ...    0.3 sec
Reduced shell lists constructed in    0.6 sec

Total number of grid points                  ...    99836
Total number of batches                      ...     1573
Average number of points per batch           ...       63
Average number of grid points per atom       ...     4160
Average number of shells per batch           ...   182.21 (79.57%)
Average number of basis functions per batch  ...   513.91 (82.76%)
Average number of large shells per batch     ...   151.07 (82.91%)
Average number of large basis fcns per batch ...   420.87 (81.89%)
Average number of aux-shells per batch       ...   182.21 (52.36%)
Average number of aux functions per batch    ...   513.91 (44.69%)
Maximum spatial batch extension              ...   1.80,  1.97,  1.92 au
Average spatial batch extension              ...   0.05,  0.05,  0.05 au

Time for grid setup =    0.672 sec

------------------------------
INITIAL GUESS: MODEL POTENTIAL
------------------------------
Loading Hartree-Fock densities                     ... done
  calling /sw/apps/orca/orca_4_2_0_linux_x86-64_openmpi314/orca TMB31_T1_atom77.inp > TMB31_T1_atom77.out in order to generate an atomic fitting density for atom 0 (Ir with ECP) on-the-fly... 
    atom 0 (Ir), assumed electronic state with S=4: 1s2 2s2 2p6 3s2 3p6 4s2 3d10 4p6 5s2 4d10 5p6 6s2 4f14 5d7           ... done
Calculating cut-offs                               ... done
Setting up the integral package                    ... done
Initializing the effective Hamiltonian             ... done
Starting the Coulomb interaction                   ... done (   0.0 sec)
Reading the grid                                   ... done
Mapping shells                                     ... done
Starting the XC term evaluation                    ... done (   0.2 sec)
  promolecular density results
     # of electrons  =    148.995325330
     EX              =   -413.770958261
     EC              =     -2.390276092
     EX+EC           =   -416.161234353
Transforming the Hamiltonian                       ... done (   0.0 sec)
Diagonalizing the Hamiltonian                      ... done (   0.1 sec)
Back transforming the eigenvectors                 ... done (   0.0 sec)
Now organizing SCF variables                       ... done
                      ------------------
                      INITIAL GUESS DONE (   2.3 sec)
                      ------------------
--------------
SCF ITERATIONS
--------------
ITER       Energy         Delta-E        Max-DP      RMS-DP      [F,P]     Damp
  0   -715.1379115898   0.00000000000096.08469400  0.43376668  1.0275192 0.7000
  1   -715.7034853478  -0.56557375799614.59952786  0.07818490  0.4133089 0.7000
                               ***Turning on DIIS***
  2   -715.9424572971  -0.23897194932925.75553676  0.13377058  0.1984527 0.7000
  3   -718.4180887453  -2.47563144820918.55583865  0.09553043  0.1180583 0.7000
  4   -718.9761082081  -0.55801946273413.02947776  0.06704596  0.1457675 0.7000
  5   -719.2514459670  -0.275337758968 9.12051364  0.04695087  0.1520249 0.7000
  6   -719.4645674376  -0.213121470605 6.38090576  0.03286765  0.1402144 0.7000
  7   -719.6278393607  -0.163271923058 4.46143551  0.02300473  0.1262714 0.7000
  8   -719.7512647569  -0.123425396239 3.12508504  0.01611501  0.1146474 0.7000
  9   -719.8433292949  -0.092064537920 2.17394625  0.01128709  0.1020099 0.7000
 10   -719.9018963371  -0.058567042191 4.79338406  0.02598576  0.0692706 0.0000
 11   -720.1511257336  -0.249229396539 0.07429369  0.00082157  0.0583394 0.0000
 12   -720.1788857782  -0.027760044559 0.02355528  0.00023672  0.0149771 0.0000
 13   -720.1804682230  -0.001582444832 0.00808571  0.00007743  0.0027393 0.0000
 14   -720.1805735345  -0.000105311540 0.00593231  0.00005701  0.0009261 0.0000
 15   -720.1806004434  -0.000026908870 0.00439782  0.00002095  0.0004762 0.0000
 16   -720.1806038254  -0.000003381983 0.00182966  0.00001880  0.0003652 0.0000
 17   -720.1806050651  -0.000001239712 0.00261183  0.00001443  0.0001969 0.0000
 18   -720.1806052523  -0.000000187217 0.00400146  0.00002297  0.0000934 0.0000
 19   -720.1806052926  -0.000000040311 0.00325389  0.00001840  0.0000461 0.0000
                 **** Energy Check signals convergence ****

               *****************************************************
               *                     SUCCESS                       *
               *           SCF CONVERGED AFTER  20 CYCLES          *
               *****************************************************


----------------
TOTAL SCF ENERGY
----------------

Total Energy       :         -720.18060531 Eh          -19597.11057 eV

Components:
Nuclear Repulsion  :          712.92820209 Eh           19399.76264 eV
Electronic Energy  :        -1433.10880740 Eh          -38996.87321 eV
One Electron Energy:        -2424.90586186 Eh          -65985.04312 eV
Two Electron Energy:          991.79705446 Eh           26988.16990 eV

Virial components:
Potential Energy   :        -1370.17186226 Eh          -37284.27187 eV
Kinetic Energy     :          649.99125695 Eh           17687.16130 eV
Virial Ratio       :            2.10798507


DFT components:
N(Alpha)           :       44.000118711442 electrons
N(Beta)            :       44.000118711442 electrons
N(Total)           :       88.000237422884 electrons
E(X)               :      -34.783539479399 Eh       
E(C)               :       -2.216904486362 Eh       
E(XC)              :      -37.000443965761 Eh       
DFET-embed. en.    :        0.000000000000 Eh       

---------------
SCF CONVERGENCE
---------------

  Last Energy change         ...   -1.5606e-08  Tolerance :   1.0000e-06
  Last MAX-Density change    ...    8.0822e-03  Tolerance :   1.0000e-05
  Last RMS-Density change    ...    2.8232e-05  Tolerance :   1.0000e-06
  Last DIIS Error            ...    8.2836e-06  Tolerance :   1.0000e-06

             **** THE GBW FILE WAS UPDATED (TMB31_T1.gbw) ****
             **** DENSITY FILE WAS UPDATED (TMB31_T1.scfp) ****
             **** ENERGY FILE WAS UPDATED (TMB31_T1.en.tmp) ****
             **** THE GBW FILE WAS UPDATED (TMB31_T1.gbw) ****
             **** DENSITY FILE WAS UPDATED (TMB31_T1.scfp) ****
----------------
ORBITAL ENERGIES
----------------

  NO   OCC          E(Eh)            E(eV) 
   0   2.0000     -78.465738     -2135.1613 
   1   2.0000     -10.805480      -294.0321 
   2   2.0000     -10.803655      -293.9824 
   3   2.0000     -10.802744      -293.9576 
   4   2.0000     -10.800467      -293.8956 
   5   2.0000     -10.798785      -293.8499 
   6   2.0000     -10.785922      -293.4999 
   7   2.0000     -10.748546      -292.4828 
   8   2.0000      -7.134656      -194.1439 
   9   2.0000      -5.185890      -141.1152 
  10   2.0000      -5.185818      -141.1133 
  11   2.0000      -5.184064      -141.0656 
  12   2.0000      -4.105929      -111.7280 
  13   2.0000      -2.390268       -65.0425 
  14   2.0000      -2.376953       -64.6802 
  15   2.0000      -2.369763       -64.4845 
  16   2.0000      -1.191908       -32.4335 
  17   2.0000      -1.002372       -27.2759 
  18   2.0000      -0.996338       -27.1117 
  19   2.0000      -0.961233       -26.1565 
  20   2.0000      -0.930505       -25.3203 
  21   2.0000      -0.908799       -24.7297 
  22   2.0000      -0.803340       -21.8600 
  23   2.0000      -0.801822       -21.8187 
  24   2.0000      -0.784575       -21.3494 
  25   2.0000      -0.691232       -18.8094 
  26   2.0000      -0.663228       -18.0474 
  27   2.0000      -0.656826       -17.8732 
  28   2.0000      -0.653956       -17.7950 
  29   2.0000      -0.648283       -17.6407 
  30   2.0000      -0.639721       -17.4077 
  31   2.0000      -0.619323       -16.8526 
  32   2.0000      -0.617619       -16.8063 
  33   2.0000      -0.616511       -16.7761 
  34   2.0000      -0.601404       -16.3650 
  35   2.0000      -0.599226       -16.3058 
  36   2.0000      -0.586500       -15.9595 
  37   2.0000      -0.575645       -15.6641 
  38   2.0000      -0.543841       -14.7987 
  39   2.0000      -0.509978       -13.8772 
  40   2.0000      -0.496794       -13.5184 
  41   2.0000      -0.482853       -13.1391 
  42   2.0000      -0.459865       -12.5136 
  43   2.0000      -0.433661       -11.8005 
  44   0.0000      -0.133897        -3.6435 
  45   0.0000      -0.112516        -3.0617 
  46   0.0000      -0.105917        -2.8821 
  47   0.0000      -0.094545        -2.5727 
  48   0.0000      -0.080545        -2.1917 
  49   0.0000      -0.077675        -2.1136 
  50   0.0000      -0.076728        -2.0879 
  51   0.0000      -0.072435        -1.9711 
  52   0.0000      -0.061714        -1.6793 
  53   0.0000      -0.051403        -1.3987 
  54   0.0000      -0.046792        -1.2733 
  55   0.0000      -0.044436        -1.2092 
  56   0.0000      -0.036861        -1.0030 
  57   0.0000      -0.032945        -0.8965 
  58   0.0000      -0.026365        -0.7174 
  59   0.0000      -0.020388        -0.5548 
  60   0.0000      -0.016545        -0.4502 
  61   0.0000      -0.007624        -0.2075 
  62   0.0000      -0.001646        -0.0448 
  63   0.0000       0.000804         0.0219 
  64   0.0000       0.008218         0.2236 
  65   0.0000       0.013759         0.3744 
  66   0.0000       0.016030         0.4362 
  67   0.0000       0.019935         0.5425 
  68   0.0000       0.023048         0.6272 
  69   0.0000       0.036893         1.0039 
  70   0.0000       0.038970         1.0604 
  71   0.0000       0.043793         1.1917 
  72   0.0000       0.049274         1.3408 
  73   0.0000       0.056712         1.5432 
  74   0.0000       0.057265         1.5583 
  75   0.0000       0.065219         1.7747 
  76   0.0000       0.068320         1.8591 
  77   0.0000       0.072046         1.9605 
  78   0.0000       0.079907         2.1744 
  79   0.0000       0.087236         2.3738 
  80   0.0000       0.091059         2.4778 
  81   0.0000       0.100124         2.7245 
  82   0.0000       0.104476         2.8429 
  83   0.0000       0.110387         3.0038 
  84   0.0000       0.116063         3.1582 
  85   0.0000       0.119919         3.2632 
  86   0.0000       0.123428         3.3587 
  87   0.0000       0.127802         3.4777 
  88   0.0000       0.132206         3.5975 
  89   0.0000       0.138153         3.7593 
  90   0.0000       0.156782         4.2663 
  91   0.0000       0.159010         4.3269 
  92   0.0000       0.163156         4.4397 
  93   0.0000       0.163968         4.4618 
  94   0.0000       0.173990         4.7345 
  95   0.0000       0.176230         4.7955 
  96   0.0000       0.179312         4.8793 
  97   0.0000       0.183181         4.9846 
  98   0.0000       0.185540         5.0488 
  99   0.0000       0.187124         5.0919 
 100   0.0000       0.190111         5.1732 
 101   0.0000       0.195613         5.3229 
 102   0.0000       0.198991         5.4148 
 103   0.0000       0.203703         5.5431 
 104   0.0000       0.211230         5.7479 
 105   0.0000       0.213403         5.8070 
 106   0.0000       0.218244         5.9387 
 107   0.0000       0.219310         5.9677 
 108   0.0000       0.222028         6.0417 
 109   0.0000       0.223432         6.0799 
 110   0.0000       0.227947         6.2027 
 111   0.0000       0.237925         6.4743 
 112   0.0000       0.243258         6.6194 
 113   0.0000       0.244659         6.6575 
 114   0.0000       0.246562         6.7093 
 115   0.0000       0.251342         6.8394 
 116   0.0000       0.254001         6.9117 
 117   0.0000       0.257960         7.0195 
 118   0.0000       0.261177         7.1070 
 119   0.0000       0.263558         7.1718 
 120   0.0000       0.265127         7.2145 
 121   0.0000       0.267385         7.2759 
 122   0.0000       0.270646         7.3647 
 123   0.0000       0.275106         7.4860 
 124   0.0000       0.285319         7.7639 
 125   0.0000       0.289385         7.8746 
 126   0.0000       0.290557         7.9064 
 127   0.0000       0.296193         8.0598 
 128   0.0000       0.301777         8.2118 
 129   0.0000       0.304898         8.2967 
 130   0.0000       0.307553         8.3689 
 131   0.0000       0.317245         8.6327 
 132   0.0000       0.320608         8.7242 
 133   0.0000       0.324015         8.8169 
 134   0.0000       0.332353         9.0438 
 135   0.0000       0.340277         9.2594 
 136   0.0000       0.343834         9.3562 
 137   0.0000       0.349110         9.4998 
 138   0.0000       0.353189         9.6108 
 139   0.0000       0.359747         9.7892 
 140   0.0000       0.360669         9.8143 
 141   0.0000       0.364899         9.9294 
 142   0.0000       0.366365         9.9693 
 143   0.0000       0.371246        10.1021 
 144   0.0000       0.372102        10.1254 
 145   0.0000       0.376730        10.2514 
 146   0.0000       0.381991        10.3945 
 147   0.0000       0.383357        10.4317 
 148   0.0000       0.390867        10.6360 
 149   0.0000       0.398310        10.8386 
 150   0.0000       0.405459        11.0331 
 151   0.0000       0.408475        11.1152 
 152   0.0000       0.414241        11.2721 
 153   0.0000       0.418228        11.3806 
 154   0.0000       0.426735        11.6121 
 155   0.0000       0.438085        11.9209 
 156   0.0000       0.440970        11.9994 
 157   0.0000       0.443973        12.0811 
 158   0.0000       0.447516        12.1775 
 159   0.0000       0.452999        12.3267 
 160   0.0000       0.458280        12.4704 
 161   0.0000       0.464819        12.6484 
 162   0.0000       0.470711        12.8087 
 163   0.0000       0.473640        12.8884 
 164   0.0000       0.481381        13.0990 
 165   0.0000       0.484440        13.1823 
 166   0.0000       0.492250        13.3948 
 167   0.0000       0.494597        13.4587 
 168   0.0000       0.497852        13.5472 
 169   0.0000       0.500719        13.6253 
 170   0.0000       0.505833        13.7644 
 171   0.0000       0.513738        13.9795 
 172   0.0000       0.523107        14.2345 
 173   0.0000       0.525543        14.3008 
 174   0.0000       0.528575        14.3833 
 175   0.0000       0.533150        14.5077 
 176   0.0000       0.544234        14.8094 
 177   0.0000       0.554819        15.0974 
 178   0.0000       0.558812        15.2060 
 179   0.0000       0.567972        15.4553 
 180   0.0000       0.572750        15.5853 
 181   0.0000       0.577101        15.7037 
 182   0.0000       0.581048        15.8111 
 183   0.0000       0.588998        16.0275 
 184   0.0000       0.590527        16.0691 
 185   0.0000       0.594671        16.1818 
 186   0.0000       0.597688        16.2639 
 187   0.0000       0.604417        16.4470 
 188   0.0000       0.610258        16.6060 
 189   0.0000       0.619817        16.8661 
 190   0.0000       0.627643        17.0790 
 191   0.0000       0.630226        17.1493 
 192   0.0000       0.634903        17.2766 
 193   0.0000       0.639871        17.4118 
 194   0.0000       0.649641        17.6776 
 195   0.0000       0.651223        17.7207 
 196   0.0000       0.656902        17.8752 
 197   0.0000       0.658769        17.9260 
 198   0.0000       0.662645        18.0315 
 199   0.0000       0.670274        18.2391 
 200   0.0000       0.674330        18.3495 
 201   0.0000       0.675953        18.3936 
 202   0.0000       0.679442        18.4886 
 203   0.0000       0.691150        18.8071 
 204   0.0000       0.693764        18.8783 
 205   0.0000       0.699262        19.0279 
 206   0.0000       0.699587        19.0367 
 207   0.0000       0.702588        19.1184 
 208   0.0000       0.704668        19.1750 
 209   0.0000       0.707683        19.2570 
 210   0.0000       0.717384        19.5210 
 211   0.0000       0.720975        19.6187 
 212   0.0000       0.730463        19.8769 
 213   0.0000       0.743577        20.2338 
 214   0.0000       0.755412        20.5558 
 215   0.0000       0.763202        20.7678 
 216   0.0000       0.771825        21.0024 
 217   0.0000       0.788244        21.4492 
 218   0.0000       0.794417        21.6172 
 219   0.0000       0.803731        21.8706 
 220   0.0000       0.819208        22.2918 
 221   0.0000       0.830645        22.6030 
 222   0.0000       0.836312        22.7572 
 223   0.0000       0.854944        23.2642 
 224   0.0000       0.861753        23.4495 
 225   0.0000       0.875280        23.8176 
 226   0.0000       0.884031        24.0557 
 227   0.0000       0.891186        24.2504 
 228   0.0000       0.896291        24.3893 
 229   0.0000       0.913988        24.8709 
 230   0.0000       0.922591        25.1050 
 231   0.0000       0.928917        25.2771 
 232   0.0000       0.932298        25.3691 
 233   0.0000       0.945699        25.7338 
 234   0.0000       0.951444        25.8901 
 235   0.0000       0.967634        26.3307 
 236   0.0000       0.989314        26.9206 
 237   0.0000       0.998126        27.1604 
 238   0.0000       1.001792        27.2602 
 239   0.0000       1.010353        27.4931 
 240   0.0000       1.023243        27.8439 
 241   0.0000       1.032646        28.0997 
 242   0.0000       1.043054        28.3829 
 243   0.0000       1.053568        28.6691 
 244   0.0000       1.072500        29.1842 
 245   0.0000       1.078974        29.3604 
 246   0.0000       1.084575        29.5128 
 247   0.0000       1.094571        29.7848 
 248   0.0000       1.099991        29.9323 
 249   0.0000       1.116768        30.3888 
 250   0.0000       1.123248        30.5651 
 251   0.0000       1.135104        30.8878 
 252   0.0000       1.138610        30.9832 
 253   0.0000       1.158000        31.5108 
 254   0.0000       1.170290        31.8452 
 255   0.0000       1.174935        31.9716 
 256   0.0000       1.195628        32.5347 
 257   0.0000       1.197811        32.5941 
 258   0.0000       1.202448        32.7203 
 259   0.0000       1.209750        32.9190 
 260   0.0000       1.219191        33.1759 
 261   0.0000       1.220715        33.2174 
 262   0.0000       1.233586        33.5676 
 263   0.0000       1.239029        33.7157 
 264   0.0000       1.247326        33.9415 
 265   0.0000       1.251854        34.0647 
 266   0.0000       1.267796        34.4985 
 267   0.0000       1.279470        34.8161 
 268   0.0000       1.287057        35.0226 
 269   0.0000       1.298176        35.3252 
 270   0.0000       1.310735        35.6669 
 271   0.0000       1.326151        36.0864 
 272   0.0000       1.331871        36.2421 
 273   0.0000       1.344615        36.5888 
 274   0.0000       1.348919        36.7060 
 275   0.0000       1.358118        36.9563 
 276   0.0000       1.361470        37.0475 
 277   0.0000       1.372040        37.3351 
 278   0.0000       1.381756        37.5995 
 279   0.0000       1.385559        37.7030 
 280   0.0000       1.400743        38.1162 
 281   0.0000       1.408062        38.3153 
 282   0.0000       1.415292        38.5120 
 283   0.0000       1.420052        38.6416 
 284   0.0000       1.428648        38.8755 
 285   0.0000       1.430900        38.9368 
 286   0.0000       1.431388        38.9500 
 287   0.0000       1.438601        39.1463 
 288   0.0000       1.450274        39.4640 
 289   0.0000       1.459484        39.7146 
 290   0.0000       1.471492        40.0413 
 291   0.0000       1.476716        40.1835 
 292   0.0000       1.487135        40.4670 
 293   0.0000       1.501665        40.8624 
 294   0.0000       1.509893        41.0863 
 295   0.0000       1.526574        41.5402 
 296   0.0000       1.550009        42.1779 
 297   0.0000       1.556027        42.3417 
 298   0.0000       1.564684        42.5772 
 299   0.0000       1.574843        42.8537 
 300   0.0000       1.579999        42.9940 
 301   0.0000       1.585860        43.1534 
 302   0.0000       1.600578        43.5539 
 303   0.0000       1.608443        43.7680 
 304   0.0000       1.621983        44.1364 
 305   0.0000       1.628483        44.3133 
 306   0.0000       1.636699        44.5368 
 307   0.0000       1.640843        44.6496 
 308   0.0000       1.661255        45.2051 
 309   0.0000       1.664359        45.2895 
 310   0.0000       1.676371        45.6164 
 311   0.0000       1.689536        45.9746 
 312   0.0000       1.698981        46.2316 
 313   0.0000       1.710215        46.5373 
 314   0.0000       1.719158        46.7807 
 315   0.0000       1.732724        47.1498 
 316   0.0000       1.740551        47.3628 
 317   0.0000       1.769053        48.1384 
 318   0.0000       1.785857        48.5956 
 319   0.0000       1.789936        48.7066 
 320   0.0000       1.794541        48.8319 
 321   0.0000       1.801527        49.0221 
 322   0.0000       1.825183        49.6658 
 323   0.0000       1.833537        49.8931 
 324   0.0000       1.835390        49.9435 
 325   0.0000       1.869385        50.8685 
 326   0.0000       1.882283        51.2195 
 327   0.0000       1.891424        51.4683 
 328   0.0000       1.893765        51.5320 
 329   0.0000       1.913869        52.0790 
 330   0.0000       1.924806        52.3766 
 331   0.0000       1.929766        52.5116 
 332   0.0000       1.937365        52.7184 
 333   0.0000       1.954424        53.1826 
 334   0.0000       1.964285        53.4509 
 335   0.0000       1.977950        53.8227 
 336   0.0000       1.996045        54.3152 
 337   0.0000       1.998969        54.3947 
 338   0.0000       2.037864        55.4531 
 339   0.0000       2.049342        55.7654 
 340   0.0000       2.053459        55.8775 
 341   0.0000       2.074130        56.4399 
 342   0.0000       2.077863        56.5415 
 343   0.0000       2.113697        57.5166 
 344   0.0000       2.134990        58.0960 
 345   0.0000       2.161169        58.8084 
 346   0.0000       2.175172        59.1894 
 347   0.0000       2.190157        59.5972 
 348   0.0000       2.204451        59.9862 
 349   0.0000       2.233889        60.7872 
 350   0.0000       2.265750        61.6542 
 351   0.0000       2.284507        62.1646 
 352   0.0000       2.334078        63.5135 
 353   0.0000       2.360114        64.2220 
 354   0.0000       2.442060        66.4518 
 355   0.0000       2.453942        66.7752 
 356   0.0000       2.486967        67.6738 
 357   0.0000       2.494547        67.8801 
 358   0.0000       2.501974        68.0822 
 359   0.0000       2.532568        68.9147 
 360   0.0000       2.544696        69.2447 
 361   0.0000       2.559475        69.6469 
 362   0.0000       2.594938        70.6119 
 363   0.0000       2.606682        70.9314 
 364   0.0000       2.612793        71.0977 
 365   0.0000       2.635811        71.7241 
 366   0.0000       2.682900        73.0054 
 367   0.0000       2.704149        73.5836 
 368   0.0000       2.733790        74.3902 
 369   0.0000       2.765452        75.2518 
 370   0.0000       2.772690        75.4487 
 371   0.0000       2.782864        75.7256 
 372   0.0000       2.786515        75.8249 
 373   0.0000       2.791670        75.9652 
 374   0.0000       2.794498        76.0421 
 375   0.0000       2.812013        76.5188 
 376   0.0000       2.818382        76.6921 
 377   0.0000       2.830089        77.0106 
 378   0.0000       2.835127        77.1477 
 379   0.0000       2.857183        77.7479 
 380   0.0000       2.866148        77.9918 
 381   0.0000       2.871687        78.1426 
 382   0.0000       2.881007        78.3962 
 383   0.0000       2.899236        78.8922 
 384   0.0000       2.908495        79.1442 
 385   0.0000       2.909309        79.1663 
 386   0.0000       2.943684        80.1017 
 387   0.0000       2.952217        80.3339 
 388   0.0000       2.963953        80.6533 
 389   0.0000       2.972816        80.8944 
 390   0.0000       3.000473        81.6470 
 391   0.0000       3.006552        81.8124 
 392   0.0000       3.016772        82.0905 
 393   0.0000       3.029042        82.4244 
 394   0.0000       3.034448        82.5715 
 395   0.0000       3.052648        83.0668 
 396   0.0000       3.059564        83.2550 
 397   0.0000       3.073708        83.6398 
 398   0.0000       3.082426        83.8771 
 399   0.0000       3.093192        84.1700 
 400   0.0000       3.095461        84.2318 
 401   0.0000       3.107326        84.5546 
 402   0.0000       3.112351        84.6914 
 403   0.0000       3.121597        84.9430 
 404   0.0000       3.142508        85.5120 
 405   0.0000       3.146849        85.6301 
 406   0.0000       3.162220        86.0484 
 407   0.0000       3.174220        86.3749 
 408   0.0000       3.185928        86.6935 
 409   0.0000       3.192672        86.8770 
 410   0.0000       3.197773        87.0158 
 411   0.0000       3.202578        87.1466 
 412   0.0000       3.223284        87.7100 
 413   0.0000       3.236082        88.0583 
 414   0.0000       3.256551        88.6153 
 415   0.0000       3.261856        88.7596 
 416   0.0000       3.270316        88.9898 
 417   0.0000       3.290207        89.5311 
 418   0.0000       3.298168        89.7477 
 419   0.0000       3.300950        89.8234 
 420   0.0000       3.312648        90.1417 
 421   0.0000       3.321778        90.3902 
 422   0.0000       3.323192        90.4287 
 423   0.0000       3.345747        91.0424 
 424   0.0000       3.348939        91.1293 
 425   0.0000       3.364131        91.5427 
 426   0.0000       3.370468        91.7151 
 427   0.0000       3.374162        91.8156 
 428   0.0000       3.390516        92.2606 
 429   0.0000       3.394026        92.3561 
 430   0.0000       3.411081        92.8202 
 431   0.0000       3.416860        92.9775 
 432   0.0000       3.424705        93.1910 
 433   0.0000       3.432011        93.3898 
 434   0.0000       3.436286        93.5061 
 435   0.0000       3.439007        93.5801 
 436   0.0000       3.453102        93.9637 
 437   0.0000       3.463274        94.2405 
 438   0.0000       3.472604        94.4944 
 439   0.0000       3.489254        94.9474 
 440   0.0000       3.495348        95.1133 
 441   0.0000       3.512116        95.5695 
 442   0.0000       3.520243        95.7907 
 443   0.0000       3.530053        96.0576 
 444   0.0000       3.537068        96.2485 
 445   0.0000       3.548536        96.5606 
 446   0.0000       3.566250        97.0426 
 447   0.0000       3.572625        97.2161 
 448   0.0000       3.576185        97.3130 
 449   0.0000       3.589140        97.6655 
 450   0.0000       3.597355        97.8890 
 451   0.0000       3.605872        98.1208 
 452   0.0000       3.618850        98.4739 
 453   0.0000       3.622981        98.5863 
 454   0.0000       3.640930        99.0747 
 455   0.0000       3.648412        99.2783 
 456   0.0000       3.665321        99.7384 
 457   0.0000       3.667791        99.8057 
 458   0.0000       3.674709        99.9939 
 459   0.0000       3.684686       100.2654 
 460   0.0000       3.689517       100.3969 
 461   0.0000       3.704512       100.8049 
 462   0.0000       3.716385       101.1280 
 463   0.0000       3.722258       101.2878 
 464   0.0000       3.733599       101.5964 
 465   0.0000       3.743134       101.8559 
 466   0.0000       3.752188       102.1022 
 467   0.0000       3.774418       102.7071 
 468   0.0000       3.788538       103.0913 
 469   0.0000       3.792075       103.1876 
 470   0.0000       3.813925       103.7822 
 471   0.0000       3.830516       104.2336 
 472   0.0000       3.840949       104.5175 
 473   0.0000       3.856604       104.9435 
 474   0.0000       3.871129       105.3388 
 475   0.0000       3.872696       105.3814 
 476   0.0000       3.888790       105.8194 
 477   0.0000       3.891752       105.8999 
 478   0.0000       3.905787       106.2819 
 479   0.0000       3.913824       106.5006 
 480   0.0000       3.920113       106.6717 
 481   0.0000       3.927493       106.8725 
 482   0.0000       3.940658       107.2308 
 483   0.0000       3.948753       107.4510 
 484   0.0000       3.961836       107.8070 
 485   0.0000       3.984098       108.4128 
 486   0.0000       4.003144       108.9311 
 487   0.0000       4.012811       109.1942 
 488   0.0000       4.025519       109.5399 
 489   0.0000       4.027874       109.6040 
 490   0.0000       4.031622       109.7060 
 491   0.0000       4.051691       110.2521 
 492   0.0000       4.059079       110.4532 
 493   0.0000       4.062388       110.5432 
 494   0.0000       4.090320       111.3033 
 495   0.0000       4.095446       111.4428 
 496   0.0000       4.108652       111.8021 
 497   0.0000       4.113111       111.9234 
 498   0.0000       4.128556       112.3437 
 499   0.0000       4.131981       112.4369 
 500   0.0000       4.142489       112.7229 
 501   0.0000       4.149458       112.9125 
 502   0.0000       4.156889       113.1147 
 503   0.0000       4.171377       113.5089 
 504   0.0000       4.180692       113.7624 
 505   0.0000       4.207321       114.4870 
 506   0.0000       4.215472       114.7088 
 507   0.0000       4.220281       114.8397 
 508   0.0000       4.226058       114.9969 
 509   0.0000       4.229897       115.1014 
 510   0.0000       4.238308       115.3302 
 511   0.0000       4.251311       115.6841 
 512   0.0000       4.255456       115.7969 
 513   0.0000       4.257884       115.8629 
 514   0.0000       4.271577       116.2355 
 515   0.0000       4.276959       116.3820 
 516   0.0000       4.287094       116.6578 
 517   0.0000       4.289216       116.7155 
 518   0.0000       4.297433       116.9391 
 519   0.0000       4.306723       117.1919 
 520   0.0000       4.312141       117.3393 
 521   0.0000       4.321961       117.6065 
 522   0.0000       4.340967       118.1237 
 523   0.0000       4.343601       118.1954 
 524   0.0000       4.363276       118.7308 
 525   0.0000       4.383628       119.2846 
 526   0.0000       4.397975       119.6750 
 527   0.0000       4.399810       119.7249 
 528   0.0000       4.417006       120.1928 
 529   0.0000       4.431915       120.5985 
 530   0.0000       4.438285       120.7719 
 531   0.0000       4.453282       121.1800 
 532   0.0000       4.471403       121.6730 
 533   0.0000       4.497877       122.3935 
 534   0.0000       4.511392       122.7612 
 535   0.0000       4.517934       122.9392 
 536   0.0000       4.535463       123.4162 
 537   0.0000       4.554390       123.9313 
 538   0.0000       4.555098       123.9505 
 539   0.0000       4.573484       124.4508 
 540   0.0000       4.583982       124.7365 
 541   0.0000       4.609356       125.4270 
 542   0.0000       4.642120       126.3185 
 543   0.0000       4.651076       126.5622 
 544   0.0000       4.665043       126.9423 
 545   0.0000       4.707312       128.0925 
 546   0.0000       4.718057       128.3849 
 547   0.0000       4.729834       128.7053 
 548   0.0000       4.766189       129.6946 
 549   0.0000       4.793375       130.4344 
 550   0.0000       4.807849       130.8282 
 551   0.0000       4.814335       131.0047 
 552   0.0000       4.840059       131.7047 
 553   0.0000       4.845463       131.8518 
 554   0.0000       4.848299       131.9289 
 555   0.0000       4.867116       132.4410 
 556   0.0000       4.875621       132.6724 
 557   0.0000       4.962211       135.0286 
 558   0.0000       4.983062       135.5960 
 559   0.0000       5.004045       136.1670 
 560   0.0000       5.017232       136.5258 
 561   0.0000       5.054534       137.5409 
 562   0.0000       5.070512       137.9757 
 563   0.0000       5.102479       138.8455 
 564   0.0000       5.133367       139.6860 
 565   0.0000       5.140037       139.8675 
 566   0.0000       5.189594       141.2160 
 567   0.0000       5.214137       141.8839 
 568   0.0000       5.245700       142.7428 
 569   0.0000       5.264240       143.2472 
 570   0.0000       5.273826       143.5081 
 571   0.0000       5.278889       143.6459 
 572   0.0000       5.295564       144.0996 
 573   0.0000       5.317462       144.6955 
 574   0.0000       5.320517       144.7786 
 575   0.0000       5.338666       145.2725 
 576   0.0000       5.348574       145.5421 
 577   0.0000       5.358617       145.8154 
 578   0.0000       5.390268       146.6766 
 579   0.0000       5.395322       146.8142 
 580   0.0000       5.397994       146.8869 
 581   0.0000       5.417633       147.4213 
 582   0.0000       5.438072       147.9774 
 583   0.0000       5.464025       148.6837 
 584   0.0000       5.475995       149.0094 
 585   0.0000       5.512807       150.0111 
 586   0.0000       5.530562       150.4942 
 587   0.0000       5.586838       152.0256 
 588   0.0000       5.640317       153.4808 
 589   0.0000       5.690907       154.8574 
 590   0.0000       5.735629       156.0744 
 591   0.0000       5.742654       156.2656 
 592   0.0000       5.781256       157.3160 
 593   0.0000       5.788212       157.5052 
 594   0.0000       5.839637       158.9046 
 595   0.0000       5.949537       161.8951 
 596   0.0000       5.970389       162.4626 
 597   0.0000       6.003591       163.3660 
 598   0.0000       6.013209       163.6277 
 599   0.0000       6.026786       163.9972 
 600   0.0000       6.043886       164.4625 
 601   0.0000       6.168028       167.8406 
 602   0.0000       6.571370       178.8161 
 603   0.0000       6.733533       183.2288 
 604   0.0000       6.774593       184.3460 
 605   0.0000       8.120932       220.9818 
 606   0.0000       8.146140       221.6677 
 607   0.0000       8.224343       223.7958 
 608   0.0000      16.604268       451.8251 
 609   0.0000      23.524759       640.1412 
 610   0.0000      23.706805       645.0950 
 611   0.0000      23.738903       645.9684 
 612   0.0000      24.094856       655.6544 
 613   0.0000      24.099014       655.7675 
 614   0.0000      24.140108       656.8857 
 615   0.0000      24.178383       657.9272 
 616   0.0000      39.817372      1083.4858 
 617   0.0000      40.604423      1104.9025 
 618   0.0000      42.766294      1163.7300 
 619   0.0000      59.534050      1620.0039 
 620   0.0000     361.397696      9834.1313 

                    ********************************
                    * MULLIKEN POPULATION ANALYSIS *
                    ********************************

-----------------------
MULLIKEN ATOMIC CHARGES
-----------------------
   0 Ir:    0.745844
   1 C :   -0.646815
   2 C :   -0.082769
   3 C :    0.015296
   4 C :    0.271300
   5 C :   -0.251203
   6 C :    0.107711
   7 H :    0.132388
   8 H :    0.194718
   9 H :    0.127603
  10 H :    0.039768
  11 H :    0.014271
  12 H :    0.044442
  13 H :    0.037231
  14 H :    0.068567
  15 C :   -0.543443
  16 H :    0.054421
  17 H :    0.126190
  18 H :    0.142528
  19 H :    0.183255
  20 P :    0.083062
  21 H :    0.046001
  22 H :    0.050247
  23 H :    0.039386
Sum of atomic charges:    1.0000000

--------------------------------
MULLIKEN REDUCED ORBITAL CHARGES
--------------------------------
  0 Irs       :     2.317143  s :     2.317143
      pz      :     2.209372  p :     6.573620
      px      :     2.153570
      py      :     2.210679
      dz2     :     1.637304  d :     7.282096
      dxz     :     1.278149
      dyz     :     1.523566
      dx2y2   :     1.556441
      dxy     :     1.286636
      f0      :     0.006750  f :     0.078886
      f+1     :     0.012522
      f-1     :     0.006878
      f+2     :     0.012470
      f-2     :     0.013846
      f+3     :     0.012927
      f-3     :     0.013495
      g0      :     0.000204  g :     0.002411
      g+1     :     0.000207
      g-1     :     0.000174
      g+2     :     0.000249
      g-2     :     0.000324
      g+3     :     0.000312
      g-3     :     0.000289
      g+4     :     0.000295
      g-4     :     0.000358
  1 C s       :     3.179880  s :     3.179880
      pz      :     1.119516  p :     3.395626
      px      :     1.171019
      py      :     1.105091
      dz2     :     0.003957  d :     0.068051
      dxz     :     0.013177
      dyz     :     0.014593
      dx2y2   :     0.039739
      dxy     :    -0.003414
      f0      :     0.000384  f :     0.003257
      f+1     :     0.000632
      f-1     :     0.000357
      f+2     :     0.000701
      f-2     :     0.000407
      f+3     :     0.000305
      f-3     :     0.000471
  2 C s       :     3.245028  s :     3.245028
      pz      :     0.851040  p :     2.790975
      px      :     0.981650
      py      :     0.958285
      dz2     :     0.008586  d :     0.037891
      dxz     :     0.013159
      dyz     :    -0.010241
      dx2y2   :     0.012163
      dxy     :     0.014224
      f0      :     0.001399  f :     0.008875
      f+1     :     0.000824
      f-1     :     0.001634
      f+2     :     0.001546
      f-2     :     0.001407
      f+3     :     0.000776
      f-3     :     0.001290
  3 C s       :     3.230220  s :     3.230220
      pz      :     0.935582  p :     2.754624
      px      :     0.969212
      py      :     0.849830
      dz2     :    -0.003315  d :    -0.009017
      dxz     :    -0.014483
      dyz     :     0.004892
      dx2y2   :    -0.000232
      dxy     :     0.004121
      f0      :     0.001349  f :     0.008877
      f+1     :     0.001056
      f-1     :     0.001876
      f+2     :     0.001376
      f-2     :     0.001496
      f+3     :     0.000953
      f-3     :     0.000770
  4 C s       :     3.020054  s :     3.020054
      pz      :     0.850963  p :     2.721920
      px      :     0.999162
      py      :     0.871794
      dz2     :     0.005064  d :    -0.022136
      dxz     :     0.005041
      dyz     :    -0.006643
      dx2y2   :    -0.012204
      dxy     :    -0.013394
      f0      :     0.001215  f :     0.008862
      f+1     :     0.001181
      f-1     :     0.001939
      f+2     :     0.001253
      f-2     :     0.000993
      f+3     :     0.001363
      f-3     :     0.000918
  5 C s       :     3.336306  s :     3.336306
      pz      :     0.922624  p :     2.854113
      px      :     0.968299
      py      :     0.963191
      dz2     :    -0.009323  d :     0.051606
      dxz     :     0.018821
      dyz     :     0.005314
      dx2y2   :     0.024539
      dxy     :     0.012256
      f0      :     0.001819  f :     0.009178
      f+1     :     0.000955
      f-1     :     0.001714
      f+2     :     0.001464
      f-2     :     0.000719
      f+3     :     0.001505
      f-3     :     0.001003
  6 C s       :     3.131627  s :     3.131627
      pz      :     0.879454  p :     2.774097
      px      :     0.968857
      py      :     0.925786
      dz2     :    -0.025962  d :    -0.022278
      dxz     :    -0.012756
      dyz     :    -0.025417
      dx2y2   :     0.018413
      dxy     :     0.023443
      f0      :     0.001717  f :     0.008844
      f+1     :     0.001078
      f-1     :     0.001537
      f+2     :     0.001512
      f-2     :     0.000968
      f+3     :     0.000857
      f-3     :     0.001175
  7 H s       :     0.809747  s :     0.809747
      pz      :     0.025267  p :     0.056012
      px      :     0.013462
      py      :     0.017283
      dz2     :     0.000518  d :     0.001854
      dxz     :     0.000372
      dyz     :     0.000574
      dx2y2   :     0.000222
      dxy     :     0.000167
  8 H s       :     0.752409  s :     0.752409
      pz      :     0.012098  p :     0.051114
      px      :     0.026773
      py      :     0.012243
      dz2     :     0.000155  d :     0.001760
      dxz     :     0.000553
      dyz     :     0.000108
      dx2y2   :     0.000357
      dxy     :     0.000586
  9 H s       :     0.810894  s :     0.810894
      pz      :     0.010533  p :     0.059680
      px      :     0.016151
      py      :     0.032995
      dz2     :     0.000295  d :     0.001823
      dxz     :     0.000139
      dyz     :     0.000553
      dx2y2   :     0.000254
      dxy     :     0.000583
 10 H s       :     0.917724  s :     0.917724
      pz      :     0.011235  p :     0.040624
      px      :     0.016397
      py      :     0.012992
      dz2     :     0.000623  d :     0.001884
      dxz     :     0.000262
      dyz     :     0.000290
      dx2y2   :     0.000331
      dxy     :     0.000377
 11 H s       :     0.949676  s :     0.949676
      pz      :     0.008911  p :     0.034178
      px      :     0.014441
      py      :     0.010827
      dz2     :     0.000580  d :     0.001875
      dxz     :     0.000424
      dyz     :     0.000488
      dx2y2   :     0.000211
      dxy     :     0.000172
 12 H s       :     0.916891  s :     0.916891
      pz      :     0.006231  p :     0.036805
      px      :     0.015577
      py      :     0.014998
      dz2     :     0.000119  d :     0.001862
      dxz     :     0.000029
      dyz     :     0.000803
      dx2y2   :     0.000312
      dxy     :     0.000598
 13 H s       :     0.917542  s :     0.917542
      pz      :     0.017368  p :     0.043358
      px      :     0.017933
      py      :     0.008058
      dz2     :     0.000485  d :     0.001868
      dxz     :     0.000544
      dyz     :     0.000690
      dx2y2   :     0.000080
      dxy     :     0.000069
 14 H s       :     0.898217  s :     0.898217
      pz      :     0.004681  p :     0.031339
      px      :     0.013547
      py      :     0.013112
      dz2     :     0.000430  d :     0.001876
      dxz     :     0.000203
      dyz     :     0.000426
      dx2y2   :     0.000380
      dxy     :     0.000437
 15 C s       :     3.124911  s :     3.124911
      pz      :     1.172193  p :     3.352360
      px      :     1.179581
      py      :     1.000587
      dz2     :     0.024088  d :     0.062632
      dxz     :     0.013826
      dyz     :     0.017158
      dx2y2   :     0.009313
      dxy     :    -0.001752
      f0      :     0.000700  f :     0.003539
      f+1     :     0.000108
      f-1     :     0.000519
      f+2     :     0.000555
      f-2     :     0.000579
      f+3     :     0.000645
      f-3     :     0.000433
 16 H s       :     0.929639  s :     0.929639
      pz      :    -0.029656  p :     0.011475
      px      :    -0.004260
      py      :     0.045392
      dz2     :     0.000927  d :     0.004464
      dxz     :     0.000994
      dyz     :     0.001462
      dx2y2   :     0.000508
      dxy     :     0.000574
 17 H s       :     0.813003  s :     0.813003
      pz      :     0.014201  p :     0.058970
      px      :     0.012506
      py      :     0.032263
      dz2     :     0.000532  d :     0.001837
      dxz     :     0.000288
      dyz     :     0.000232
      dx2y2   :     0.000511
      dxy     :     0.000275
 18 H s       :     0.809657  s :     0.809657
      pz      :     0.021751  p :     0.046118
      px      :     0.011672
      py      :     0.012695
      dz2     :     0.000537  d :     0.001697
      dxz     :     0.000575
      dyz     :     0.000357
      dx2y2   :     0.000120
      dxy     :     0.000108
 19 H s       :     0.753403  s :     0.753403
      pz      :     0.009325  p :     0.061560
      px      :     0.030410
      py      :     0.021825
      dz2     :     0.000302  d :     0.001782
      dxz     :     0.000492
      dyz     :     0.000088
      dx2y2   :     0.000277
      dxy     :     0.000624
 20 P s       :     5.565114  s :     5.565114
      pz      :     2.963629  p :     9.004853
      px      :     3.110692
      py      :     2.930531
      dz2     :     0.068807  d :     0.322009
      dxz     :     0.066373
      dyz     :     0.054649
      dx2y2   :     0.075245
      dxy     :     0.056936
      f0      :     0.003027  f :     0.024962
      f+1     :     0.003829
      f-1     :     0.003647
      f+2     :     0.003325
      f-2     :     0.003300
      f+3     :     0.002977
      f-3     :     0.004857
 21 H s       :     0.937839  s :     0.937839
      pz      :     0.007542  p :     0.014899
      px      :     0.002779
      py      :     0.004578
      dz2     :     0.000415  d :     0.001262
      dxz     :     0.000320
      dyz     :     0.000348
      dx2y2   :     0.000125
      dxy     :     0.000054
 22 H s       :     0.933982  s :     0.933982
      pz      :     0.002629  p :     0.014512
      px      :     0.000907
      py      :     0.010976
      dz2     :     0.000114  d :     0.001259
      dxz     :     0.000040
      dyz     :     0.000387
      dx2y2   :     0.000379
      dxy     :     0.000340
 23 H s       :     0.947522  s :     0.947522
      pz      :     0.000313  p :     0.011797
      px      :     0.009977
      py      :     0.001507
      dz2     :     0.000239  d :     0.001295
      dxz     :     0.000357
      dyz     :     0.000130
      dx2y2   :     0.000319
      dxy     :     0.000250


                     *******************************
                     * LOEWDIN POPULATION ANALYSIS *
                     *******************************

----------------------
LOEWDIN ATOMIC CHARGES
----------------------
   0 Ir:    1.030742
   1 C :   -0.000134
   2 C :   -0.050681
   3 C :   -0.062690
   4 C :   -0.080081
   5 C :   -0.058754
   6 C :   -0.048494
   7 H :   -0.077147
   8 H :   -0.091803
   9 H :   -0.083408
  10 H :    0.028211
  11 H :    0.022564
  12 H :    0.025485
  13 H :    0.018428
  14 H :    0.018366
  15 C :    0.090535
  16 H :   -0.094222
  17 H :   -0.050921
  18 H :   -0.069055
  19 H :   -0.062496
  20 P :    0.936572
  21 H :   -0.120851
  22 H :   -0.112557
  23 H :   -0.107611

-------------------------------
LOEWDIN REDUCED ORBITAL CHARGES
-------------------------------
  0 Irs       :     1.992449  s :     1.992449
      pz      :     2.124420  p :     6.403614
      px      :     2.150140
      py      :     2.129054
      dz2     :     1.600526  d :     7.400490
      dxz     :     1.354396
      dyz     :     1.519926
      dx2y2   :     1.594465
      dxy     :     1.331177
      f0      :     0.014951  f :     0.167549
      f+1     :     0.025244
      f-1     :     0.014596
      f+2     :     0.029019
      f-2     :     0.027710
      f+3     :     0.027451
      f-3     :     0.028577
      g0      :     0.000469  g :     0.005157
      g+1     :     0.000427
      g-1     :     0.000329
      g+2     :     0.000609
      g-2     :     0.000602
      g+3     :     0.000692
      g-3     :     0.000640
      g+4     :     0.000631
      g-4     :     0.000757
  1 C s       :     2.698070  s :     2.698070
      pz      :     0.929229  p :     2.782094
      px      :     0.944947
      py      :     0.907918
      dz2     :     0.119605  d :     0.497465
      dxz     :     0.104101
      dyz     :     0.084073
      dx2y2   :     0.139009
      dxy     :     0.050677
      f0      :     0.003284  f :     0.022505
      f+1     :     0.005010
      f-1     :     0.002051
      f+2     :     0.003747
      f-2     :     0.001945
      f+3     :     0.002514
      f-3     :     0.003954
  2 C s       :     2.642023  s :     2.642023
      pz      :     0.899427  p :     2.572727
      px      :     0.732413
      py      :     0.940888
      dz2     :     0.215847  d :     0.785519
      dxz     :     0.158422
      dyz     :     0.177313
      dx2y2   :     0.142900
      dxy     :     0.091037
      f0      :     0.008862  f :     0.050412
      f+1     :     0.004458
      f-1     :     0.010167
      f+2     :     0.009520
      f-2     :     0.009183
      f+3     :     0.003026
      f-3     :     0.005196
  3 C s       :     2.643880  s :     2.643880
      pz      :     0.918386  p :     2.586420
      px      :     0.757723
      py      :     0.910312
      dz2     :     0.189902  d :     0.782161
      dxz     :     0.105133
      dyz     :     0.188769
      dx2y2   :     0.147795
      dxy     :     0.150562
      f0      :     0.006532  f :     0.050228
      f+1     :     0.004743
      f-1     :     0.012147
      f+2     :     0.008915
      f-2     :     0.009322
      f+3     :     0.004634
      f-3     :     0.003935
  4 C s       :     2.641469  s :     2.641469
      pz      :     0.898378  p :     2.598682
      px      :     0.777514
      py      :     0.922790
      dz2     :     0.169774  d :     0.789976
      dxz     :     0.139636
      dyz     :     0.232198
      dx2y2   :     0.125551
      dxy     :     0.122816
      f0      :     0.007522  f :     0.049954
      f+1     :     0.006745
      f-1     :     0.012926
      f+2     :     0.005648
      f-2     :     0.005654
      f+3     :     0.006452
      f-3     :     0.005006
  5 C s       :     2.640680  s :     2.640680
      pz      :     0.915181  p :     2.561203
      px      :     0.721037
      py      :     0.924984
      dz2     :     0.161855  d :     0.804826
      dxz     :     0.125058
      dyz     :     0.243523
      dx2y2   :     0.140721
      dxy     :     0.133670
      f0      :     0.010797  f :     0.052045
      f+1     :     0.006340
      f-1     :     0.010862
      f+2     :     0.006563
      f-2     :     0.003883
      f+3     :     0.007260
      f-3     :     0.006340
  6 C s       :     2.640232  s :     2.640232
      pz      :     0.922425  p :     2.590656
      px      :     0.752963
      py      :     0.915268
      dz2     :     0.165485  d :     0.767805
      dxz     :     0.108336
      dyz     :     0.209015
      dx2y2   :     0.147600
      dxy     :     0.137369
      f0      :     0.010663  f :     0.049801
      f+1     :     0.005224
      f-1     :     0.009031
      f+2     :     0.008346
      f-2     :     0.005381
      f+3     :     0.004660
      f-3     :     0.006497
  7 H s       :     0.723229  s :     0.723229
      pz      :     0.130179  p :     0.323580
      px      :     0.104152
      py      :     0.089250
      dz2     :     0.009654  d :     0.030338
      dxz     :     0.008068
      dyz     :     0.007172
      dx2y2   :     0.002890
      dxy     :     0.002554
  8 H s       :     0.723260  s :     0.723260
      pz      :     0.102730  p :     0.338420
      px      :     0.143120
      py      :     0.092570
      dz2     :     0.003090  d :     0.030122
      dxz     :     0.009367
      dyz     :     0.001336
      dx2y2   :     0.008297
      dxy     :     0.008032
  9 H s       :     0.724552  s :     0.724552
      pz      :     0.101690  p :     0.328625
      px      :     0.087458
      py      :     0.139478
      dz2     :     0.004617  d :     0.030231
      dxz     :     0.001749
      dyz     :     0.008404
      dx2y2   :     0.007265
      dxy     :     0.008196
 10 H s       :     0.690887  s :     0.690887
      pz      :     0.088302  p :     0.252185
      px      :     0.067839
      py      :     0.096044
      dz2     :     0.006473  d :     0.028717
      dxz     :     0.003322
      dyz     :     0.009190
      dx2y2   :     0.005133
      dxy     :     0.004599
 11 H s       :     0.697117  s :     0.697117
      pz      :     0.108618  p :     0.251404
      px      :     0.076867
      py      :     0.065919
      dz2     :     0.009431  d :     0.028915
      dxz     :     0.007201
      dyz     :     0.007708
      dx2y2   :     0.002390
      dxy     :     0.002184
 12 H s       :     0.695079  s :     0.695079
      pz      :     0.059236  p :     0.250765
      px      :     0.067970
      py      :     0.123560
      dz2     :     0.003186  d :     0.028670
      dxz     :     0.000232
      dyz     :     0.008425
      dx2y2   :     0.008982
      dxy     :     0.007844
 13 H s       :     0.698741  s :     0.698741
      pz      :     0.118224  p :     0.254129
      px      :     0.074921
      py      :     0.060984
      dz2     :     0.010773  d :     0.028702
      dxz     :     0.008033
      dyz     :     0.008210
      dx2y2   :     0.000847
      dxy     :     0.000840
 14 H s       :     0.698681  s :     0.698681
      pz      :     0.072085  p :     0.253929
      px      :     0.074909
      py      :     0.106935
      dz2     :     0.004636  d :     0.029024
      dxz     :     0.002523
      dyz     :     0.008499
      dx2y2   :     0.006696
      dxy     :     0.006670
 15 C s       :     2.676942  s :     2.676942
      pz      :     0.965768  p :     2.723376
      px      :     0.946059
      py      :     0.811548
      dz2     :     0.060472  d :     0.486478
      dxz     :     0.068405
      dyz     :     0.157223
      dx2y2   :     0.114048
      dxy     :     0.086330
      f0      :     0.004169  f :     0.022669
      f+1     :     0.000809
      f-1     :     0.003474
      f+2     :     0.004380
      f-2     :     0.004789
      f+3     :     0.003228
      f-3     :     0.001820
 16 H s       :     0.605712  s :     0.605712
      pz      :     0.121338  p :     0.448784
      px      :     0.113339
      py      :     0.214108
      dz2     :     0.008224  d :     0.039725
      dxz     :     0.008456
      dyz     :     0.014014
      dx2y2   :     0.004532
      dxy     :     0.004499
 17 H s       :     0.712128  s :     0.712128
      pz      :     0.103168  p :     0.309040
      px      :     0.101047
      py      :     0.104825
      dz2     :     0.006820  d :     0.029752
      dxz     :     0.005126
      dyz     :     0.005815
      dx2y2   :     0.006074
      dxy     :     0.005916
 18 H s       :     0.711139  s :     0.711139
      pz      :     0.134617  p :     0.327519
      px      :     0.086077
      py      :     0.106825
      dz2     :     0.009853  d :     0.030397
      dxz     :     0.008742
      dyz     :     0.008823
      dx2y2   :     0.001548
      dxy     :     0.001431
 19 H s       :     0.711464  s :     0.711464
      pz      :     0.094811  p :     0.321314
      px      :     0.138995
      py      :     0.087508
      dz2     :     0.004650  d :     0.029718
      dxz     :     0.009189
      dyz     :     0.001042
      dx2y2   :     0.007328
      dxy     :     0.007508
 20 P s       :     4.725019  s :     4.725019
      pz      :     2.822799  p :     8.535168
      px      :     2.904857
      py      :     2.807513
      dz2     :     0.166594  d :     0.740037
      dxz     :     0.139610
      dyz     :     0.136643
      dx2y2   :     0.176098
      dxy     :     0.121093
      f0      :     0.007656  f :     0.063202
      f+1     :     0.009813
      f-1     :     0.008717
      f+2     :     0.008272
      f-2     :     0.008594
      f+3     :     0.007958
      f-3     :     0.012193
 21 H s       :     0.846559  s :     0.846559
      pz      :     0.127132  p :     0.262528
      px      :     0.062799
      py      :     0.072597
      dz2     :     0.004234  d :     0.011763
      dxz     :     0.002714
      dyz     :     0.003520
      dx2y2   :     0.000758
      dxy     :     0.000537
 22 H s       :     0.836635  s :     0.836635
      pz      :     0.058930  p :     0.264052
      px      :     0.063922
      py      :     0.141199
      dz2     :     0.001384  d :     0.011871
      dxz     :     0.000320
      dyz     :     0.003067
      dx2y2   :     0.003837
      dxy     :     0.003261
 23 H s       :     0.825591  s :     0.825591
      pz      :     0.083211  p :     0.269985
      px      :     0.122212
      py      :     0.064562
      dz2     :     0.001855  d :     0.012036
      dxz     :     0.003647
      dyz     :     0.000960
      dx2y2   :     0.003402
      dxy     :     0.002172


                      *****************************
                      * MAYER POPULATION ANALYSIS *
                      *****************************

  NA   - Mulliken gross atomic population
  ZA   - Total nuclear charge
  QA   - Mulliken gross atomic charge
  VA   - Mayer's total valence
  BVA  - Mayer's bonded valence
  FA   - Mayer's free valence

  ATOM       NA         ZA         QA         VA         BVA        FA
  0 Ir    16.2542    17.0000     0.7458     4.4932     4.4932     0.0000
  1 C      6.6468     6.0000    -0.6468     3.8949     3.8949     0.0000
  2 C      6.0828     6.0000    -0.0828     3.6955     3.6955     0.0000
  3 C      5.9847     6.0000     0.0153     3.3109     3.3109     0.0000
  4 C      5.7287     6.0000     0.2713     3.0548     3.0548    -0.0000
  5 C      6.2512     6.0000    -0.2512     3.8012     3.8012     0.0000
  6 C      5.8923     6.0000     0.1077     3.2322     3.2322     0.0000
  7 H      0.8676     1.0000     0.1324     1.1162     1.1162     0.0000
  8 H      0.8053     1.0000     0.1947     1.0543     1.0543     0.0000
  9 H      0.8724     1.0000     0.1276     1.1303     1.1303    -0.0000
 10 H      0.9602     1.0000     0.0398     1.0054     1.0054     0.0000
 11 H      0.9857     1.0000     0.0143     1.0010     1.0010     0.0000
 12 H      0.9556     1.0000     0.0444     0.9972     0.9972     0.0000
 13 H      0.9628     1.0000     0.0372     1.0189     1.0189    -0.0000
 14 H      0.9314     1.0000     0.0686     0.9717     0.9717    -0.0000
 15 C      6.5434     6.0000    -0.5434     3.8904     3.8904     0.0000
 16 H      0.9456     1.0000     0.0544     0.9598     0.9598     0.0000
 17 H      0.8738     1.0000     0.1262     1.1257     1.1257    -0.0000
 18 H      0.8575     1.0000     0.1425     1.0658     1.0658     0.0000
 19 H      0.8167     1.0000     0.1833     1.0681     1.0681     0.0000
 20 P     14.9169    15.0000     0.0831     3.9461     3.9461     0.0000
 21 H      0.9540     1.0000     0.0460     0.9546     0.9546     0.0000
 22 H      0.9498     1.0000     0.0502     0.9579     0.9579    -0.0000
 23 H      0.9606     1.0000     0.0394     0.9732     0.9732    -0.0000

  Mayer bond orders larger than 0.100000
B(  0-Ir,  1-C ) :   0.5770 B(  0-Ir,  2-C ) :   0.4151 B(  0-Ir,  3-C ) :   0.4133 
B(  0-Ir,  4-C ) :   0.4550 B(  0-Ir,  5-C ) :   0.4509 B(  0-Ir,  6-C ) :   0.3955 
B(  0-Ir, 15-C ) :   0.3968 B(  0-Ir, 16-H ) :   0.5472 B(  0-Ir, 20-P ) :   0.8462 
B(  1-C ,  5-C ) :   0.1100 B(  1-C ,  7-H ) :   1.0158 B(  1-C ,  8-H ) :   0.9648 
B(  1-C ,  9-H ) :   1.0363 B(  2-C ,  3-C ) :   1.3133 B(  2-C ,  4-C ) :  -0.2564 
B(  2-C ,  6-C ) :   1.0960 B(  2-C , 12-H ) :   0.9794 B(  2-C , 15-C ) :   0.1153 
B(  3-C ,  4-C ) :   1.0597 B(  3-C ,  5-C ) :  -0.1405 B(  3-C ,  6-C ) :  -0.2183 
B(  3-C , 13-H ) :   0.9976 B(  4-C ,  5-C ) :   1.1276 B(  4-C ,  6-C ) :  -0.2551 
B(  4-C , 14-H ) :   0.9539 B(  5-C ,  6-C ) :   1.2603 B(  5-C , 10-H ) :   0.9701 
B(  6-C , 11-H ) :   0.9718 B( 15-C , 16-H ) :   0.3001 B( 15-C , 17-H ) :   1.0305 
B( 15-C , 18-H ) :   0.9952 B( 15-C , 19-H ) :   0.9772 B( 20-P , 21-H ) :   0.9636 
B( 20-P , 22-H ) :   0.9668 B( 20-P , 23-H ) :   0.9830 

-------
TIMINGS
-------

Total SCF time: 0 days 0 hours 0 min 48 sec 

Total time                  ....      48.608 sec
Sum of individual times     ....      47.925 sec  ( 98.6%)

Fock matrix formation       ....      42.103 sec  ( 86.6%)
  XC integration            ....       6.228 sec  ( 14.8% of F)
    Basis function eval.    ....       1.071 sec  ( 17.2% of XC)
    Density eval.           ....       1.918 sec  ( 30.8% of XC)
    XC-Functional eval.     ....       0.073 sec  (  1.2% of XC)
    XC-Potential eval.      ....       2.252 sec  ( 36.2% of XC)
Diagonalization             ....       2.008 sec  (  4.1%)
Density matrix formation    ....       0.102 sec  (  0.2%)
Population analysis         ....       0.075 sec  (  0.2%)
Initial guess               ....       1.663 sec  (  3.4%)
Orbital Transformation      ....       0.000 sec  (  0.0%)
Orbital Orthonormalization  ....       0.000 sec  (  0.0%)
DIIS solution               ....       1.302 sec  (  2.7%)
Grid generation             ....       0.672 sec  (  1.4%)


           ************************************************************
           *        Program running with 24 parallel MPI-processes    *
           *              working on a common directory               *
           ************************************************************

------------------------------------------------------------------------------
                                ORCA  MP2 
------------------------------------------------------------------------------

Freezing NCore=24 chemical core electrons

-------------
RI-MP2 ENERGY
-------------
Dimension of the basis                    ...  621
Memory devoted to MP2                     ... 5000 MB   
Data format for buffers                   ... DOUBLE
Compression type for matrix containers    ... UNCOMPRESSED
Overall scaling of the MP2 energy         ...   2.700e-01
Calculating two index integrals           ... done (    0.021 sec)
Cholesky decomposition of V**-1           ... done (    0.231 sec)

-----------------
RI-TRANSFORMATION (AUX index driven)
-----------------

Dimension of the orbital-basis         ... 621
Dimension of the aux-basis             ... 1561
Transformation of internal/external MOs...   12-  43 to   44- 620
Number Format for Storage              ... Double (8 Byte)
Integral mode                          ... Direct

First Phase: integral generation and transformation of MO indices
  Aux angular momentum 0               ... done (    0.074 sec)
  Aux angular momentum 1               ... done (    0.149 sec)
  Aux angular momentum 2               ... done (    0.181 sec)
  Aux angular momentum 3               ... done (    0.182 sec)
  Aux angular momentum 4               ... done (    0.074 sec)
  Aux angular momentum 5               ... done (    0.096 sec)
  Aux angular momentum 6               ... done (    0.122 sec)
Closing buffer VIA ( 0.21 GB; CompressionRatio= 1.00)
  Phase 1 completed in     0.979 sec
Second Phase: sorting and transformation of aux index

IA-Transformation
Memory available                       ... 4951 MB 
Max. # MO pairs treated in a batch     ... 2    
# of internal orbitals                 ... 32
# batches for internal orbitals        ... 1
Closing buffer IAV ( 0.01 GB; CompressionRatio= 1.00)
(ia|v) transformation done in     0.173 sec

  Phase 2 completed in     0.416 sec
RI-Integral transformation completed in     1.407 sec
Opening buffers                              ... done

Starting loop over batches of integrals:

Operator 0  - window                       ... ( 12- 43)x( 44-620)
Operator 0  - Memory available             ...  5000 MB
Operator 0  - Memory needed per MO         ...   6.9 MB
Operator 0  - Number of orbitals per batch ... 2
Operator 0  - Number of batches            ... 1

OPERATOR  0   PASS   0:  MOs    12 ...   13 +   14 ...   15 +   16 ...   17 +   18 ...   19
                            +   20 ...   21 +   22 ...   23 +   24 ...   25 +   26 ...   27
                            +   28 ...   29 +   30 ...   31 +   32 ...   33 +   34 ...   35
                            +   36 ...   37 +   38 ...   39 +   40 ...   41 +   42 ...   43
  Reading integrals       ... ok
Time spent in pair loops =     0.102 sec
Deleting buffer (Ka|jb)[aa] ...done

-----------------------------------------------
 RI-MP2 CORRELATION ENERGY:     -0.683027302 Eh
-----------------------------------------------


-------
TIMINGS
-------

Total time                :    3.158 sec
Integral trafo            :    1.418 sec ( 44.9%)
I/O of integrals          :    0.014 sec (  0.4%)
K(i,j) Operators          :    0.054 sec (  1.7%)
T(i,j) pair energies      :    0.012 sec (  0.4%)
V-calculation             :    0.021 sec (  0.7%)
V**(-1/2)                 :    0.231 sec (  7.3%)
Gamma(ia|P)               :    0.000 sec (  0.0%)
Gamma-Trafo               :    0.000 sec (  0.0%)
D(virtual)                :    0.000 sec (  0.0%)
D(internal)               :    0.000 sec (  0.0%)
W(virtual)                :    0.000 sec (  0.0%)
W(internal)               :    0.000 sec (  0.0%)
L(virtual)                :    0.000 sec (  0.0%)
L(internal)               :    0.000 sec (  0.0%)
G(D)                      :    0.000 sec (  0.0%)
G(Z)                      :    0.000 sec (  0.0%)
Z-Vector Solution         :    0.000 sec (  0.0%)
Z-Vector Solution         :    0.000 sec (  0.0%)
3-Index Derivative 
+ Separable RIJ part      :    0.000 sec (  0.0%)
2-Index Derivative 
+ Separable RIJ part      :    0.000 sec (  0.0%)
Separable Gradient (X)    :    0.000 sec (  0.0%)


---------------------------------------
MP2 TOTAL ENERGY:     -720.863632611 Eh
---------------------------------------


-------------------------------------------------------------------------------
                          DFT DISPERSION CORRECTION                            
                                                                               
                              DFTD3 V3.1  Rev 1                                
                          USING Becke-Johnson damping                          
-------------------------------------------------------------------------------
The B2PLYP functional is recognized
Active option DFTDOPT                   ...         4   

molecular C6(AA) [au] = 7346.273217 


            DFT-D V3
 parameters
 s6 scaling factor         :     0.6400 
 a1 scaling factor         :     0.3065 
 s8 scaling factor         :     0.9147 
 a2 scaling factor         :     5.0570 
 ad hoc parameters k1-k3   :    16.0000     1.3333    -4.0000 

 Edisp/kcal,au: -17.139976838822  -0.027314288818 
 E6   /kcal   :  -8.638526725 
 E8   /kcal   :  -8.501450114 
 % E8         :  49.600126030 

-------------------------   ----------------
Dispersion correction           -0.027314289
-------------------------   ----------------


-------------------------   --------------------
FINAL SINGLE POINT ENERGY      -720.890946899363
-------------------------   --------------------


                            ***************************************
                            *     ORCA property calculations      *
                            ***************************************


  WARNING: The energy has been calculated at the MP2 level but the densities
           used in the property calculations are still SCF densities
           MP2 response densities have not been calculated 
           use %mp2 Density relaxed end
           or  %mp2 Density unrelaxed end

                                    ---------------------
                                    Active property flags
                                    ---------------------
   (+) Dipole Moment


------------------------------------------------------------------------------
                       ORCA ELECTRIC PROPERTIES CALCULATION
------------------------------------------------------------------------------

Dipole Moment Calculation                       ... on
Quadrupole Moment Calculation                   ... off
Polarizability Calculation                      ... off
GBWName                                         ... TMB31_T1.gbw
Electron density file                           ... TMB31_T1.scfp
The origin for moment calculation is the CENTER OF MASS  = (-0.014281,  0.004026 -0.013184)

-------------
DIPOLE MOMENT
-------------
                                X             Y             Z
Electronic contribution:      4.81161       6.86529     -17.53932
Nuclear contribution   :     -4.43915      -6.73459      18.18954
                        -----------------------------------------
Total Dipole Moment    :      0.37247       0.13070       0.65022
                        -----------------------------------------
Magnitude (a.u.)       :      0.76066
Magnitude (Debye)      :      1.93344



--------------------
Rotational spectrum 
--------------------
 
Rotational constants in cm-1:     0.054508     0.031967     0.031168 
Rotational constants in MHz :  1634.105298   958.356108   934.407674 

 Dipole components along the rotational axes: 
x,y,z [a.u.] :     0.376068     0.043290     0.659773 
x,y,z [Debye]:     0.955888     0.110035     1.677010 

 

Timings for individual modules:

Sum of individual times         ...       55.866 sec (=   0.931 min)
GTO integral calculation        ...        3.162 sec (=   0.053 min)   5.7 %
SCF iterations                  ...       48.956 sec (=   0.816 min)  87.6 %
MP2 module                      ...        3.748 sec (=   0.062 min)   6.7 %
                             ****ORCA TERMINATED NORMALLY****
TOTAL RUN TIME: 0 days 0 hours 0 minutes 56 seconds 406 msec
