
                                 *****************
                                 * O   R   C   A *
                                 *****************

           --- An Ab Initio, DFT and Semiempirical electronic structure package ---

                  #######################################################
                  #                        -***-                        #
                  #          Department of theory and spectroscopy      #
                  #               Directorship: Frank Neese             #
                  #        Max Planck Institute fuer Kohlenforschung    #
                  #                Kaiser Wilhelm Platz 1               #
                  #                 D-45470 Muelheim/Ruhr               #
                  #                      Germany                        #
                  #                                                     #
                  #                  All rights reserved                #
                  #                        -***-                        #
                  #######################################################


                         Program Version 4.2.0 -  RELEASE  -


 With contributions from (in alphabetic order):
   Daniel Aravena         : Magnetic Suceptibility
   Michael Atanasov       : Ab Initio Ligand Field Theory (pilot matlab implementation)
   Alexander A. Auer      : GIAO ZORA, VPT2
   Ute Becker             : Parallelization
   Giovanni Bistoni       : ED, misc. LED, open-shell LED, HFLED
   Martin Brehm           : Molecular dynamics
   Dmytro Bykov           : SCF Hessian
   Vijay G. Chilkuri      : MRCI spin determinant printing, contributions to CSF-ICE
   Dipayan Datta          : RHF DLPNO-CCSD density
   Achintya Kumar Dutta   : EOM-CC, STEOM-CC
   Dmitry Ganyushin       : Spin-Orbit,Spin-Spin,Magnetic field MRCI
   Miquel Garcia          : C-PCM Hessian, Gaussian charge scheme
   Yang Guo               : DLPNO-NEVPT2, CIM, IAO-localization
   Andreas Hansen         : Spin unrestricted coupled pair/coupled cluster methods
   Benjamin Helmich-Paris : CASSCF linear response (MC-RPA)
   Lee Huntington         : MR-EOM, pCC
   Robert Izsak           : Overlap fitted RIJCOSX, COSX-SCS-MP3, EOM
   Christian Kollmar      : KDIIS, OOCD, Brueckner-CCSD(T), CCSD density
   Simone Kossmann        : Meta GGA functionals, TD-DFT gradient, OOMP2, MP2 Hessian
   Martin Krupicka        : AUTO-CI
   Lucas Lang             : DCDCAS
   Dagmar Lenk            : GEPOL surface, SMD
   Dimitrios Liakos       : Extrapolation schemes; Compound Job, initial MDCI parallelization
   Dimitrios Manganas     : Further ROCIS development; embedding schemes
   Dimitrios Pantazis     : SARC Basis sets
   Taras Petrenko         : DFT Hessian,TD-DFT gradient, ASA, ECA, R-Raman, ABS, FL, XAS/XES, NRVS
   Peter Pinski           : DLPNO-MP2, DLPNO-MP2 Gradient
   Christoph Reimann      : Effective Core Potentials
   Marius Retegan         : Local ZFS, SOC
   Christoph Riplinger    : Optimizer, TS searches, QM/MM, DLPNO-CCSD(T), (RO)-DLPNO pert. Triples
   Tobias Risthaus        : Range-separated hybrids, TD-DFT gradient, RPA, STAB
   Michael Roemelt        : Original ROCIS implementation
   Masaaki Saitow         : Open-shell DLPNO-CCSD energy and density
   Barbara Sandhoefer     : DKH picture change effects
   Avijit Sen             : IP-ROCIS
   Kantharuban Sivalingam : CASSCF convergence, NEVPT2, FIC-MRCI
   Bernardo de Souza      : ESD, SOC TD-DFT
   Georgi Stoychev        : AutoAux, RI-MP2 NMR
   Willem Van den Heuvel  : Paramagnetic NMR
   Boris Wezisla          : Elementary symmetry handling
   Frank Wennmohs         : Technical directorship


 We gratefully acknowledge several colleagues who have allowed us to
 interface, adapt or use parts of their codes:
   Stefan Grimme, W. Hujo, H. Kruse,             : VdW corrections, initial TS optimization,
                  C. Bannwarth                     DFT functionals, gCP, sTDA/sTD-DF
   Ed Valeev, F. Pavosevic, A. Kumar             : LibInt (2-el integral package), F12 methods
   Garnet Chan, S. Sharma, J. Yang, R. Olivares  : DMRG
   Ulf Ekstrom                                   : XCFun DFT Library
   Mihaly Kallay                                 : mrcc  (arbitrary order and MRCC methods)
   Andreas Klamt, Michael Diedenhofen            : otool_cosmo (COSMO solvation model)
   Jiri Pittner, Ondrej Demel                    : Mk-CCSD
   Frank Weinhold                                : gennbo (NPA and NBO analysis)
   Christopher J. Cramer and Donald G. Truhlar   : smd solvation model
   Lars Goerigk                                  : TD-DFT with DH, B97 family of functionals
   V. Asgeirsson, H. Jonsson                     : NEB implementation
   FAccTs GmbH                                   : IRC, NEB, NEB-TS, Multilevel, MM, QM/MM, CI optimization
   S Lehtola, MJT Oliveira, MAL Marques          : LibXC Library


 Your calculation uses the libint2 library for the computation of 2-el integrals
 For citations please refer to: http://libint.valeyev.net

 Your ORCA version has been built with support for libXC version: 4.2.3
 For citations please refer to: https://tddft.org/programs/libxc/

 This ORCA versions uses:
   CBLAS   interface :  Fast vector & matrix operations
   LAPACKE interface :  Fast linear algebra routines
   SCALAPACK package :  Parallel linear algebra routines


Your calculation utilizes the atom-pairwise dispersion correction
with the Becke-Johnson damping scheme (D3BJ)
Cite in your paper:
S.Grimme, S.Ehrlich, L.Goerigk, J Comput Chem, (2011), 32, 1456–1465 
S.Grimme, J.Antony, S.Ehrlich and H.Krieg, J.Chem.Phys., 132, (2010), 154104 
   

----- Orbital basis set information -----
Your calculation utilizes the basis: def2-TZVPPD
   F. Weigend and R. Ahlrichs, Phys. Chem. Chem. Phys. 7, 3297 (2005).
   D. Rappoport and F. Furche, J. Chem. Phys. 133 134105 (2010).

----- AuxC basis set information -----
Your calculation utilizes the auxiliary basis: def2-TZVPPD/C
   A. Hellweg, C. Hattig, S. Hofener and W. Klopper, Theor. Chem. Acc. 117, 587 (2007).

----- AuxJK basis set information -----
Your calculation utilizes the auxiliary basis: def2/JK
   H-Ba, Hf-Rn: F. Weigend, J. Comput. Chem. 29, 167 (2008).

================================================================================
                                        WARNINGS
                       Please study these warnings very carefully!
================================================================================


WARNING: your system is open-shell and RHF/RKS was chosen
  ===> : WILL SWITCH to UHF/UKS


WARNING: No MP2 level density has been requested!
         To caclulate MP2 level properties use
         %mp2 Density relaxed end
         or
         %mp2 Density unrelaxed end
         Otherwise for double-hybrid DFT only the energy is correct!

WARNING: The frozen-core approximation is turned on by default for 
         the MP2 part of double-hybrid DFT.

INFO   : the flag for use of LIBINT has been found!

================================================================================
                                       INPUT FILE
================================================================================
NAME = TMD18_MnBr.in
|  1> #
|  2> # TMD18_MnBr ri-B2PLYP-D3BJ/Def2-TZVPPD
|  3> #
|  4> ! rijk ri-b2plyp d3bj def2-tzvppd def2/jk def2-tzvppd/c grid4 nofinalgrid
|  5> 
|  6> *xyz 0 7
|  7> Mn       0.000000    0.000000   -1.400000 
|  8> Br       0.000000    0.000000    1.000000 
|  9> *
| 10> 
| 11> %maxcore 5000
| 12> 
| 13> %pal
| 14> nprocs = 24
| 15> end
| 16> 
| 17> 
| 18>                          ****END OF INPUT****
================================================================================

                       ****************************
                       * Single Point Calculation *
                       ****************************

---------------------------------
CARTESIAN COORDINATES (ANGSTROEM)
---------------------------------
  Mn     0.000000    0.000000   -1.400000
  Br     0.000000    0.000000    1.000000

----------------------------
CARTESIAN COORDINATES (A.U.)
----------------------------
  NO LB      ZA    FRAG     MASS         X           Y           Z
   0 Mn   25.0000    0    54.940    0.000000    0.000000   -2.645617
   1 Br   35.0000    0    79.900    0.000000    0.000000    1.889726

--------------------------------
INTERNAL COORDINATES (ANGSTROEM)
--------------------------------
 Mn     0   0   0     0.000000000000     0.00000000     0.00000000
 Br     1   0   0     2.400000000000     0.00000000     0.00000000

---------------------------
INTERNAL COORDINATES (A.U.)
---------------------------
 Mn     0   0   0     0.000000000000     0.00000000     0.00000000
 Br     1   0   0     4.535342721411     0.00000000     0.00000000

---------------------
BASIS SET INFORMATION
---------------------
There are 2 groups of distinct atoms

 Group   1 Type Mn  : 17s13p7d2f1g contracted to 6s6p4d2f1g pattern {842111/631111/4111/11/1}
 Group   2 Type Br  : 18s14p9d1f contracted to 7s6p5d1f pattern {8421111/641111/51111/1}

Atom   0Mn   basis set group =>   1
Atom   1Br   basis set group =>   2
---------------------------------
AUXILIARY/C BASIS SET INFORMATION
---------------------------------
There are 2 groups of distinct atoms

 Group   1 Type Mn  : 10s10p9d7f5g3h1i contracted to 10s10p9d7f5g3h1i pattern {1111111111/1111111111/111111111/1111111/11111/111/1}
 Group   2 Type Br  : 11s10p9d7f4g1h contracted to 11s10p9d6f4g1h pattern {11111111111/1111111111/111111111/211111/1111/1}

Atom   0Mn   basis set group =>   1
Atom   1Br   basis set group =>   2
----------------------------------
AUXILIARY/JK BASIS SET INFORMATION
----------------------------------
There are 2 groups of distinct atoms

 Group   1 Type Mn  : 19s14p12d10f7g3h1i contracted to 16s13p11d9f5g3h1i pattern {4111111111111111/2111111111111/21111111111/211111111/31111/111/1}
 Group   2 Type Br  : 20s14p13d10f7g3h contracted to 17s13p12d9f6g3h pattern {41111111111111111/2111111111111/211111111111/211111111/211111/111}

Atom   0Mn   basis set group =>   1
Atom   1Br   basis set group =>   2


           ************************************************************
           *        Program running with 24 parallel MPI-processes    *
           *              working on a common directory               *
           ************************************************************
------------------------------------------------------------------------------
                           ORCA GTO INTEGRAL CALCULATION
                           -- RI-GTO INTEGRALS CHOSEN --
------------------------------------------------------------------------------

                         BASIS SET STATISTICS AND STARTUP INFO

Gaussian basis set:
 # of primitive gaussian shells          ...   82
 # of primitive gaussian functions       ...  226
 # of contracted shells                  ...   38
 # of contracted basis functions         ...  124
 Highest angular momentum                ...    4
 Maximum contraction depth               ...    8
Auxiliary gaussian basis set:
 # of primitive gaussian shells          ...  133
 # of primitive gaussian functions       ...  593
 # of contracted shells                  ...  118
 # of contracted aux-basis functions     ...  530
 Highest angular momentum                ...    6
 Maximum contraction depth               ...    4
Ratio of auxiliary to basis functions    ...  4.27
Integral package used                  ... LIBINT
 One Electron integrals                  ... done
 Ordering auxiliary basis shells         ... done
 Integral threshhold             Thresh  ...  1.000e-10
 Primitive cut-off               TCut    ...  1.000e-11
 Pre-screening matrix                    ... done
 Shell pair data                         ... 
 Ordering of the shell pairs             ... done (   0.000 sec) 709 of 741 pairs
 Determination of significant pairs      ... done (   0.000 sec)
 Creation of shell pair data             ... done (   0.000 sec)
 Storage of shell pair data              ... done (   0.000 sec)
 Shell pair data done in (   0.001 sec)
 Computing two index integrals           ... done
 Cholesky decomposition of the V-matrix  ... done


Timings:
 Total evaluation time                   ...   0.249 sec (  0.004 min)
 One electron matrix time                ...   0.029 sec (  0.000 min) = 11.6%
 Schwartz matrix evaluation time         ...   0.141 sec (  0.002 min) = 56.7%
 Two index repulsion integral time       ...   0.042 sec (  0.001 min) = 17.1%
 Cholesky decomposition of V             ...   0.004 sec (  0.000 min) =  1.7%
 Three index repulsion integral time     ...   0.000 sec (  0.000 min) =  0.0%



           ************************************************************
           *        Program running with 24 parallel MPI-processes    *
           *              working on a common directory               *
           ************************************************************
-------------------------------------------------------------------------------
                                 ORCA SCF
-------------------------------------------------------------------------------

------------
SCF SETTINGS
------------
Hamiltonian:
 Density Functional     Method          .... DFT(GTOs)
 Exchange Functional    Exchange        .... B88
   X-Alpha parameter    XAlpha          ....  0.666667
   Becke's b parameter  XBeta           ....  0.004200
 Correlation Functional Correlation     .... LYP
 LDA part of GGA corr.  LDAOpt          .... VWN-3
 Gradients option       PostSCFGGA      .... off
 Hybrid DFT is turned on
   Fraction HF Exchange ScalHFX         ....  0.530000
   Scaling of DF-GGA-X  ScalDFX         ....  0.470000
   Scaling of DF-GGA-C  ScalDFC         ....  0.730000
   Scaling of DF-LDA-C  ScalLDAC        ....  0.730000
   Perturbative correction              ....  0.270000
   Density functional embedding theory  .... OFF
 RI-approximation to the Coulomb term is turned on
   Number of auxiliary basis functions  .... 530
   RI-JK (J+K treated both via RI)      .... on


General Settings:
 Integral files         IntName         .... TMD18_MnBr
 Hartree-Fock type      HFTyp           .... UHF
 Total Charge           Charge          ....    0
 Multiplicity           Mult            ....    7
 Number of Electrons    NEL             ....   60
 Basis Dimension        Dim             ....  124
 Nuclear Repulsion      ENuc            ....    192.9291905260 Eh

Convergence Acceleration:
 DIIS                   CNVDIIS         .... on
   Start iteration      DIISMaxIt       ....    12
   Startup error        DIISStart       ....  0.200000
   # of expansion vecs  DIISMaxEq       ....     5
   Bias factor          DIISBfac        ....   1.050
   Max. coefficient     DIISMaxC        ....  10.000
 Newton-Raphson         CNVNR           .... off
 SOSCF                  CNVSOSCF        .... off
 Level Shifting         CNVShift        .... on
   Level shift para.    LevelShift      ....    0.2500
   Turn off err/grad.   ShiftErr        ....    0.0010
 Zerner damping         CNVZerner       .... off
 Static damping         CNVDamp         .... on
   Fraction old density DampFac         ....    0.7000
   Max. Damping (<1)    DampMax         ....    0.9800
   Min. Damping (>=0)   DampMin         ....    0.0000
   Turn off err/grad.   DampErr         ....    0.1000
 Fernandez-Rico         CNVRico         .... off

SCF Procedure:
 Maximum # iterations   MaxIter         ....   125
 SCF integral mode      SCFMode         .... Direct
   Integral package                     .... LIBINT
 Reset frequency        DirectResetFreq ....    20
 Integral Threshold     Thresh          ....  1.000e-10 Eh
 Primitive CutOff       TCut            ....  1.000e-11 Eh

Convergence Tolerance:
 Convergence Check Mode ConvCheckMode   .... Total+1el-Energy
 Convergence forced     ConvForced      .... 0
 Energy Change          TolE            ....  1.000e-06 Eh
 1-El. energy change                    ....  1.000e-03 Eh
 DIIS Error             TolErr          ....  1.000e-06


Diagonalization of the overlap matrix:
Smallest eigenvalue                        ... 1.865e-03
Time for diagonalization                   ...    0.004 sec
Threshold for overlap eigenvalues          ... 1.000e-08
Number of eigenvalues below threshold      ... 0
Time for construction of square roots      ...    0.002 sec
Total time needed                          ...    0.006 sec

-------------------
DFT GRID GENERATION
-------------------

General Integration Accuracy     IntAcc      ...  4.670
Radial Grid Type                 RadialGrid  ... Gauss-Chebyshev
Angular Grid (max. acc.)         AngularGrid ... Lebedev-302
Angular grid pruning method      GridPruning ... 3 (G Style)
Weight generation scheme         WeightScheme... Becke
Basis function cutoff            BFCut       ...    1.0000e-10
Integration weight cutoff        WCut        ...    1.0000e-14
Grids for H and He will be reduced by one unit

# of grid points (after initial pruning)     ...  19280 (   0.0 sec)
# of grid points (after weights+screening)   ...  19254 (   0.0 sec)
nearest neighbour list constructed           ...    0.0 sec
Grid point re-assignment to atoms done       ...    0.0 sec
Grid point division into batches done        ...    0.2 sec
Reduced shell lists constructed in    0.2 sec

Total number of grid points                  ...    19254
Total number of batches                      ...      302
Average number of points per batch           ...       63
Average number of grid points per atom       ...     9627
Average number of shells per batch           ...     7.79 (20.49%)
Average number of basis functions per batch  ...    21.64 (17.45%)
Average number of large shells per batch     ...     5.36 (68.81%)
Average number of large basis fcns per batch ...    14.79 (68.32%)
Average number of aux-shells per batch       ...     7.79 ( 6.60%)
Average number of aux functions per batch    ...    21.64 ( 4.08%)
Maximum spatial batch extension              ...  24.49, 24.19, 17.83 au
Average spatial batch extension              ...   0.84,  0.83,  0.67 au

Time for grid setup =    0.208 sec

------------------------------
INITIAL GUESS: MODEL POTENTIAL
------------------------------
Loading Hartree-Fock densities                     ... done
Calculating cut-offs                               ... done
Setting up the integral package                    ... done
Initializing the effective Hamiltonian             ... done
Starting the Coulomb interaction                   ... done (   0.0 sec)
Reading the grid                                   ... done
Mapping shells                                     ... done
Starting the XC term evaluation                    ... done (   0.0 sec)
  promolecular density results
     # of electrons  =     59.999976511
     EX              =   -140.545454929
     EC              =     -1.064187635
     EX+EC           =   -141.609642563
Transforming the Hamiltonian                       ... done (   0.0 sec)
Diagonalizing the Hamiltonian                      ... done (   0.0 sec)
Back transforming the eigenvectors                 ... done (   0.0 sec)
Now organizing SCF variables                       ... done
                      ------------------
                      INITIAL GUESS DONE (   0.3 sec)
                      ------------------
--------------
SCF ITERATIONS
--------------
ITER       Energy         Delta-E        Max-DP      RMS-DP      [F,P]     Damp
  0  -3724.3338531046   0.000000000000 0.05335412  0.00064738  0.1188247 0.7000
  1  -3724.4918396688  -0.157986564187 0.04814286  0.00059174  0.0878759 0.7000
                               ***Turning on DIIS***
  2  -3724.4747906556   0.017049013188 0.11788943  0.00148545  0.0472574 0.0000
  3  -3724.4174133197   0.057377335888 0.04323046  0.00062532  0.0478107 0.0000
  4  -3724.4270487325  -0.009635412756 0.00905519  0.00019441  0.0091984 0.0000
  5  -3724.4281416801  -0.001092947645 0.00730042  0.00011778  0.0059637 0.0000
  6  -3724.4285677717  -0.000426091565 0.00474932  0.00007119  0.0025504 0.0000
  7  -3724.4286983204  -0.000130548696 0.00334951  0.00004693  0.0012470 0.0000
  8  -3724.4287377407  -0.000039420271 0.00399515  0.00004861  0.0005927 0.0000
  9  -3724.4287487692  -0.000011028498 0.00039082  0.00000528  0.0000927 0.0000
 10  -3724.4287490194  -0.000000250212 0.00006538  0.00000125  0.0000324 0.0000
                 **** Energy Check signals convergence ****

               *****************************************************
               *                     SUCCESS                       *
               *           SCF CONVERGED AFTER  11 CYCLES          *
               *****************************************************


----------------
TOTAL SCF ENERGY
----------------

Total Energy       :        -3724.42874905 Eh         -101346.85864 eV

Components:
Nuclear Repulsion  :          192.92919053 Eh            5249.87017 eV
Electronic Energy  :        -3917.35793958 Eh         -106596.72881 eV
One Electron Energy:        -5554.18244563 Eh         -151136.98800 eV
Two Electron Energy:         1636.82450605 Eh           44540.25919 eV

Virial components:
Potential Energy   :        -7445.26028778 Eh         -202595.83220 eV
Kinetic Energy     :         3720.83153873 Eh          101248.97357 eV
Virial Ratio       :            2.00096678


DFT components:
N(Alpha)           :       33.000003572130 electrons
N(Beta)            :       27.000001414521 electrons
N(Total)           :       60.000004986651 electrons
E(X)               :      -66.184288552997 Eh       
E(C)               :       -2.027409160016 Eh       
E(XC)              :      -68.211697713013 Eh       
DFET-embed. en.    :        0.000000000000 Eh       

---------------
SCF CONVERGENCE
---------------

  Last Energy change         ...   -3.4759e-08  Tolerance :   1.0000e-06
  Last MAX-Density change    ...    2.2160e-05  Tolerance :   1.0000e-05
  Last RMS-Density change    ...    6.0090e-07  Tolerance :   1.0000e-06
  Last DIIS Error            ...    1.2082e-05  Tolerance :   1.0000e-06

             **** THE GBW FILE WAS UPDATED (TMD18_MnBr.gbw) ****
             **** DENSITY FILE WAS UPDATED (TMD18_MnBr.scfp) ****
             **** ENERGY FILE WAS UPDATED (TMD18_MnBr.en.tmp) ****
----------------------
UHF SPIN CONTAMINATION
----------------------

Warning: in a DFT calculation there is little theoretical justification to 
         calculate <S**2> as in Hartree-Fock theory. We will do it anyways
         but you should keep in mind that the values have only limited relevance

Expectation value of <S**2>     :    12.003770
Ideal value S*(S+1) for S=3.0   :    12.000000
Deviation                       :     0.003770

             **** THE GBW FILE WAS UPDATED (TMD18_MnBr.gbw) ****
             **** DENSITY FILE WAS UPDATED (TMD18_MnBr.scfp) ****
----------------
ORBITAL ENERGIES
----------------
                 SPIN UP ORBITALS
  NO   OCC          E(Eh)            E(eV) 
   0   1.0000    -485.813717    -13219.6633 
   1   1.0000    -237.658260     -6467.0100 
   2   1.0000     -63.565885     -1729.7157 
   3   1.0000     -57.188466     -1556.1773 
   4   1.0000     -57.187842     -1556.1603 
   5   1.0000     -57.187842     -1556.1603 
   6   1.0000     -28.165435      -766.4204 
   7   1.0000     -24.082710      -655.3238 
   8   1.0000     -24.082710      -655.3238 
   9   1.0000     -24.081514      -655.2913 
  10   1.0000      -9.127157      -248.3626 
  11   1.0000      -6.861826      -186.7198 
  12   1.0000      -6.859518      -186.6570 
  13   1.0000      -6.859518      -186.6570 
  14   1.0000      -3.643580       -99.1469 
  15   1.0000      -2.821856       -76.7866 
  16   1.0000      -2.821007       -76.7635 
  17   1.0000      -2.821007       -76.7635 
  18   1.0000      -2.819077       -76.7110 
  19   1.0000      -2.819058       -76.7105 
  20   1.0000      -2.443457       -66.4898 
  21   1.0000      -2.443457       -66.4898 
  22   1.0000      -2.440392       -66.4064 
  23   1.0000      -0.831082       -22.6149 
  24   1.0000      -0.519551       -14.1377 
  25   1.0000      -0.518845       -14.1185 
  26   1.0000      -0.518845       -14.1185 
  27   1.0000      -0.517850       -14.0914 
  28   1.0000      -0.517850       -14.0914 
  29   1.0000      -0.372301       -10.1308 
  30   1.0000      -0.325908        -8.8684 
  31   1.0000      -0.325908        -8.8684 
  32   1.0000      -0.239590        -6.5196 
  33   0.0000      -0.018433        -0.5016 
  34   0.0000      -0.018433        -0.5016 
  35   0.0000       0.025445         0.6924 
  36   0.0000       0.061185         1.6649 
  37   0.0000       0.072433         1.9710 
  38   0.0000       0.072433         1.9710 
  39   0.0000       0.088905         2.4192 
  40   0.0000       0.101662         2.7664 
  41   0.0000       0.101662         2.7664 
  42   0.0000       0.145242         3.9522 
  43   0.0000       0.149543         4.0693 
  44   0.0000       0.149543         4.0693 
  45   0.0000       0.188679         5.1342 
  46   0.0000       0.199465         5.4277 
  47   0.0000       0.199465         5.4277 
  48   0.0000       0.226461         6.1623 
  49   0.0000       0.226462         6.1623 
  50   0.0000       0.271240         7.3808 
  51   0.0000       0.297242         8.0884 
  52   0.0000       0.297242         8.0884 
  53   0.0000       0.322415         8.7734 
  54   0.0000       0.448332        12.1997 
  55   0.0000       0.448332        12.1997 
  56   0.0000       0.467016        12.7081 
  57   0.0000       0.488701        13.2982 
  58   0.0000       0.488701        13.2982 
  59   0.0000       0.536553        14.6003 
  60   0.0000       0.536553        14.6003 
  61   0.0000       0.545566        14.8456 
  62   0.0000       0.550281        14.9739 
  63   0.0000       0.550281        14.9739 
  64   0.0000       0.692553        18.8453 
  65   0.0000       0.835756        22.7421 
  66   0.0000       0.835757        22.7421 
  67   0.0000       0.909789        24.7566 
  68   0.0000       0.909789        24.7566 
  69   0.0000       0.938230        25.5305 
  70   0.0000       1.110464        30.2173 
  71   0.0000       1.606985        43.7283 
  72   0.0000       1.626805        44.2676 
  73   0.0000       1.626829        44.2683 
  74   0.0000       1.636146        44.5218 
  75   0.0000       1.636146        44.5218 
  76   0.0000       1.660519        45.1850 
  77   0.0000       1.660521        45.1851 
  78   0.0000       1.669249        45.4226 
  79   0.0000       1.669249        45.4226 
  80   0.0000       1.672652        45.5152 
  81   0.0000       1.672652        45.5152 
  82   0.0000       1.817029        49.4439 
  83   0.0000       1.832028        49.8520 
  84   0.0000       1.832028        49.8520 
  85   0.0000       1.887920        51.3729 
  86   0.0000       1.970320        53.6151 
  87   0.0000       1.970320        53.6151 
  88   0.0000       1.995574        54.3023 
  89   0.0000       1.995574        54.3023 
  90   0.0000       2.138955        58.2039 
  91   0.0000       2.138955        58.2039 
  92   0.0000       2.231748        60.7289 
  93   0.0000       2.231748        60.7289 
  94   0.0000       2.269264        61.7498 
  95   0.0000       2.518898        68.5427 
  96   0.0000       2.776225        75.5449 
  97   0.0000       3.258051        88.6561 
  98   0.0000       3.258064        88.6564 
  99   0.0000       3.330701        90.6330 
 100   0.0000       3.330701        90.6330 
 101   0.0000       3.448114        93.8279 
 102   0.0000       4.333965       117.9332 
 103   0.0000       4.333983       117.9337 
 104   0.0000       4.359591       118.6305 
 105   0.0000       4.359591       118.6305 
 106   0.0000       4.427878       120.4887 
 107   0.0000       7.092108       192.9861 
 108   0.0000       7.092302       192.9913 
 109   0.0000       7.097234       193.1256 
 110   0.0000       7.097234       193.1256 
 111   0.0000       7.101483       193.2412 
 112   0.0000       7.101490       193.2414 
 113   0.0000       7.107352       193.4009 
 114   0.0000       7.107352       193.4009 
 115   0.0000       7.123235       193.8331 
 116   0.0000       7.725159       210.2123 
 117   0.0000       7.966443       216.7779 
 118   0.0000       7.966443       216.7779 
 119   0.0000       7.971537       216.9166 
 120   0.0000       7.971621       216.9188 
 121   0.0000       8.006142       217.8582 
 122   0.0000       8.006142       217.8582 
 123   0.0000       8.160854       222.0681 

                 SPIN DOWN ORBITALS
  NO   OCC          E(Eh)            E(eV) 
   0   1.0000    -485.813286    -13219.6516 
   1   1.0000    -237.654335     -6466.9032 
   2   1.0000     -63.565602     -1729.7080 
   3   1.0000     -57.187789     -1556.1589 
   4   1.0000     -57.187515     -1556.1514 
   5   1.0000     -57.187515     -1556.1514 
   6   1.0000     -28.059759      -763.5449 
   7   1.0000     -23.986535      -652.7068 
   8   1.0000     -23.986535      -652.7068 
   9   1.0000     -23.985121      -652.6683 
  10   1.0000      -9.126354      -248.3407 
  11   1.0000      -6.860478      -186.6831 
  12   1.0000      -6.858818      -186.6379 
  13   1.0000      -6.858818      -186.6379 
  14   1.0000      -3.345835       -91.0448 
  15   1.0000      -2.821082       -76.7655 
  16   1.0000      -2.820317       -76.7447 
  17   1.0000      -2.820317       -76.7447 
  18   1.0000      -2.818613       -76.6984 
  19   1.0000      -2.818594       -76.6978 
  20   1.0000      -2.106535       -57.3217 
  21   1.0000      -2.106535       -57.3217 
  22   1.0000      -2.101295       -57.1791 
  23   1.0000      -0.822952       -22.3937 
  24   1.0000      -0.370696       -10.0872 
  25   1.0000      -0.328615        -8.9421 
  26   1.0000      -0.328615        -8.9421 
  27   0.0000      -0.067434        -1.8350 
  28   0.0000       0.009034         0.2458 
  29   0.0000       0.009034         0.2458 
  30   0.0000       0.016057         0.4369 
  31   0.0000       0.023732         0.6458 
  32   0.0000       0.023733         0.6458 
  33   0.0000       0.035652         0.9701 
  34   0.0000       0.035652         0.9701 
  35   0.0000       0.044888         1.2215 
  36   0.0000       0.074157         2.0179 
  37   0.0000       0.074157         2.0179 
  38   0.0000       0.088025         2.3953 
  39   0.0000       0.115734         3.1493 
  40   0.0000       0.123335         3.3561 
  41   0.0000       0.123335         3.3561 
  42   0.0000       0.171495         4.6666 
  43   0.0000       0.171496         4.6666 
  44   0.0000       0.180212         4.9038 
  45   0.0000       0.198014         5.3882 
  46   0.0000       0.235758         6.4153 
  47   0.0000       0.235758         6.4153 
  48   0.0000       0.253176         6.8893 
  49   0.0000       0.253176         6.8893 
  50   0.0000       0.295399         8.0382 
  51   0.0000       0.313640         8.5346 
  52   0.0000       0.313640         8.5346 
  53   0.0000       0.349376         9.5070 
  54   0.0000       0.458238        12.4693 
  55   0.0000       0.458238        12.4693 
  56   0.0000       0.483069        13.1450 
  57   0.0000       0.505939        13.7673 
  58   0.0000       0.505939        13.7673 
  59   0.0000       0.538805        14.6616 
  60   0.0000       0.538805        14.6616 
  61   0.0000       0.577597        15.7172 
  62   0.0000       0.581137        15.8135 
  63   0.0000       0.581137        15.8135 
  64   0.0000       0.715001        19.4562 
  65   0.0000       0.936430        25.4815 
  66   0.0000       0.936432        25.4816 
  67   0.0000       0.998633        27.1742 
  68   0.0000       0.999967        27.2105 
  69   0.0000       0.999967        27.2105 
  70   0.0000       1.147413        31.2227 
  71   0.0000       1.626757        44.2663 
  72   0.0000       1.630276        44.3621 
  73   0.0000       1.630301        44.3628 
  74   0.0000       1.640867        44.6503 
  75   0.0000       1.640867        44.6503 
  76   0.0000       1.665247        45.3137 
  77   0.0000       1.665247        45.3137 
  78   0.0000       1.674989        45.5788 
  79   0.0000       1.674989        45.5788 
  80   0.0000       1.697826        46.2002 
  81   0.0000       1.697826        46.2002 
  82   0.0000       1.835403        49.9438 
  83   0.0000       1.835403        49.9438 
  84   0.0000       1.865298        50.7573 
  85   0.0000       1.894322        51.5471 
  86   0.0000       2.092272        56.9336 
  87   0.0000       2.092272        56.9336 
  88   0.0000       2.113280        57.5053 
  89   0.0000       2.113282        57.5053 
  90   0.0000       2.240116        60.9567 
  91   0.0000       2.240116        60.9567 
  92   0.0000       2.328494        63.3615 
  93   0.0000       2.328494        63.3615 
  94   0.0000       2.368691        64.4554 
  95   0.0000       2.613816        71.1256 
  96   0.0000       2.870481        78.1098 
  97   0.0000       3.413438        92.8844 
  98   0.0000       3.413469        92.8852 
  99   0.0000       3.482757        94.7706 
 100   0.0000       3.482757        94.7706 
 101   0.0000       3.593877        97.7944 
 102   0.0000       4.335140       117.9651 
 103   0.0000       4.335159       117.9657 
 104   0.0000       4.360987       118.6685 
 105   0.0000       4.360987       118.6685 
 106   0.0000       4.432960       120.6270 
 107   0.0000       7.232575       196.8084 
 108   0.0000       7.232746       196.8130 
 109   0.0000       7.237062       196.9305 
 110   0.0000       7.237062       196.9305 
 111   0.0000       7.240053       197.0119 
 112   0.0000       7.240067       197.0122 
 113   0.0000       7.244850       197.1424 
 114   0.0000       7.244850       197.1424 
 115   0.0000       7.260528       197.5690 
 116   0.0000       7.731469       210.3840 
 117   0.0000       8.197503       223.0654 
 118   0.0000       8.197503       223.0654 
 119   0.0000       8.204715       223.2616 
 120   0.0000       8.204791       223.2637 
 121   0.0000       8.237683       224.1588 
 122   0.0000       8.237683       224.1588 
 123   0.0000       8.380903       228.0560 

                    ********************************
                    * MULLIKEN POPULATION ANALYSIS *
                    ********************************

--------------------------------------------
MULLIKEN ATOMIC CHARGES AND SPIN POPULATIONS
--------------------------------------------
   0 Mn:    0.419486    5.982094
   1 Br:   -0.419486    0.017906
Sum of atomic charges         :    0.0000000
Sum of atomic spin populations:    6.0000000

-----------------------------------------------------
MULLIKEN REDUCED ORBITAL CHARGES AND SPIN POPULATIONS
-----------------------------------------------------
CHARGE
  0 Mns       :     7.095505  s :     7.095505
      pz      :     4.305017  p :    12.388345
      px      :     4.041664
      py      :     4.041664
      dz2     :     1.037305  d :     5.094681
      dxz     :     1.028810
      dyz     :     1.028810
      dx2y2   :     0.999878
      dxy     :     0.999878
      f0      :     0.001025  f :     0.001971
      f+1     :     0.000472
      f-1     :     0.000472
      f+2     :     0.000001
      f-2     :     0.000001
      f+3     :     0.000000
      f-3     :     0.000000
      g0      :     0.000006  g :     0.000012
      g+1     :     0.000003
      g-1     :     0.000003
      g+2     :     0.000000
      g-2     :     0.000000
      g+3     :     0.000000
      g-3     :     0.000000
      g+4     :     0.000000
      g-4     :     0.000000
  1 Brs       :     7.943841  s :     7.943841
      pz      :     5.617250  p :    17.461327
      px      :     5.922039
      py      :     5.922039
      dz2     :     1.999251  d :    10.012668
      dxz     :     2.006604
      dyz     :     2.006604
      dx2y2   :     2.000105
      dxy     :     2.000105
      f0      :     0.000800  f :     0.001650
      f+1     :     0.000408
      f-1     :     0.000408
      f+2     :     0.000016
      f-2     :     0.000016
      f+3     :     0.000000
      f-3     :     0.000000

SPIN
  0 Mns       :     0.857195  s :     0.857195
      pz      :     0.208651  p :     0.227462
      px      :     0.009405
      py      :     0.009405
      dz2     :     0.949436  d :     4.897510
      dxz     :     0.974164
      dyz     :     0.974164
      dx2y2   :     0.999873
      dxy     :     0.999873
      f0      :    -0.000036  f :    -0.000075
      f+1     :    -0.000020
      f-1     :    -0.000020
      f+2     :     0.000001
      f-2     :     0.000001
      f+3     :     0.000000
      f-3     :     0.000000
      g0      :     0.000001  g :     0.000002
      g+1     :     0.000001
      g-1     :     0.000001
      g+2     :     0.000000
      g-2     :     0.000000
      g+3     :     0.000000
      g-3     :     0.000000
      g+4     :     0.000000
      g-4     :     0.000000
  1 Brs       :    -0.017624  s :    -0.017624
      pz      :     0.007239  p :     0.041314
      px      :     0.017038
      py      :     0.017038
      dz2     :    -0.005050  d :    -0.006160
      dxz     :    -0.000664
      dyz     :    -0.000664
      dx2y2   :     0.000110
      dxy     :     0.000110
      f0      :     0.000187  f :     0.000375
      f+1     :     0.000078
      f-1     :     0.000078
      f+2     :     0.000016
      f-2     :     0.000016
      f+3     :     0.000000
      f-3     :     0.000000


                     *******************************
                     * LOEWDIN POPULATION ANALYSIS *
                     *******************************

-------------------------------------------
LOEWDIN ATOMIC CHARGES AND SPIN POPULATIONS
-------------------------------------------
   0 Mn:    0.257068    5.767054
   1 Br:   -0.257068    0.232946

----------------------------------------------------
LOEWDIN REDUCED ORBITAL CHARGES AND SPIN POPULATIONS
----------------------------------------------------
CHARGE
  0 Mns       :     6.741348  s :     6.741348
      pz      :     4.500250  p :    12.649632
      px      :     4.074691
      py      :     4.074691
      dz2     :     1.165433  d :     5.347036
      dxz     :     1.091312
      dyz     :     1.091312
      dx2y2   :     0.999490
      dxy     :     0.999490
      f0      :     0.002975  f :     0.004883
      f+1     :     0.000953
      f-1     :     0.000953
      f+2     :     0.000001
      f-2     :     0.000001
      f+3     :     0.000000
      f-3     :     0.000000
      g0      :     0.000019  g :     0.000033
      g+1     :     0.000007
      g-1     :     0.000007
      g+2     :     0.000000
      g-2     :     0.000000
      g+3     :     0.000000
      g-3     :     0.000000
      g+4     :     0.000000
      g-4     :     0.000000
  1 Brs       :     7.744053  s :     7.744053
      pz      :     5.761383  p :    17.411808
      px      :     5.825213
      py      :     5.825213
      dz2     :     2.082878  d :    10.098291
      dxz     :     2.007227
      dyz     :     2.007227
      dx2y2   :     2.000479
      dxy     :     2.000479
      f0      :     0.001662  f :     0.002916
      f+1     :     0.000597
      f-1     :     0.000597
      f+2     :     0.000030
      f-2     :     0.000030
      f+3     :     0.000000
      f-3     :     0.000000

SPIN
  0 Mns       :     0.589240  s :     0.589240
      pz      :     0.277339  p :     0.297778
      px      :     0.010219
      py      :     0.010219
      dz2     :     0.944874  d :     4.879912
      dxz     :     0.968032
      dyz     :     0.968032
      dx2y2   :     0.999487
      dxy     :     0.999487
      f0      :     0.000142  f :     0.000120
      f+1     :    -0.000012
      f-1     :    -0.000012
      f+2     :     0.000001
      f-2     :     0.000001
      f+3     :     0.000000
      f-3     :     0.000000
      g0      :     0.000002  g :     0.000004
      g+1     :     0.000001
      g-1     :     0.000001
      g+2     :     0.000000
      g-2     :     0.000000
      g+3     :     0.000000
      g-3     :     0.000000
      g+4     :     0.000000
      g-4     :     0.000000
  1 Brs       :     0.041431  s :     0.041431
      pz      :     0.103447  p :     0.141012
      px      :     0.018783
      py      :     0.018783
      dz2     :     0.042579  d :     0.048691
      dxz     :     0.002574
      dyz     :     0.002574
      dx2y2   :     0.000482
      dxy     :     0.000482
      f0      :     0.000947  f :     0.001812
      f+1     :     0.000403
      f-1     :     0.000403
      f+2     :     0.000030
      f-2     :     0.000030
      f+3     :     0.000000
      f-3     :     0.000000


                      *****************************
                      * MAYER POPULATION ANALYSIS *
                      *****************************

  NA   - Mulliken gross atomic population
  ZA   - Total nuclear charge
  QA   - Mulliken gross atomic charge
  VA   - Mayer's total valence
  BVA  - Mayer's bonded valence
  FA   - Mayer's free valence

  ATOM       NA         ZA         QA         VA         BVA        FA
  0 Mn    24.5805    25.0000     0.4195     6.6360     0.7233     5.9127
  1 Br    35.4195    35.0000    -0.4195     0.7386     0.7233     0.0154

  Mayer bond orders larger than 0.100000
B(  0-Mn,  1-Br) :   0.7233 

-------
TIMINGS
-------

Total SCF time: 0 days 0 hours 0 min 3 sec 

Total time                  ....       3.176 sec
Sum of individual times     ....       3.049 sec  ( 96.0%)

Fock matrix formation       ....       2.681 sec  ( 84.4%)
  XC integration            ....       0.247 sec  (  9.2% of F)
    Basis function eval.    ....       0.024 sec  (  9.6% of XC)
    Density eval.           ....       0.024 sec  (  9.6% of XC)
    XC-Functional eval.     ....       0.010 sec  (  3.9% of XC)
    XC-Potential eval.      ....       0.050 sec  ( 20.1% of XC)
Diagonalization             ....       0.045 sec  (  1.4%)
Density matrix formation    ....       0.007 sec  (  0.2%)
Population analysis         ....       0.006 sec  (  0.2%)
Initial guess               ....       0.085 sec  (  2.7%)
Orbital Transformation      ....       0.000 sec  (  0.0%)
Orbital Orthonormalization  ....       0.000 sec  (  0.0%)
DIIS solution               ....       0.017 sec  (  0.5%)
Grid generation             ....       0.208 sec  (  6.6%)


           ************************************************************
           *        Program running with 24 parallel MPI-processes    *
           *              working on a common directory               *
           ************************************************************

------------------------------------------------------------------------------
                                ORCA  MP2 
------------------------------------------------------------------------------

Freezing NCore=28 chemical core electrons

-------------
RI-MP2 ENERGY
-------------
Dimension of the basis                    ...  124
Memory devoted to MP2                     ... 5000 MB   
Data format for buffers                   ... DOUBLE
Compression type for matrix containers    ... UNCOMPRESSED
Overall scaling of the MP2 energy         ...   2.700e-01
Calculating two index integrals           ... done (    0.005 sec)
Cholesky decomposition of V**-1           ... done (    0.009 sec)

-----------------
RI-TRANSFORMATION (AUX index driven)
-----------------

Dimension of the orbital-basis         ... 124
Dimension of the aux-basis             ... 400
Transformation of internal/external MOs...   14-  32 to   33- 123
Number Format for Storage              ... Double (8 Byte)
Integral mode                          ... Direct

First Phase: integral generation and transformation of MO indices
  Aux angular momentum 0               ... done (    0.001 sec)
  Aux angular momentum 1               ... done (    0.001 sec)
  Aux angular momentum 2               ... done (    0.001 sec)
  Aux angular momentum 3               ... done (    0.002 sec)
  Aux angular momentum 4               ... done (    0.003 sec)
  Aux angular momentum 5               ... done (    0.004 sec)
  Aux angular momentum 6               ... done (    0.006 sec)
Closing buffer VIA ( 0.01 GB; CompressionRatio= 1.00)
  Phase 1 completed in     0.106 sec
Second Phase: sorting and transformation of aux index

IA-Transformation
Memory available                       ... 4998 MB 
Max. # MO pairs treated in a batch     ... 1    
# of internal orbitals                 ... 19
# batches for internal orbitals        ... 1
Closing buffer IAV ( 0.00 GB; CompressionRatio= 1.00)
(ia|v) transformation done in     0.004 sec

  Phase 2 completed in     0.011 sec
RI-Integral transformation completed in     0.117 sec

-----------------
RI-TRANSFORMATION (AUX index driven)
-----------------

Dimension of the orbital-basis         ... 124
Dimension of the aux-basis             ... 400
Transformation of internal/external MOs...   14-  26 to   27- 123
Number Format for Storage              ... Double (8 Byte)
Integral mode                          ... Direct

First Phase: integral generation and transformation of MO indices
  Aux angular momentum 0               ... done (    0.000 sec)
  Aux angular momentum 1               ... done (    0.001 sec)
  Aux angular momentum 2               ... done (    0.001 sec)
  Aux angular momentum 3               ... done (    0.002 sec)
  Aux angular momentum 4               ... done (    0.003 sec)
  Aux angular momentum 5               ... done (    0.004 sec)
  Aux angular momentum 6               ... done (    0.006 sec)
Closing buffer VIA ( 0.00 GB; CompressionRatio= 1.00)
  Phase 1 completed in     0.088 sec
Second Phase: sorting and transformation of aux index

IA-Transformation
Memory available                       ... 4998 MB 
Max. # MO pairs treated in a batch     ... 1    
# of internal orbitals                 ... 13
# batches for internal orbitals        ... 1
Closing buffer IAV ( 0.00 GB; CompressionRatio= 1.00)
(ia|v) transformation done in     0.003 sec

  Phase 2 completed in     0.008 sec
RI-Integral transformation completed in     0.098 sec
Opening buffers                              ... done

Starting loop over batches of integrals:

Operator 0  - window                       ... ( 14- 32)x( 33-123)
Operator 0  - Memory available             ...  5000 MB
Operator 0  - Memory needed per MO         ...   0.3 MB
Operator 0  - Number of orbitals per batch ... 1
Operator 0  - Number of batches            ... 1

OPERATOR  0   PASS   0:  MOs    14 ...   14 +   15 ...   15 +   16 ...   16 +   17 ...   17
                            +   18 ...   18 +   19 ...   19 +   20 ...   20 +   21 ...   21
                            +   22 ...   22 +   23 ...   23 +   24 ...   24 +   25 ...   25
                            +   26 ...   26 +   27 ...   27 +   28 ...   28 +   29 ...   29
                            +   30 ...   30 +   31 ...   31 +   32 ...   32
  Reading integrals       ... ok

Operator 1  - window                       ... ( 14- 26)x( 27-123)
Operator 1  - Memory available             ...  5000 MB
Operator 1  - Memory needed per MO         ...   0.3 MB
Operator 1  - Number of orbitals per batch ... 1
Operator 1  - Number of batches            ... 1

OPERATOR  1   PASS   0:  MOs    14 ...   14 +   15 ...   15 +   16 ...   16 +   17 ...   17
                            +   18 ...   18 +   19 ...   19 +   20 ...   20 +   21 ...   21
                            +   22 ...   22 +   23 ...   23 +   24 ...   24 +   25 ...   25
                            +   26 ...   26
  Reading integrals       ... ok
Time spent in pair loops =     0.012 sec
Deleting buffer (Ka|jb)[aa] ...done
Deleting buffer (Ka|jb)[ab] ...done
Deleting buffer (Ka|jb)[ba] ...done
Deleting buffer (Ka|jb)[bb] ...done

Correlation energy components}
 E2 and T2 for alpha/alpha pairs :     -0.056647955 Eh      0.000000000
 E2 and T2 for beta/beta   pairs :     -0.024298355 Eh      0.000000000
 E2 and T2 for alpha/beta  pairs :     -0.142727012 Eh      0.000000000


-----------------------------------------------
 RI-MP2 CORRELATION ENERGY:     -0.223673323 Eh
-----------------------------------------------


-------
TIMINGS
-------

Total time                :    0.275 sec
Integral trafo            :    0.246 sec ( 89.2%)
I/O of integrals          :    0.000 sec (  0.1%)
K(i,j) Operators          :    0.004 sec (  1.5%)
T(i,j) pair energies      :    0.000 sec (  0.2%)
V-calculation             :    0.005 sec (  1.7%)
V**(-1/2)                 :    0.009 sec (  3.2%)
Gamma(ia|P)               :    0.000 sec (  0.0%)
Gamma-Trafo               :    0.000 sec (  0.0%)
D(virtual)                :    0.000 sec (  0.0%)
D(internal)               :    0.000 sec (  0.0%)
W(virtual)                :    0.000 sec (  0.0%)
W(internal)               :    0.000 sec (  0.0%)
L(virtual)                :    0.000 sec (  0.0%)
L(internal)               :    0.000 sec (  0.0%)
G(D)                      :    0.000 sec (  0.0%)
G(Z)                      :    0.000 sec (  0.0%)
Z-Vector Solution         :    0.000 sec (  0.0%)
Z-Vector Solution         :    0.000 sec (  0.0%)
3-Index Derivative 
+ Separable RIJ part      :    0.000 sec (  0.0%)
2-Index Derivative 
+ Separable RIJ part      :    0.000 sec (  0.0%)
Separable Gradient (X)    :    0.000 sec (  0.0%)


---------------------------------------
MP2 TOTAL ENERGY:    -3724.652422377 Eh
---------------------------------------


-------------------------------------------------------------------------------
                          DFT DISPERSION CORRECTION                            
                                                                               
                              DFTD3 V3.1  Rev 1                                
                          USING Becke-Johnson damping                          
-------------------------------------------------------------------------------
The B2PLYP functional is recognized
Active option DFTDOPT                   ...         4   

molecular C6(AA) [au] = 877.331775 


            DFT-D V3
 parameters
 s6 scaling factor         :     0.6400 
 a1 scaling factor         :     0.3065 
 s8 scaling factor         :     0.9147 
 a2 scaling factor         :     5.0570 
 ad hoc parameters k1-k3   :    16.0000     1.3333    -4.0000 

 Edisp/kcal,au: -1.066382124897  -0.001699387906 
 E6   /kcal   :  -0.364347464 
 E8   /kcal   :  -0.702034661 
 % E8         :  65.833311001 

-------------------------   ----------------
Dispersion correction           -0.001699388
-------------------------   ----------------


-------------------------   --------------------
FINAL SINGLE POINT ENERGY     -3724.654121764653
-------------------------   --------------------


                            ***************************************
                            *     ORCA property calculations      *
                            ***************************************


  WARNING: The energy has been calculated at the MP2 level but the densities
           used in the property calculations are still SCF densities
           MP2 response densities have not been calculated 
           use %mp2 Density relaxed end
           or  %mp2 Density unrelaxed end

                                    ---------------------
                                    Active property flags
                                    ---------------------
   (+) Dipole Moment


------------------------------------------------------------------------------
                       ORCA ELECTRIC PROPERTIES CALCULATION
------------------------------------------------------------------------------

Dipole Moment Calculation                       ... on
Quadrupole Moment Calculation                   ... off
Polarizability Calculation                      ... off
GBWName                                         ... TMD18_MnBr.gbw
Electron density file                           ... TMD18_MnBr.scfp
The origin for moment calculation is the CENTER OF MASS  = ( 0.000000,  0.000000  0.041820)

-------------
DIPOLE MOMENT
-------------
                                X             Y             Z
Electronic contribution:     -0.00000      -0.00000       1.20152
Nuclear contribution   :      0.00000       0.00000      -2.50917
                        -----------------------------------------
Total Dipole Moment    :     -0.00000      -0.00000      -1.30765
                        -----------------------------------------
Magnitude (a.u.)       :      1.30765
Magnitude (Debye)      :      3.32378



--------------------
Rotational spectrum 
--------------------
 
Rotational constants in cm-1:     0.000000     0.089900     0.089900 
Rotational constants in MHz :     0.000000  2695.122005  2695.122005 

 Dipole components along the rotational axes: 
x,y,z [a.u.] :    -1.307650    -0.000000    -0.000000 
x,y,z [Debye]:    -3.323782    -0.000000    -0.000000 

 

Timings for individual modules:

Sum of individual times         ...        4.843 sec (=   0.081 min)
GTO integral calculation        ...        0.602 sec (=   0.010 min)  12.4 %
SCF iterations                  ...        3.521 sec (=   0.059 min)  72.7 %
MP2 module                      ...        0.720 sec (=   0.012 min)  14.9 %
                             ****ORCA TERMINATED NORMALLY****
TOTAL RUN TIME: 0 days 0 hours 0 minutes 5 seconds 454 msec
