
                                 *****************
                                 * O   R   C   A *
                                 *****************

           --- An Ab Initio, DFT and Semiempirical electronic structure package ---

                  #######################################################
                  #                        -***-                        #
                  #          Department of theory and spectroscopy      #
                  #               Directorship: Frank Neese             #
                  #        Max Planck Institute fuer Kohlenforschung    #
                  #                Kaiser Wilhelm Platz 1               #
                  #                 D-45470 Muelheim/Ruhr               #
                  #                      Germany                        #
                  #                                                     #
                  #                  All rights reserved                #
                  #                        -***-                        #
                  #######################################################


                         Program Version 4.2.0 -  RELEASE  -


 With contributions from (in alphabetic order):
   Daniel Aravena         : Magnetic Suceptibility
   Michael Atanasov       : Ab Initio Ligand Field Theory (pilot matlab implementation)
   Alexander A. Auer      : GIAO ZORA, VPT2
   Ute Becker             : Parallelization
   Giovanni Bistoni       : ED, misc. LED, open-shell LED, HFLED
   Martin Brehm           : Molecular dynamics
   Dmytro Bykov           : SCF Hessian
   Vijay G. Chilkuri      : MRCI spin determinant printing, contributions to CSF-ICE
   Dipayan Datta          : RHF DLPNO-CCSD density
   Achintya Kumar Dutta   : EOM-CC, STEOM-CC
   Dmitry Ganyushin       : Spin-Orbit,Spin-Spin,Magnetic field MRCI
   Miquel Garcia          : C-PCM Hessian, Gaussian charge scheme
   Yang Guo               : DLPNO-NEVPT2, CIM, IAO-localization
   Andreas Hansen         : Spin unrestricted coupled pair/coupled cluster methods
   Benjamin Helmich-Paris : CASSCF linear response (MC-RPA)
   Lee Huntington         : MR-EOM, pCC
   Robert Izsak           : Overlap fitted RIJCOSX, COSX-SCS-MP3, EOM
   Christian Kollmar      : KDIIS, OOCD, Brueckner-CCSD(T), CCSD density
   Simone Kossmann        : Meta GGA functionals, TD-DFT gradient, OOMP2, MP2 Hessian
   Martin Krupicka        : AUTO-CI
   Lucas Lang             : DCDCAS
   Dagmar Lenk            : GEPOL surface, SMD
   Dimitrios Liakos       : Extrapolation schemes; Compound Job, initial MDCI parallelization
   Dimitrios Manganas     : Further ROCIS development; embedding schemes
   Dimitrios Pantazis     : SARC Basis sets
   Taras Petrenko         : DFT Hessian,TD-DFT gradient, ASA, ECA, R-Raman, ABS, FL, XAS/XES, NRVS
   Peter Pinski           : DLPNO-MP2, DLPNO-MP2 Gradient
   Christoph Reimann      : Effective Core Potentials
   Marius Retegan         : Local ZFS, SOC
   Christoph Riplinger    : Optimizer, TS searches, QM/MM, DLPNO-CCSD(T), (RO)-DLPNO pert. Triples
   Tobias Risthaus        : Range-separated hybrids, TD-DFT gradient, RPA, STAB
   Michael Roemelt        : Original ROCIS implementation
   Masaaki Saitow         : Open-shell DLPNO-CCSD energy and density
   Barbara Sandhoefer     : DKH picture change effects
   Avijit Sen             : IP-ROCIS
   Kantharuban Sivalingam : CASSCF convergence, NEVPT2, FIC-MRCI
   Bernardo de Souza      : ESD, SOC TD-DFT
   Georgi Stoychev        : AutoAux, RI-MP2 NMR
   Willem Van den Heuvel  : Paramagnetic NMR
   Boris Wezisla          : Elementary symmetry handling
   Frank Wennmohs         : Technical directorship


 We gratefully acknowledge several colleagues who have allowed us to
 interface, adapt or use parts of their codes:
   Stefan Grimme, W. Hujo, H. Kruse,             : VdW corrections, initial TS optimization,
                  C. Bannwarth                     DFT functionals, gCP, sTDA/sTD-DF
   Ed Valeev, F. Pavosevic, A. Kumar             : LibInt (2-el integral package), F12 methods
   Garnet Chan, S. Sharma, J. Yang, R. Olivares  : DMRG
   Ulf Ekstrom                                   : XCFun DFT Library
   Mihaly Kallay                                 : mrcc  (arbitrary order and MRCC methods)
   Andreas Klamt, Michael Diedenhofen            : otool_cosmo (COSMO solvation model)
   Jiri Pittner, Ondrej Demel                    : Mk-CCSD
   Frank Weinhold                                : gennbo (NPA and NBO analysis)
   Christopher J. Cramer and Donald G. Truhlar   : smd solvation model
   Lars Goerigk                                  : TD-DFT with DH, B97 family of functionals
   V. Asgeirsson, H. Jonsson                     : NEB implementation
   FAccTs GmbH                                   : IRC, NEB, NEB-TS, Multilevel, MM, QM/MM, CI optimization
   S Lehtola, MJT Oliveira, MAL Marques          : LibXC Library


 Your calculation uses the libint2 library for the computation of 2-el integrals
 For citations please refer to: http://libint.valeyev.net

 Your ORCA version has been built with support for libXC version: 4.2.3
 For citations please refer to: https://tddft.org/programs/libxc/

 This ORCA versions uses:
   CBLAS   interface :  Fast vector & matrix operations
   LAPACKE interface :  Fast linear algebra routines
   SCALAPACK package :  Parallel linear algebra routines


Your calculation utilizes the atom-pairwise dispersion correction
with the Becke-Johnson damping scheme (D3BJ)
Cite in your paper:
S.Grimme, S.Ehrlich, L.Goerigk, J Comput Chem, (2011), 32, 1456–1465 
S.Grimme, J.Antony, S.Ehrlich and H.Krieg, J.Chem.Phys., 132, (2010), 154104 
   

----- Orbital basis set information -----
Your calculation utilizes the basis: def2-TZVPPD
   F. Weigend and R. Ahlrichs, Phys. Chem. Chem. Phys. 7, 3297 (2005).
   D. Rappoport and F. Furche, J. Chem. Phys. 133 134105 (2010).

----- AuxC basis set information -----
Your calculation utilizes the auxiliary basis: def2-TZVPPD/C
   A. Hellweg, C. Hattig, S. Hofener and W. Klopper, Theor. Chem. Acc. 117, 587 (2007).

----- AuxJK basis set information -----
Your calculation utilizes the auxiliary basis: def2/JK
   H-Ba, Hf-Rn: F. Weigend, J. Comput. Chem. 29, 167 (2008).

================================================================================
                                        WARNINGS
                       Please study these warnings very carefully!
================================================================================


WARNING: your system is open-shell and RHF/RKS was chosen
  ===> : WILL SWITCH to UHF/UKS


WARNING: No MP2 level density has been requested!
         To caclulate MP2 level properties use
         %mp2 Density relaxed end
         or
         %mp2 Density unrelaxed end
         Otherwise for double-hybrid DFT only the energy is correct!

WARNING: The frozen-core approximation is turned on by default for 
         the MP2 part of double-hybrid DFT.

INFO   : the flag for use of LIBINT has been found!

================================================================================
                                       INPUT FILE
================================================================================
NAME = TMD20_FeS.in
|  1> #
|  2> # TMD20_FeS ri-B2PLYP-D3BJ/Def2-TZVPPD
|  3> #
|  4> ! rijk ri-b2plyp d3bj def2-tzvppd def2/jk def2-tzvppd/c grid4 nofinalgrid
|  5> 
|  6> *xyz 0 5
|  7> Fe       0.000000    0.000000    0.769524 
|  8> S        0.000000    0.000000   -1.250476 
|  9> *
| 10> 
| 11> %maxcore 5000
| 12> 
| 13> %pal
| 14> nprocs = 24
| 15> end
| 16> 
| 17> 
| 18>                          ****END OF INPUT****
================================================================================

                       ****************************
                       * Single Point Calculation *
                       ****************************

---------------------------------
CARTESIAN COORDINATES (ANGSTROEM)
---------------------------------
  Fe     0.000000    0.000000    0.769524
  S      0.000000    0.000000   -1.250476

----------------------------
CARTESIAN COORDINATES (A.U.)
----------------------------
  NO LB      ZA    FRAG     MASS         X           Y           Z
   0 Fe   26.0000    0    55.850    0.000000    0.000000    1.454190
   1 S    16.0000    0    32.060    0.000000    0.000000   -2.363057

--------------------------------
INTERNAL COORDINATES (ANGSTROEM)
--------------------------------
 Fe     0   0   0     0.000000000000     0.00000000     0.00000000
 S      1   0   0     2.020000000000     0.00000000     0.00000000

---------------------------
INTERNAL COORDINATES (A.U.)
---------------------------
 Fe     0   0   0     0.000000000000     0.00000000     0.00000000
 S      1   0   0     3.817246790521     0.00000000     0.00000000

---------------------
BASIS SET INFORMATION
---------------------
There are 2 groups of distinct atoms

 Group   1 Type Fe  : 17s13p7d2f1g contracted to 6s6p4d2f1g pattern {842111/631111/4111/11/1}
 Group   2 Type S   : 15s10p4d1f contracted to 6s6p4d1f pattern {732111/511111/1111/1}

Atom   0Fe   basis set group =>   1
Atom   1S    basis set group =>   2
---------------------------------
AUXILIARY/C BASIS SET INFORMATION
---------------------------------
There are 2 groups of distinct atoms

 Group   1 Type Fe  : 10s10p9d7f5g3h1i contracted to 10s10p9d7f5g3h1i pattern {1111111111/1111111111/111111111/1111111/11111/111/1}
 Group   2 Type S   : 12s9p8d6f2g contracted to 12s9p8d6f2g pattern {111111111111/111111111/11111111/111111/11}

Atom   0Fe   basis set group =>   1
Atom   1S    basis set group =>   2
----------------------------------
AUXILIARY/JK BASIS SET INFORMATION
----------------------------------
There are 2 groups of distinct atoms

 Group   1 Type Fe  : 19s14p12d10f7g3h1i contracted to 16s13p11d9f5g3h1i pattern {4111111111111111/2111111111111/21111111111/211111111/31111/111/1}
 Group   2 Type S   : 16s12p10d4f1g contracted to 13s11p9d4f1g pattern {4111111111111/21111111111/211111111/1111/1}

Atom   0Fe   basis set group =>   1
Atom   1S    basis set group =>   2


           ************************************************************
           *        Program running with 24 parallel MPI-processes    *
           *              working on a common directory               *
           ************************************************************
------------------------------------------------------------------------------
                           ORCA GTO INTEGRAL CALCULATION
                           -- RI-GTO INTEGRALS CHOSEN --
------------------------------------------------------------------------------

                         BASIS SET STATISTICS AND STARTUP INFO

Gaussian basis set:
 # of primitive gaussian shells          ...   70
 # of primitive gaussian functions       ...  186
 # of contracted shells                  ...   36
 # of contracted basis functions         ...  118
 Highest angular momentum                ...    4
 Maximum contraction depth               ...    8
Auxiliary gaussian basis set:
 # of primitive gaussian shells          ...  109
 # of primitive gaussian functions       ...  439
 # of contracted shells                  ...   96
 # of contracted aux-basis functions     ...  392
 Highest angular momentum                ...    6
 Maximum contraction depth               ...    4
Ratio of auxiliary to basis functions    ...  3.32
Integral package used                  ... LIBINT
 One Electron integrals                  ... done
 Ordering auxiliary basis shells         ... done
 Integral threshhold             Thresh  ...  1.000e-10
 Primitive cut-off               TCut    ...  1.000e-11
 Pre-screening matrix                    ... done
 Shell pair data                         ... 
 Ordering of the shell pairs             ... done (   0.000 sec) 651 of 666 pairs
 Determination of significant pairs      ... done (   0.000 sec)
 Creation of shell pair data             ... done (   0.000 sec)
 Storage of shell pair data              ... done (   0.006 sec)
 Shell pair data done in (   0.006 sec)
 Computing two index integrals           ... done
 Cholesky decomposition of the V-matrix  ... done


Timings:
 Total evaluation time                   ...   0.202 sec (  0.003 min)
 One electron matrix time                ...   0.037 sec (  0.001 min) = 18.1%
 Schwartz matrix evaluation time         ...   0.110 sec (  0.002 min) = 54.3%
 Two index repulsion integral time       ...   0.019 sec (  0.000 min) =  9.2%
 Cholesky decomposition of V             ...   0.002 sec (  0.000 min) =  1.2%
 Three index repulsion integral time     ...   0.000 sec (  0.000 min) =  0.0%



           ************************************************************
           *        Program running with 24 parallel MPI-processes    *
           *              working on a common directory               *
           ************************************************************
-------------------------------------------------------------------------------
                                 ORCA SCF
-------------------------------------------------------------------------------

------------
SCF SETTINGS
------------
Hamiltonian:
 Density Functional     Method          .... DFT(GTOs)
 Exchange Functional    Exchange        .... B88
   X-Alpha parameter    XAlpha          ....  0.666667
   Becke's b parameter  XBeta           ....  0.004200
 Correlation Functional Correlation     .... LYP
 LDA part of GGA corr.  LDAOpt          .... VWN-3
 Gradients option       PostSCFGGA      .... off
 Hybrid DFT is turned on
   Fraction HF Exchange ScalHFX         ....  0.530000
   Scaling of DF-GGA-X  ScalDFX         ....  0.470000
   Scaling of DF-GGA-C  ScalDFC         ....  0.730000
   Scaling of DF-LDA-C  ScalLDAC        ....  0.730000
   Perturbative correction              ....  0.270000
   Density functional embedding theory  .... OFF
 RI-approximation to the Coulomb term is turned on
   Number of auxiliary basis functions  .... 392
   RI-JK (J+K treated both via RI)      .... on


General Settings:
 Integral files         IntName         .... TMD20_FeS
 Hartree-Fock type      HFTyp           .... UHF
 Total Charge           Charge          ....    0
 Multiplicity           Mult            ....    5
 Number of Electrons    NEL             ....   42
 Basis Dimension        Dim             ....  118
 Nuclear Repulsion      ENuc            ....    108.9790686400 Eh

Convergence Acceleration:
 DIIS                   CNVDIIS         .... on
   Start iteration      DIISMaxIt       ....    12
   Startup error        DIISStart       ....  0.200000
   # of expansion vecs  DIISMaxEq       ....     5
   Bias factor          DIISBfac        ....   1.050
   Max. coefficient     DIISMaxC        ....  10.000
 Newton-Raphson         CNVNR           .... off
 SOSCF                  CNVSOSCF        .... off
 Level Shifting         CNVShift        .... on
   Level shift para.    LevelShift      ....    0.2500
   Turn off err/grad.   ShiftErr        ....    0.0010
 Zerner damping         CNVZerner       .... off
 Static damping         CNVDamp         .... on
   Fraction old density DampFac         ....    0.7000
   Max. Damping (<1)    DampMax         ....    0.9800
   Min. Damping (>=0)   DampMin         ....    0.0000
   Turn off err/grad.   DampErr         ....    0.1000
 Fernandez-Rico         CNVRico         .... off

SCF Procedure:
 Maximum # iterations   MaxIter         ....   125
 SCF integral mode      SCFMode         .... Direct
   Integral package                     .... LIBINT
 Reset frequency        DirectResetFreq ....    20
 Integral Threshold     Thresh          ....  1.000e-10 Eh
 Primitive CutOff       TCut            ....  1.000e-11 Eh

Convergence Tolerance:
 Convergence Check Mode ConvCheckMode   .... Total+1el-Energy
 Convergence forced     ConvForced      .... 0
 Energy Change          TolE            ....  1.000e-06 Eh
 1-El. energy change                    ....  1.000e-03 Eh
 DIIS Error             TolErr          ....  1.000e-06


Diagonalization of the overlap matrix:
Smallest eigenvalue                        ... 1.056e-03
Time for diagonalization                   ...    0.004 sec
Threshold for overlap eigenvalues          ... 1.000e-08
Number of eigenvalues below threshold      ... 0
Time for construction of square roots      ...    0.002 sec
Total time needed                          ...    0.005 sec

-------------------
DFT GRID GENERATION
-------------------

General Integration Accuracy     IntAcc      ...  4.670
Radial Grid Type                 RadialGrid  ... Gauss-Chebyshev
Angular Grid (max. acc.)         AngularGrid ... Lebedev-302
Angular grid pruning method      GridPruning ... 3 (G Style)
Weight generation scheme         WeightScheme... Becke
Basis function cutoff            BFCut       ...    1.0000e-10
Integration weight cutoff        WCut        ...    1.0000e-14
Grids for H and He will be reduced by one unit

# of grid points (after initial pruning)     ...  16486 (   0.0 sec)
# of grid points (after weights+screening)   ...  16457 (   0.0 sec)
nearest neighbour list constructed           ...    0.0 sec
Grid point re-assignment to atoms done       ...    0.0 sec
Grid point division into batches done        ...    0.1 sec
Reduced shell lists constructed in    0.2 sec

Total number of grid points                  ...    16457
Total number of batches                      ...      258
Average number of points per batch           ...       63
Average number of grid points per atom       ...     8228
Average number of shells per batch           ...     7.08 (19.68%)
Average number of basis functions per batch  ...    20.25 (17.16%)
Average number of large shells per batch     ...     4.58 (64.71%)
Average number of large basis fcns per batch ...    11.92 (58.85%)
Average number of aux-shells per batch       ...     7.08 ( 7.38%)
Average number of aux functions per batch    ...    20.25 ( 5.17%)
Maximum spatial batch extension              ...  24.49, 24.19, 18.13 au
Average spatial batch extension              ...   0.84,  0.83,  0.65 au

Time for grid setup =    0.166 sec

------------------------------
INITIAL GUESS: MODEL POTENTIAL
------------------------------
Loading Hartree-Fock densities                     ... done
Calculating cut-offs                               ... done
Setting up the integral package                    ... done
Initializing the effective Hamiltonian             ... done
Starting the Coulomb interaction                   ... done (   0.0 sec)
Reading the grid                                   ... done
Mapping shells                                     ... done
Starting the XC term evaluation                    ... done (   0.0 sec)
  promolecular density results
     # of electrons  =     42.000003885
     EX              =    -79.371525926
     EC              =     -0.680596120
     EX+EC           =    -80.052122046
Transforming the Hamiltonian                       ... done (   0.0 sec)
Diagonalizing the Hamiltonian                      ... done (   0.0 sec)
Back transforming the eigenvectors                 ... done (   0.0 sec)
Now organizing SCF variables                       ... done
                      ------------------
                      INITIAL GUESS DONE (   0.2 sec)
                      ------------------
--------------
SCF ITERATIONS
--------------
ITER       Energy         Delta-E        Max-DP      RMS-DP      [F,P]     Damp
  0  -1661.2529274962   0.000000000000 0.03689342  0.00057989  0.1105524 0.7000
  1  -1661.2473041186   0.005623377590 0.03157939  0.00055610  0.0896436 0.7000
                               ***Turning on DIIS***
  2  -1661.2611288160  -0.013824697341 0.05645127  0.00128882  0.0503402 0.0000
  3  -1661.3324730446  -0.071344228589 0.03226275  0.00056941  0.0468424 0.0000
  4  -1661.3462832735  -0.013810228970 0.02832332  0.00036090  0.0152874 0.0000
  5  -1661.3499495765  -0.003666302955 0.01658856  0.00023292  0.0116715 0.0000
  6  -1661.3519440356  -0.001994459149 0.02017186  0.00021895  0.0114887 0.0000
  7  -1661.3532068339  -0.001262798271 0.02312702  0.00023346  0.0058669 0.0000
  8  -1661.3541100934  -0.000903259464 0.01702151  0.00017048  0.0038303 0.0000
  9  -1661.3545582750  -0.000448181606 0.01374176  0.00013348  0.0026247 0.0000
 10  -1661.3548026059  -0.000244330942 0.01119084  0.00010772  0.0016973 0.0000
 11  -1661.3549394056  -0.000136799722 0.00834697  0.00008408  0.0011747 0.0000
 12  -1661.3550215919  -0.000082186261 0.00929488  0.00010248  0.0009077 0.0000
 13  -1661.3550845941  -0.000063002193 0.00157607  0.00002234  0.0008766 0.0000
 14  -1661.3550973170  -0.000012722883 0.00430933  0.00004567  0.0002991 0.0000
 15  -1661.3551105951  -0.000013278166 0.00315759  0.00003346  0.0002324 0.0000
 16  -1661.3551158465  -0.000005251353 0.00126847  0.00001318  0.0001056 0.0000
 17  -1661.3551168957  -0.000001049184 0.00076886  0.00000824  0.0000715 0.0000
 18  -1661.3551172779  -0.000000382238 0.00057721  0.00000657  0.0000442 0.0000
                 **** Energy Check signals convergence ****

               *****************************************************
               *                     SUCCESS                       *
               *           SCF CONVERGED AFTER  19 CYCLES          *
               *****************************************************


----------------
TOTAL SCF ENERGY
----------------

Total Energy       :        -1661.35511743 Eh          -45207.77106 eV

Components:
Nuclear Repulsion  :          108.97906864 Eh            2965.47122 eV
Electronic Energy  :        -1770.33418607 Eh          -48173.24228 eV
One Electron Energy:        -2513.42454582 Eh          -68393.75896 eV
Two Electron Energy:          743.09035975 Eh           20220.51668 eV

Virial components:
Potential Energy   :        -3321.01942031 Eh          -90369.53272 eV
Kinetic Energy     :         1659.66430288 Eh           45161.76166 eV
Virial Ratio       :            2.00101877


DFT components:
N(Alpha)           :       23.000004695290 electrons
N(Beta)            :       19.000003788669 electrons
N(Total)           :       42.000008483959 electrons
E(X)               :      -37.429499577150 Eh       
E(C)               :       -1.334619651766 Eh       
E(XC)              :      -38.764119228916 Eh       
DFET-embed. en.    :        0.000000000000 Eh       

---------------
SCF CONVERGENCE
---------------

  Last Energy change         ...   -1.4728e-07  Tolerance :   1.0000e-06
  Last MAX-Density change    ...    8.8018e-05  Tolerance :   1.0000e-05
  Last RMS-Density change    ...    1.1117e-06  Tolerance :   1.0000e-06
  Last DIIS Error            ...    1.6687e-05  Tolerance :   1.0000e-06

             **** THE GBW FILE WAS UPDATED (TMD20_FeS.gbw) ****
             **** DENSITY FILE WAS UPDATED (TMD20_FeS.scfp) ****
             **** ENERGY FILE WAS UPDATED (TMD20_FeS.en.tmp) ****
----------------------
UHF SPIN CONTAMINATION
----------------------

Warning: in a DFT calculation there is little theoretical justification to 
         calculate <S**2> as in Hartree-Fock theory. We will do it anyways
         but you should keep in mind that the values have only limited relevance

Expectation value of <S**2>     :     6.116654
Ideal value S*(S+1) for S=2.0   :     6.000000
Deviation                       :     0.116654

             **** THE GBW FILE WAS UPDATED (TMD20_FeS.gbw) ****
             **** DENSITY FILE WAS UPDATED (TMD20_FeS.scfp) ****
----------------
ORBITAL ENERGIES
----------------
                 SPIN UP ORBITALS
  NO   OCC          E(Eh)            E(eV) 
   0   1.0000    -258.336421     -7029.6914 
   1   1.0000     -90.088468     -2451.4318 
   2   1.0000     -30.893560      -840.6565 
   3   1.0000     -26.609656      -724.0856 
   4   1.0000     -26.582843      -723.3559 
   5   1.0000     -26.582843      -723.3559 
   6   1.0000      -8.294730      -225.7111 
   7   1.0000      -6.138492      -167.0369 
   8   1.0000      -6.138492      -167.0369 
   9   1.0000      -6.136946      -166.9948 
  10   1.0000      -3.900522      -106.1386 
  11   1.0000      -2.647975       -72.0551 
  12   1.0000      -2.586719       -70.3882 
  13   1.0000      -2.586719       -70.3882 
  14   1.0000      -0.718126       -19.5412 
  15   1.0000      -0.531326       -14.4581 
  16   1.0000      -0.531326       -14.4581 
  17   1.0000      -0.520922       -14.1750 
  18   1.0000      -0.503432       -13.6991 
  19   1.0000      -0.461968       -12.5708 
  20   1.0000      -0.293424        -7.9845 
  21   1.0000      -0.259479        -7.0608 
  22   1.0000      -0.259479        -7.0608 
  23   0.0000      -0.095325        -2.5939 
  24   0.0000       0.003956         0.1077 
  25   0.0000       0.003956         0.1077 
  26   0.0000       0.039740         1.0814 
  27   0.0000       0.076904         2.0927 
  28   0.0000       0.087049         2.3687 
  29   0.0000       0.087049         2.3687 
  30   0.0000       0.109207         2.9717 
  31   0.0000       0.125913         3.4263 
  32   0.0000       0.125913         3.4263 
  33   0.0000       0.177380         4.8268 
  34   0.0000       0.178895         4.8680 
  35   0.0000       0.191870         5.2210 
  36   0.0000       0.213866         5.8196 
  37   0.0000       0.240179         6.5356 
  38   0.0000       0.240179         6.5356 
  39   0.0000       0.264213         7.1896 
  40   0.0000       0.264753         7.2043 
  41   0.0000       0.309230         8.4146 
  42   0.0000       0.325431         8.8554 
  43   0.0000       0.325431         8.8554 
  44   0.0000       0.405832        11.0433 
  45   0.0000       0.522618        14.2212 
  46   0.0000       0.522618        14.2212 
  47   0.0000       0.548761        14.9325 
  48   0.0000       0.579089        15.7578 
  49   0.0000       0.579089        15.7578 
  50   0.0000       0.610629        16.6161 
  51   0.0000       0.611013        16.6265 
  52   0.0000       0.639260        17.3951 
  53   0.0000       0.645916        17.5763 
  54   0.0000       0.645916        17.5763 
  55   0.0000       0.754789        20.5388 
  56   0.0000       0.921788        25.0831 
  57   0.0000       0.934271        25.4228 
  58   0.0000       1.027550        27.9611 
  59   0.0000       1.027550        27.9611 
  60   0.0000       1.039399        28.2835 
  61   0.0000       1.242618        33.8133 
  62   0.0000       1.739791        47.3421 
  63   0.0000       1.751916        47.6720 
  64   0.0000       1.752402        47.6853 
  65   0.0000       1.773741        48.2660 
  66   0.0000       1.773741        48.2660 
  67   0.0000       1.813203        49.3398 
  68   0.0000       1.814113        49.3645 
  69   0.0000       1.834626        49.9227 
  70   0.0000       1.834626        49.9227 
  71   0.0000       1.863221        50.7008 
  72   0.0000       1.863221        50.7008 
  73   0.0000       2.039760        55.5047 
  74   0.0000       2.099272        57.1241 
  75   0.0000       2.099272        57.1241 
  76   0.0000       2.193521        59.6888 
  77   0.0000       2.371346        64.5276 
  78   0.0000       2.371346        64.5276 
  79   0.0000       2.406976        65.4971 
  80   0.0000       2.421412        65.8900 
  81   0.0000       2.474987        67.3478 
  82   0.0000       2.474987        67.3478 
  83   0.0000       2.585085        70.3437 
  84   0.0000       2.788136        75.8690 
  85   0.0000       2.788136        75.8690 
  86   0.0000       3.031810        82.4997 
  87   0.0000       3.262936        88.7890 
  88   0.0000       3.560322        96.8813 
  89   0.0000       3.588993        97.6615 
  90   0.0000       3.601237        97.9946 
  91   0.0000       3.601237        97.9946 
  92   0.0000       3.835370       104.3657 
  93   0.0000       7.037015       191.4869 
  94   0.0000       7.037040       191.4876 
  95   0.0000       7.068464       192.3427 
  96   0.0000       7.068464       192.3427 
  97   0.0000       7.129677       194.0084 
  98   0.0000       8.600500       234.0315 
  99   0.0000       8.609711       234.2821 
 100   0.0000       8.609711       234.2821 
 101   0.0000       8.622960       234.6427 
 102   0.0000       8.625060       234.6998 
 103   0.0000       8.631026       234.8622 
 104   0.0000       8.631026       234.8622 
 105   0.0000       8.649324       235.3601 
 106   0.0000       8.652161       235.4373 
 107   0.0000       9.240186       251.4382 
 108   0.0000       9.240186       251.4382 
 109   0.0000       9.312532       253.4069 
 110   0.0000       9.342767       254.2296 
 111   0.0000       9.356406       254.6007 
 112   0.0000       9.356406       254.6007 
 113   0.0000       9.435457       256.7518 
 114   0.0000       9.435457       256.7518 
 115   0.0000       9.453084       257.2315 
 116   0.0000       9.722275       264.5565 
 117   0.0000      18.903753       514.3973 

                 SPIN DOWN ORBITALS
  NO   OCC          E(Eh)            E(eV) 
   0   1.0000    -258.333734     -7029.6183 
   1   1.0000     -90.089043     -2451.4475 
   2   1.0000     -30.804801      -838.2412 
   3   1.0000     -26.517822      -721.5866 
   4   1.0000     -26.508151      -721.3235 
   5   1.0000     -26.508151      -721.3235 
   6   1.0000      -8.295204      -225.7240 
   7   1.0000      -6.144294      -167.1947 
   8   1.0000      -6.136398      -166.9799 
   9   1.0000      -6.136398      -166.9799 
  10   1.0000      -3.665423       -99.7412 
  11   1.0000      -2.344353       -63.7931 
  12   1.0000      -2.344353       -63.7931 
  13   1.0000      -2.334152       -63.5155 
  14   1.0000      -0.719090       -19.5674 
  15   1.0000      -0.364498        -9.9185 
  16   1.0000      -0.335988        -9.1427 
  17   1.0000      -0.272907        -7.4262 
  18   1.0000      -0.272907        -7.4262 
  19   0.0000      -0.084617        -2.3026 
  20   0.0000      -0.015545        -0.4230 
  21   0.0000      -0.008761        -0.2384 
  22   0.0000      -0.008761        -0.2384 
  23   0.0000       0.041122         1.1190 
  24   0.0000       0.041122         1.1190 
  25   0.0000       0.049378         1.3436 
  26   0.0000       0.049586         1.3493 
  27   0.0000       0.082773         2.2524 
  28   0.0000       0.088299         2.4027 
  29   0.0000       0.088299         2.4027 
  30   0.0000       0.135315         3.6821 
  31   0.0000       0.144149         3.9225 
  32   0.0000       0.144149         3.9225 
  33   0.0000       0.186068         5.0632 
  34   0.0000       0.199574         5.4307 
  35   0.0000       0.210853         5.7376 
  36   0.0000       0.227006         6.1772 
  37   0.0000       0.267360         7.2752 
  38   0.0000       0.267360         7.2752 
  39   0.0000       0.269278         7.3274 
  40   0.0000       0.282713         7.6930 
  41   0.0000       0.322469         8.7748 
  42   0.0000       0.327150         8.9022 
  43   0.0000       0.327150         8.9022 
  44   0.0000       0.415015        11.2931 
  45   0.0000       0.534211        14.5366 
  46   0.0000       0.534211        14.5366 
  47   0.0000       0.553312        15.0564 
  48   0.0000       0.587530        15.9875 
  49   0.0000       0.587530        15.9875 
  50   0.0000       0.619001        16.8439 
  51   0.0000       0.620656        16.8889 
  52   0.0000       0.653045        17.7703 
  53   0.0000       0.669946        18.2302 
  54   0.0000       0.669946        18.2302 
  55   0.0000       0.772035        21.0081 
  56   0.0000       0.964891        26.2560 
  57   0.0000       1.020706        27.7748 
  58   0.0000       1.067270        29.0419 
  59   0.0000       1.097537        29.8655 
  60   0.0000       1.097537        29.8655 
  61   0.0000       1.280575        34.8462 
  62   0.0000       1.738228        47.2996 
  63   0.0000       1.759396        47.8756 
  64   0.0000       1.759985        47.8916 
  65   0.0000       1.767753        48.1030 
  66   0.0000       1.767753        48.1030 
  67   0.0000       1.814101        49.3642 
  68   0.0000       1.815725        49.4084 
  69   0.0000       1.844315        50.1864 
  70   0.0000       1.844315        50.1864 
  71   0.0000       1.882520        51.2260 
  72   0.0000       1.882520        51.2260 
  73   0.0000       2.053919        55.8900 
  74   0.0000       2.106486        57.3204 
  75   0.0000       2.106486        57.3204 
  76   0.0000       2.205086        60.0034 
  77   0.0000       2.457837        66.8812 
  78   0.0000       2.457837        66.8812 
  79   0.0000       2.497469        67.9596 
  80   0.0000       2.524043        68.6827 
  81   0.0000       2.551400        69.4271 
  82   0.0000       2.551400        69.4271 
  83   0.0000       2.675863        72.8139 
  84   0.0000       2.865123        77.9640 
  85   0.0000       2.865123        77.9640 
  86   0.0000       3.114638        84.7536 
  87   0.0000       3.341479        90.9263 
  88   0.0000       3.645994        99.2125 
  89   0.0000       3.714100       101.0658 
  90   0.0000       3.738076       101.7182 
  91   0.0000       3.738076       101.7182 
  92   0.0000       3.947603       107.4197 
  93   0.0000       7.039189       191.5461 
  94   0.0000       7.039247       191.5477 
  95   0.0000       7.066372       192.2858 
  96   0.0000       7.066372       192.2858 
  97   0.0000       7.127438       193.9474 
  98   0.0000       8.725305       237.4276 
  99   0.0000       8.732121       237.6131 
 100   0.0000       8.732121       237.6131 
 101   0.0000       8.742204       237.8875 
 102   0.0000       8.742706       237.9011 
 103   0.0000       8.743999       237.9363 
 104   0.0000       8.746713       238.0102 
 105   0.0000       8.746713       238.0102 
 106   0.0000       8.756384       238.2733 
 107   0.0000       9.258244       251.9296 
 108   0.0000       9.258244       251.9296 
 109   0.0000       9.480725       257.9836 
 110   0.0000       9.500026       258.5088 
 111   0.0000       9.505105       258.6471 
 112   0.0000       9.505105       258.6471 
 113   0.0000       9.544128       259.7089 
 114   0.0000       9.623394       261.8659 
 115   0.0000       9.623394       261.8659 
 116   0.0000       9.881548       268.8906 
 117   0.0000      18.903001       514.3768 

                    ********************************
                    * MULLIKEN POPULATION ANALYSIS *
                    ********************************

--------------------------------------------
MULLIKEN ATOMIC CHARGES AND SPIN POPULATIONS
--------------------------------------------
   0 Fe:    0.500313    4.040141
   1 S :   -0.500313   -0.040141
Sum of atomic charges         :   -0.0000000
Sum of atomic spin populations:    4.0000000

-----------------------------------------------------
MULLIKEN REDUCED ORBITAL CHARGES AND SPIN POPULATIONS
-----------------------------------------------------
CHARGE
  0 Fes       :     6.795240  s :     6.795240
      pz      :     4.061297  p :    12.318724
      px      :     4.128713
      py      :     4.128713
      dz2     :     1.098960  d :     6.382508
      dxz     :     1.142454
      dyz     :     1.142454
      dx2y2   :     0.999685
      dxy     :     1.998955
      f0      :     0.000999  f :     0.003130
      f+1     :     0.000906
      f-1     :     0.000906
      f+2     :     0.000045
      f-2     :     0.000077
      f+3     :     0.000099
      f-3     :     0.000099
      g0      :     0.000024  g :     0.000084
      g+1     :     0.000016
      g-1     :     0.000016
      g+2     :     0.000003
      g-2     :     0.000008
      g+3     :     0.000002
      g-3     :     0.000002
      g+4     :     0.000014
      g-4     :     0.000000
  1 S s       :     5.871959  s :     5.871959
      pz      :     3.161040  p :    10.580634
      px      :     3.709797
      py      :     3.709797
      dz2     :     0.008217  d :     0.041565
      dxz     :     0.016186
      dyz     :     0.016186
      dx2y2   :     0.000210
      dxy     :     0.000766
      f0      :     0.002249  f :     0.006157
      f+1     :     0.001828
      f-1     :     0.001828
      f+2     :     0.000057
      f-2     :     0.000194
      f+3     :     0.000000
      f-3     :     0.000000

SPIN
  0 Fes       :     0.429181  s :     0.429181
      pz      :    -0.004470  p :     0.077077
      px      :     0.040774
      py      :     0.040774
      dz2     :     0.838898  d :     3.534007
      dxz     :     0.847562
      dyz     :     0.847562
      dx2y2   :     0.999685
      dxy     :     0.000300
      f0      :    -0.000135  f :    -0.000154
      f+1     :     0.000043
      f-1     :     0.000043
      f+2     :     0.000045
      f-2     :     0.000014
      f+3     :    -0.000081
      f-3     :    -0.000081
      g0      :     0.000006  g :     0.000029
      g+1     :     0.000005
      g-1     :     0.000005
      g+2     :     0.000003
      g-2     :     0.000008
      g+3     :     0.000001
      g-3     :     0.000001
      g+4     :    -0.000001
      g-4     :    -0.000000
  1 S s       :    -0.032477  s :    -0.032477
      pz      :    -0.228625  p :     0.007900
      px      :     0.118262
      py      :     0.118262
      dz2     :    -0.002602  d :    -0.014723
      dxz     :    -0.006031
      dyz     :    -0.006031
      dx2y2   :     0.000210
      dxy     :    -0.000269
      f0      :     0.000224  f :    -0.000842
      f+1     :    -0.000535
      f-1     :    -0.000535
      f+2     :     0.000057
      f-2     :    -0.000054
      f+3     :    -0.000000
      f-3     :    -0.000000


                     *******************************
                     * LOEWDIN POPULATION ANALYSIS *
                     *******************************

-------------------------------------------
LOEWDIN ATOMIC CHARGES AND SPIN POPULATIONS
-------------------------------------------
   0 Fe:    0.218343    3.867190
   1 S :   -0.218343    0.132810

----------------------------------------------------
LOEWDIN REDUCED ORBITAL CHARGES AND SPIN POPULATIONS
----------------------------------------------------
CHARGE
  0 Fes       :     6.472420  s :     6.472420
      pz      :     4.245096  p :    12.615637
      px      :     4.185270
      py      :     4.185270
      dz2     :     1.243552  d :     6.685428
      dxz     :     1.223748
      dyz     :     1.223748
      dx2y2   :     0.998619
      dxy     :     1.995761
      f0      :     0.003724  f :     0.008061
      f+1     :     0.002001
      f-1     :     0.002001
      f+2     :     0.000050
      f-2     :     0.000088
      f+3     :     0.000099
      f-3     :     0.000099
      g0      :     0.000041  g :     0.000111
      g+1     :     0.000021
      g-1     :     0.000021
      g+2     :     0.000003
      g-2     :     0.000008
      g+3     :     0.000002
      g-3     :     0.000002
      g+4     :     0.000014
      g-4     :     0.000000
  1 S s       :     5.561258  s :     5.561258
      pz      :     3.392130  p :    10.528148
      px      :     3.568009
      py      :     3.568009
      dz2     :     0.074262  d :     0.113961
      dxz     :     0.017534
      dyz     :     0.017534
      dx2y2   :     0.001104
      dxy     :     0.003527
      f0      :     0.007504  f :     0.014977
      f+1     :     0.003317
      f-1     :     0.003317
      f+2     :     0.000224
      f-2     :     0.000615
      f+3     :     0.000000
      f-3     :     0.000000

SPIN
  0 Fes       :     0.260215  s :     0.260215
      pz      :    -0.003198  p :     0.100116
      px      :     0.051657
      py      :     0.051657
      dz2     :     0.823211  d :     3.507243
      dxz     :     0.842246
      dyz     :     0.842246
      dx2y2   :     0.998619
      dxy     :     0.000922
      f0      :    -0.000631  f :    -0.000401
      f+1     :     0.000164
      f-1     :     0.000164
      f+2     :     0.000050
      f-2     :     0.000014
      f+3     :    -0.000081
      f-3     :    -0.000081
      g0      :    -0.000000  g :     0.000018
      g+1     :     0.000003
      g-1     :     0.000003
      g+2     :     0.000003
      g-2     :     0.000008
      g+3     :     0.000001
      g-3     :     0.000001
      g+4     :    -0.000001
      g-4     :    -0.000000
  1 S s       :     0.016595  s :     0.016595
      pz      :    -0.114063  p :     0.097767
      px      :     0.105915
      py      :     0.105915
      dz2     :     0.015987  d :     0.014054
      dxz     :    -0.001097
      dyz     :    -0.001097
      dx2y2   :     0.001104
      dxy     :    -0.000843
      f0      :     0.001885  f :     0.004393
      f+1     :     0.001192
      f-1     :     0.001192
      f+2     :     0.000224
      f-2     :    -0.000101
      f+3     :    -0.000000
      f-3     :    -0.000000


                      *****************************
                      * MAYER POPULATION ANALYSIS *
                      *****************************

  NA   - Mulliken gross atomic population
  ZA   - Total nuclear charge
  QA   - Mulliken gross atomic charge
  VA   - Mayer's total valence
  BVA  - Mayer's bonded valence
  FA   - Mayer's free valence

  ATOM       NA         ZA         QA         VA         BVA        FA
  0 Fe    25.4997    26.0000     0.5003     5.5559     1.8998     3.6561
  1 S     16.5003    16.0000    -0.5003     1.9966     1.8998     0.0968

  Mayer bond orders larger than 0.100000
B(  0-Fe,  1-S ) :   1.8998 

-------
TIMINGS
-------

Total SCF time: 0 days 0 hours 0 min 3 sec 

Total time                  ....       3.717 sec
Sum of individual times     ....       3.596 sec  ( 96.7%)

Fock matrix formation       ....       3.229 sec  ( 86.9%)
  XC integration            ....       0.426 sec  ( 13.2% of F)
    Basis function eval.    ....       0.030 sec  (  7.0% of XC)
    Density eval.           ....       0.033 sec  (  7.6% of XC)
    XC-Functional eval.     ....       0.013 sec  (  3.1% of XC)
    XC-Potential eval.      ....       0.069 sec  ( 16.3% of XC)
Diagonalization             ....       0.070 sec  (  1.9%)
Density matrix formation    ....       0.011 sec  (  0.3%)
Population analysis         ....       0.006 sec  (  0.2%)
Initial guess               ....       0.084 sec  (  2.3%)
Orbital Transformation      ....       0.000 sec  (  0.0%)
Orbital Orthonormalization  ....       0.000 sec  (  0.0%)
DIIS solution               ....       0.031 sec  (  0.8%)
Grid generation             ....       0.166 sec  (  4.5%)


           ************************************************************
           *        Program running with 24 parallel MPI-processes    *
           *              working on a common directory               *
           ************************************************************

------------------------------------------------------------------------------
                                ORCA  MP2 
------------------------------------------------------------------------------

Freezing NCore=20 chemical core electrons

-------------
RI-MP2 ENERGY
-------------
Dimension of the basis                    ...  118
Memory devoted to MP2                     ... 5000 MB   
Data format for buffers                   ... DOUBLE
Compression type for matrix containers    ... UNCOMPRESSED
Overall scaling of the MP2 energy         ...   2.700e-01
Calculating two index integrals           ... done (    0.004 sec)
Cholesky decomposition of V**-1           ... done (    0.008 sec)

-----------------
RI-TRANSFORMATION (AUX index driven)
-----------------

Dimension of the orbital-basis         ... 118
Dimension of the aux-basis             ... 364
Transformation of internal/external MOs...   10-  22 to   23- 117
Number Format for Storage              ... Double (8 Byte)
Integral mode                          ... Direct

First Phase: integral generation and transformation of MO indices
  Aux angular momentum 0               ... done (    0.000 sec)
  Aux angular momentum 1               ... done (    0.001 sec)
  Aux angular momentum 2               ... done (    0.001 sec)
  Aux angular momentum 3               ... done (    0.002 sec)
  Aux angular momentum 4               ... done (    0.002 sec)
  Aux angular momentum 5               ... done (    0.003 sec)
  Aux angular momentum 6               ... done (    0.005 sec)
Closing buffer VIA ( 0.00 GB; CompressionRatio= 1.00)
  Phase 1 completed in     0.092 sec
Second Phase: sorting and transformation of aux index

IA-Transformation
Memory available                       ... 4998 MB 
Max. # MO pairs treated in a batch     ... 1    
# of internal orbitals                 ... 13
# batches for internal orbitals        ... 1
Closing buffer IAV ( 0.00 GB; CompressionRatio= 1.00)
(ia|v) transformation done in     0.003 sec

  Phase 2 completed in     0.008 sec
RI-Integral transformation completed in     0.101 sec

-----------------
RI-TRANSFORMATION (AUX index driven)
-----------------

Dimension of the orbital-basis         ... 118
Dimension of the aux-basis             ... 364
Transformation of internal/external MOs...   10-  18 to   19- 117
Number Format for Storage              ... Double (8 Byte)
Integral mode                          ... Direct

First Phase: integral generation and transformation of MO indices
  Aux angular momentum 0               ... done (    0.000 sec)
  Aux angular momentum 1               ... done (    0.001 sec)
  Aux angular momentum 2               ... done (    0.001 sec)
  Aux angular momentum 3               ... done (    0.002 sec)
  Aux angular momentum 4               ... done (    0.002 sec)
  Aux angular momentum 5               ... done (    0.003 sec)
  Aux angular momentum 6               ... done (    0.005 sec)
Closing buffer VIA ( 0.00 GB; CompressionRatio= 1.00)
  Phase 1 completed in     0.083 sec
Second Phase: sorting and transformation of aux index

IA-Transformation
Memory available                       ... 4998 MB 
Max. # MO pairs treated in a batch     ... 1    
# of internal orbitals                 ... 9
# batches for internal orbitals        ... 1
Closing buffer IAV ( 0.00 GB; CompressionRatio= 1.00)
(ia|v) transformation done in     0.002 sec

  Phase 2 completed in     0.006 sec
RI-Integral transformation completed in     0.091 sec
Opening buffers                              ... done

Starting loop over batches of integrals:

Operator 0  - window                       ... ( 10- 22)x( 23-117)
Operator 0  - Memory available             ...  5000 MB
Operator 0  - Memory needed per MO         ...   0.3 MB
Operator 0  - Number of orbitals per batch ... 1
Operator 0  - Number of batches            ... 1

OPERATOR  0   PASS   0:  MOs    10 ...   10 +   11 ...   11 +   12 ...   12 +   13 ...   13
                            +   14 ...   14 +   15 ...   15 +   16 ...   16 +   17 ...   17
                            +   18 ...   18 +   19 ...   19 +   20 ...   20 +   21 ...   21
                            +   22 ...   22
  Reading integrals       ... ok

Operator 1  - window                       ... ( 10- 18)x( 19-117)
Operator 1  - Memory available             ...  5000 MB
Operator 1  - Memory needed per MO         ...   0.3 MB
Operator 1  - Number of orbitals per batch ... 1
Operator 1  - Number of batches            ... 1

OPERATOR  1   PASS   0:  MOs    10 ...   10 +   11 ...   11 +   12 ...   12 +   13 ...   13
                            +   14 ...   14 +   15 ...   15 +   16 ...   16 +   17 ...   17
                            +   18 ...   18
  Reading integrals       ... ok
Time spent in pair loops =     0.007 sec
Deleting buffer (Ka|jb)[aa] ...done
Deleting buffer (Ka|jb)[ab] ...done
Deleting buffer (Ka|jb)[ba] ...done
Deleting buffer (Ka|jb)[bb] ...done

Correlation energy components}
 E2 and T2 for alpha/alpha pairs :     -0.052345796 Eh      0.000000000
 E2 and T2 for beta/beta   pairs :     -0.028951192 Eh      0.000000000
 E2 and T2 for alpha/beta  pairs :     -0.162339677 Eh      0.000000000


-----------------------------------------------
 RI-MP2 CORRELATION ENERGY:     -0.243636665 Eh
-----------------------------------------------


-------
TIMINGS
-------

Total time                :    0.247 sec
Integral trafo            :    0.225 sec ( 91.0%)
I/O of integrals          :    0.000 sec (  0.1%)
K(i,j) Operators          :    0.003 sec (  1.1%)
T(i,j) pair energies      :    0.000 sec (  0.1%)
V-calculation             :    0.004 sec (  1.7%)
V**(-1/2)                 :    0.008 sec (  3.2%)
Gamma(ia|P)               :    0.000 sec (  0.0%)
Gamma-Trafo               :    0.000 sec (  0.0%)
D(virtual)                :    0.000 sec (  0.0%)
D(internal)               :    0.000 sec (  0.0%)
W(virtual)                :    0.000 sec (  0.0%)
W(internal)               :    0.000 sec (  0.0%)
L(virtual)                :    0.000 sec (  0.0%)
L(internal)               :    0.000 sec (  0.0%)
G(D)                      :    0.000 sec (  0.0%)
G(Z)                      :    0.000 sec (  0.0%)
Z-Vector Solution         :    0.000 sec (  0.0%)
Z-Vector Solution         :    0.000 sec (  0.0%)
3-Index Derivative 
+ Separable RIJ part      :    0.000 sec (  0.0%)
2-Index Derivative 
+ Separable RIJ part      :    0.000 sec (  0.0%)
Separable Gradient (X)    :    0.000 sec (  0.0%)


---------------------------------------
MP2 TOTAL ENERGY:    -1661.598754091 Eh
---------------------------------------


-------------------------------------------------------------------------------
                          DFT DISPERSION CORRECTION                            
                                                                               
                              DFTD3 V3.1  Rev 1                                
                          USING Becke-Johnson damping                          
-------------------------------------------------------------------------------
The B2PLYP functional is recognized
Active option DFTDOPT                   ...         4   

molecular C6(AA) [au] = 691.675065 


            DFT-D V3
 parameters
 s6 scaling factor         :     0.6400 
 a1 scaling factor         :     0.3065 
 s8 scaling factor         :     0.9147 
 a2 scaling factor         :     5.0570 
 ad hoc parameters k1-k3   :    16.0000     1.3333    -4.0000 

 Edisp/kcal,au: -0.949563310771  -0.001513225296 
 E6   /kcal   :  -0.351048651 
 E8   /kcal   :  -0.598514660 
 % E8         :  63.030516531 

-------------------------   ----------------
Dispersion correction           -0.001513225
-------------------------   ----------------


-------------------------   --------------------
FINAL SINGLE POINT ENERGY     -1661.600267315827
-------------------------   --------------------


                            ***************************************
                            *     ORCA property calculations      *
                            ***************************************


  WARNING: The energy has been calculated at the MP2 level but the densities
           used in the property calculations are still SCF densities
           MP2 response densities have not been calculated 
           use %mp2 Density relaxed end
           or  %mp2 Density unrelaxed end

                                    ---------------------
                                    Active property flags
                                    ---------------------
   (+) Dipole Moment


------------------------------------------------------------------------------
                       ORCA ELECTRIC PROPERTIES CALCULATION
------------------------------------------------------------------------------

Dipole Moment Calculation                       ... on
Quadrupole Moment Calculation                   ... off
Polarizability Calculation                      ... off
GBWName                                         ... TMD20_FeS.gbw
Electron density file                           ... TMD20_FeS.scfp
The origin for moment calculation is the CENTER OF MASS  = ( 0.000000,  0.000000  0.062073)

-------------
DIPOLE MOMENT
-------------
                                X             Y             Z
Electronic contribution:     -0.00000      -0.00000       5.23680
Nuclear contribution   :      0.00000       0.00000      -2.60707
                        -----------------------------------------
Total Dipole Moment    :     -0.00000      -0.00000       2.62973
                        -----------------------------------------
Magnitude (a.u.)       :      2.62973
Magnitude (Debye)      :      6.68424



--------------------
Rotational spectrum 
--------------------
 
Rotational constants in cm-1:     0.000000     0.202836     0.202836 
Rotational constants in MHz :     0.000000  6080.880231  6080.880231 

 Dipole components along the rotational axes: 
x,y,z [a.u.] :     2.629727    -0.000000    -0.000000 
x,y,z [Debye]:     6.684235    -0.000000    -0.000000 

 

Timings for individual modules:

Sum of individual times         ...        5.311 sec (=   0.089 min)
GTO integral calculation        ...        0.552 sec (=   0.009 min)  10.4 %
SCF iterations                  ...        4.042 sec (=   0.067 min)  76.1 %
MP2 module                      ...        0.718 sec (=   0.012 min)  13.5 %
                             ****ORCA TERMINATED NORMALLY****
TOTAL RUN TIME: 0 days 0 hours 0 minutes 5 seconds 809 msec
