
                                 *****************
                                 * O   R   C   A *
                                 *****************

           --- An Ab Initio, DFT and Semiempirical electronic structure package ---

                  #######################################################
                  #                        -***-                        #
                  #          Department of theory and spectroscopy      #
                  #               Directorship: Frank Neese             #
                  #        Max Planck Institute fuer Kohlenforschung    #
                  #                Kaiser Wilhelm Platz 1               #
                  #                 D-45470 Muelheim/Ruhr               #
                  #                      Germany                        #
                  #                                                     #
                  #                  All rights reserved                #
                  #                        -***-                        #
                  #######################################################


                         Program Version 4.2.0 -  RELEASE  -


 With contributions from (in alphabetic order):
   Daniel Aravena         : Magnetic Suceptibility
   Michael Atanasov       : Ab Initio Ligand Field Theory (pilot matlab implementation)
   Alexander A. Auer      : GIAO ZORA, VPT2
   Ute Becker             : Parallelization
   Giovanni Bistoni       : ED, misc. LED, open-shell LED, HFLED
   Martin Brehm           : Molecular dynamics
   Dmytro Bykov           : SCF Hessian
   Vijay G. Chilkuri      : MRCI spin determinant printing, contributions to CSF-ICE
   Dipayan Datta          : RHF DLPNO-CCSD density
   Achintya Kumar Dutta   : EOM-CC, STEOM-CC
   Dmitry Ganyushin       : Spin-Orbit,Spin-Spin,Magnetic field MRCI
   Miquel Garcia          : C-PCM Hessian, Gaussian charge scheme
   Yang Guo               : DLPNO-NEVPT2, CIM, IAO-localization
   Andreas Hansen         : Spin unrestricted coupled pair/coupled cluster methods
   Benjamin Helmich-Paris : CASSCF linear response (MC-RPA)
   Lee Huntington         : MR-EOM, pCC
   Robert Izsak           : Overlap fitted RIJCOSX, COSX-SCS-MP3, EOM
   Christian Kollmar      : KDIIS, OOCD, Brueckner-CCSD(T), CCSD density
   Simone Kossmann        : Meta GGA functionals, TD-DFT gradient, OOMP2, MP2 Hessian
   Martin Krupicka        : AUTO-CI
   Lucas Lang             : DCDCAS
   Dagmar Lenk            : GEPOL surface, SMD
   Dimitrios Liakos       : Extrapolation schemes; Compound Job, initial MDCI parallelization
   Dimitrios Manganas     : Further ROCIS development; embedding schemes
   Dimitrios Pantazis     : SARC Basis sets
   Taras Petrenko         : DFT Hessian,TD-DFT gradient, ASA, ECA, R-Raman, ABS, FL, XAS/XES, NRVS
   Peter Pinski           : DLPNO-MP2, DLPNO-MP2 Gradient
   Christoph Reimann      : Effective Core Potentials
   Marius Retegan         : Local ZFS, SOC
   Christoph Riplinger    : Optimizer, TS searches, QM/MM, DLPNO-CCSD(T), (RO)-DLPNO pert. Triples
   Tobias Risthaus        : Range-separated hybrids, TD-DFT gradient, RPA, STAB
   Michael Roemelt        : Original ROCIS implementation
   Masaaki Saitow         : Open-shell DLPNO-CCSD energy and density
   Barbara Sandhoefer     : DKH picture change effects
   Avijit Sen             : IP-ROCIS
   Kantharuban Sivalingam : CASSCF convergence, NEVPT2, FIC-MRCI
   Bernardo de Souza      : ESD, SOC TD-DFT
   Georgi Stoychev        : AutoAux, RI-MP2 NMR
   Willem Van den Heuvel  : Paramagnetic NMR
   Boris Wezisla          : Elementary symmetry handling
   Frank Wennmohs         : Technical directorship


 We gratefully acknowledge several colleagues who have allowed us to
 interface, adapt or use parts of their codes:
   Stefan Grimme, W. Hujo, H. Kruse,             : VdW corrections, initial TS optimization,
                  C. Bannwarth                     DFT functionals, gCP, sTDA/sTD-DF
   Ed Valeev, F. Pavosevic, A. Kumar             : LibInt (2-el integral package), F12 methods
   Garnet Chan, S. Sharma, J. Yang, R. Olivares  : DMRG
   Ulf Ekstrom                                   : XCFun DFT Library
   Mihaly Kallay                                 : mrcc  (arbitrary order and MRCC methods)
   Andreas Klamt, Michael Diedenhofen            : otool_cosmo (COSMO solvation model)
   Jiri Pittner, Ondrej Demel                    : Mk-CCSD
   Frank Weinhold                                : gennbo (NPA and NBO analysis)
   Christopher J. Cramer and Donald G. Truhlar   : smd solvation model
   Lars Goerigk                                  : TD-DFT with DH, B97 family of functionals
   V. Asgeirsson, H. Jonsson                     : NEB implementation
   FAccTs GmbH                                   : IRC, NEB, NEB-TS, Multilevel, MM, QM/MM, CI optimization
   S Lehtola, MJT Oliveira, MAL Marques          : LibXC Library


 Your calculation uses the libint2 library for the computation of 2-el integrals
 For citations please refer to: http://libint.valeyev.net

 Your ORCA version has been built with support for libXC version: 4.2.3
 For citations please refer to: https://tddft.org/programs/libxc/

 This ORCA versions uses:
   CBLAS   interface :  Fast vector & matrix operations
   LAPACKE interface :  Fast linear algebra routines
   SCALAPACK package :  Parallel linear algebra routines


Your calculation utilizes the atom-pairwise dispersion correction
with the Becke-Johnson damping scheme (D3BJ)
Cite in your paper:
S.Grimme, S.Ehrlich, L.Goerigk, J Comput Chem, (2011), 32, 1456–1465 
S.Grimme, J.Antony, S.Ehrlich and H.Krieg, J.Chem.Phys., 132, (2010), 154104 
   

----- Orbital basis set information -----
Your calculation utilizes the basis: def2-TZVPPD
   F. Weigend and R. Ahlrichs, Phys. Chem. Chem. Phys. 7, 3297 (2005).
   D. Rappoport and F. Furche, J. Chem. Phys. 133 134105 (2010).

----- AuxC basis set information -----
Your calculation utilizes the auxiliary basis: def2-TZVPPD/C
   A. Hellweg, C. Hattig, S. Hofener and W. Klopper, Theor. Chem. Acc. 117, 587 (2007).

----- AuxJK basis set information -----
Your calculation utilizes the auxiliary basis: def2/JK
   H-Ba, Hf-Rn: F. Weigend, J. Comput. Chem. 29, 167 (2008).

================================================================================
                                        WARNINGS
                       Please study these warnings very carefully!
================================================================================


WARNING: your system is open-shell and RHF/RKS was chosen
  ===> : WILL SWITCH to UHF/UKS


WARNING: No MP2 level density has been requested!
         To caclulate MP2 level properties use
         %mp2 Density relaxed end
         or
         %mp2 Density unrelaxed end
         Otherwise for double-hybrid DFT only the energy is correct!

WARNING: The frozen-core approximation is turned on by default for 
         the MP2 part of double-hybrid DFT.

INFO   : the flag for use of LIBINT has been found!

================================================================================
                                       INPUT FILE
================================================================================
NAME = TMD21_CoH.in
|  1> #
|  2> # TMD21_CoH ri-B2PLYP-D3BJ/Def2-TZVPPD
|  3> #
|  4> ! rijk ri-b2plyp d3bj def2-tzvppd def2/jk def2-tzvppd/c grid4 nofinalgrid
|  5> 
|  6> *xyz 0 3
|  7> Co       0.000000    0.000000    0.053929 
|  8> H        0.000000    0.000000   -1.456071 
|  9> *
| 10> 
| 11> %maxcore 5000
| 12> 
| 13> %pal
| 14> nprocs = 24
| 15> end
| 16> 
| 17> 
| 18>                          ****END OF INPUT****
================================================================================

                       ****************************
                       * Single Point Calculation *
                       ****************************

---------------------------------
CARTESIAN COORDINATES (ANGSTROEM)
---------------------------------
  Co     0.000000    0.000000    0.053929
  H      0.000000    0.000000   -1.456071

----------------------------
CARTESIAN COORDINATES (A.U.)
----------------------------
  NO LB      ZA    FRAG     MASS         X           Y           Z
   0 Co   27.0000    0    58.930    0.000000    0.000000    0.101911
   1 H     1.0000    0     1.008    0.000000    0.000000   -2.751575

--------------------------------
INTERNAL COORDINATES (ANGSTROEM)
--------------------------------
 Co     0   0   0     0.000000000000     0.00000000     0.00000000
 H      1   0   0     1.510000000000     0.00000000     0.00000000

---------------------------
INTERNAL COORDINATES (A.U.)
---------------------------
 Co     0   0   0     0.000000000000     0.00000000     0.00000000
 H      1   0   0     2.853486462221     0.00000000     0.00000000

---------------------
BASIS SET INFORMATION
---------------------
There are 2 groups of distinct atoms

 Group   1 Type Co  : 17s13p7d2f1g contracted to 6s6p4d2f1g pattern {842111/631111/4111/11/1}
 Group   2 Type H   : 5s3p1d contracted to 3s3p1d pattern {311/111/1}

Atom   0Co   basis set group =>   1
Atom   1H    basis set group =>   2
---------------------------------
AUXILIARY/C BASIS SET INFORMATION
---------------------------------
There are 2 groups of distinct atoms

 Group   1 Type Co  : 10s10p9d7f5g3h1i contracted to 10s10p9d7f5g3h1i pattern {1111111111/1111111111/111111111/1111111/11111/111/1}
 Group   2 Type H   : 5s4p3d1f contracted to 5s4p3d1f pattern {11111/1111/111/1}

Atom   0Co   basis set group =>   1
Atom   1H    basis set group =>   2
----------------------------------
AUXILIARY/JK BASIS SET INFORMATION
----------------------------------
There are 2 groups of distinct atoms

 Group   1 Type Co  : 19s14p12d10f7g3h1i contracted to 16s13p11d9f5g3h1i pattern {4111111111111111/2111111111111/21111111111/211111111/31111/111/1}
 Group   2 Type H   : 4s2p2d contracted to 2s2p2d pattern {31/11/11}

Atom   0Co   basis set group =>   1
Atom   1H    basis set group =>   2


           ************************************************************
           *        Program running with 24 parallel MPI-processes    *
           *              working on a common directory               *
           ************************************************************
------------------------------------------------------------------------------
                           ORCA GTO INTEGRAL CALCULATION
                           -- RI-GTO INTEGRALS CHOSEN --
------------------------------------------------------------------------------

                         BASIS SET STATISTICS AND STARTUP INFO

Gaussian basis set:
 # of primitive gaussian shells          ...   49
 # of primitive gaussian functions       ...  133
 # of contracted shells                  ...   26
 # of contracted basis functions         ...   84
 Highest angular momentum                ...    4
 Maximum contraction depth               ...    8
Auxiliary gaussian basis set:
 # of primitive gaussian shells          ...   74
 # of primitive gaussian functions       ...  320
 # of contracted shells                  ...   64
 # of contracted aux-basis functions     ...  282
 Highest angular momentum                ...    6
 Maximum contraction depth               ...    4
Ratio of auxiliary to basis functions    ...  3.36
Integral package used                  ... LIBINT
 One Electron integrals                  ... done
 Ordering auxiliary basis shells         ... done
 Integral threshhold             Thresh  ...  1.000e-10
 Primitive cut-off               TCut    ...  1.000e-11
 Pre-screening matrix                    ... done
 Shell pair data                         ... 
 Ordering of the shell pairs             ... done (   0.000 sec) 351 of 351 pairs
 Determination of significant pairs      ... done (   0.000 sec)
 Creation of shell pair data             ... done (   0.000 sec)
 Storage of shell pair data              ... done (   0.000 sec)
 Shell pair data done in (   0.000 sec)
 Computing two index integrals           ... done
 Cholesky decomposition of the V-matrix  ... done


Timings:
 Total evaluation time                   ...   0.206 sec (  0.003 min)
 One electron matrix time                ...   0.038 sec (  0.001 min) = 18.3%
 Schwartz matrix evaluation time         ...   0.117 sec (  0.002 min) = 56.8%
 Two index repulsion integral time       ...   0.014 sec (  0.000 min) =  6.6%
 Cholesky decomposition of V             ...   0.002 sec (  0.000 min) =  0.8%
 Three index repulsion integral time     ...   0.000 sec (  0.000 min) =  0.0%



           ************************************************************
           *        Program running with 24 parallel MPI-processes    *
           *              working on a common directory               *
           ************************************************************
-------------------------------------------------------------------------------
                                 ORCA SCF
-------------------------------------------------------------------------------

------------
SCF SETTINGS
------------
Hamiltonian:
 Density Functional     Method          .... DFT(GTOs)
 Exchange Functional    Exchange        .... B88
   X-Alpha parameter    XAlpha          ....  0.666667
   Becke's b parameter  XBeta           ....  0.004200
 Correlation Functional Correlation     .... LYP
 LDA part of GGA corr.  LDAOpt          .... VWN-3
 Gradients option       PostSCFGGA      .... off
 Hybrid DFT is turned on
   Fraction HF Exchange ScalHFX         ....  0.530000
   Scaling of DF-GGA-X  ScalDFX         ....  0.470000
   Scaling of DF-GGA-C  ScalDFC         ....  0.730000
   Scaling of DF-LDA-C  ScalLDAC        ....  0.730000
   Perturbative correction              ....  0.270000
   Density functional embedding theory  .... OFF
 RI-approximation to the Coulomb term is turned on
   Number of auxiliary basis functions  .... 282
   RI-JK (J+K treated both via RI)      .... on


General Settings:
 Integral files         IntName         .... TMD21_CoH
 Hartree-Fock type      HFTyp           .... UHF
 Total Charge           Charge          ....    0
 Multiplicity           Mult            ....    3
 Number of Electrons    NEL             ....   28
 Basis Dimension        Dim             ....   84
 Nuclear Repulsion      ENuc            ....      9.4621090226 Eh

Convergence Acceleration:
 DIIS                   CNVDIIS         .... on
   Start iteration      DIISMaxIt       ....    12
   Startup error        DIISStart       ....  0.200000
   # of expansion vecs  DIISMaxEq       ....     5
   Bias factor          DIISBfac        ....   1.050
   Max. coefficient     DIISMaxC        ....  10.000
 Newton-Raphson         CNVNR           .... off
 SOSCF                  CNVSOSCF        .... off
 Level Shifting         CNVShift        .... on
   Level shift para.    LevelShift      ....    0.2500
   Turn off err/grad.   ShiftErr        ....    0.0010
 Zerner damping         CNVZerner       .... off
 Static damping         CNVDamp         .... on
   Fraction old density DampFac         ....    0.7000
   Max. Damping (<1)    DampMax         ....    0.9800
   Min. Damping (>=0)   DampMin         ....    0.0000
   Turn off err/grad.   DampErr         ....    0.1000
 Fernandez-Rico         CNVRico         .... off

SCF Procedure:
 Maximum # iterations   MaxIter         ....   125
 SCF integral mode      SCFMode         .... Direct
   Integral package                     .... LIBINT
 Reset frequency        DirectResetFreq ....    20
 Integral Threshold     Thresh          ....  1.000e-10 Eh
 Primitive CutOff       TCut            ....  1.000e-11 Eh

Convergence Tolerance:
 Convergence Check Mode ConvCheckMode   .... Total+1el-Energy
 Convergence forced     ConvForced      .... 0
 Energy Change          TolE            ....  1.000e-06 Eh
 1-El. energy change                    ....  1.000e-03 Eh
 DIIS Error             TolErr          ....  1.000e-06


Diagonalization of the overlap matrix:
Smallest eigenvalue                        ... 2.887e-03
Time for diagonalization                   ...    0.003 sec
Threshold for overlap eigenvalues          ... 1.000e-08
Number of eigenvalues below threshold      ... 0
Time for construction of square roots      ...    0.001 sec
Total time needed                          ...    0.004 sec

-------------------
DFT GRID GENERATION
-------------------

General Integration Accuracy     IntAcc      ...  4.670
Radial Grid Type                 RadialGrid  ... Gauss-Chebyshev
Angular Grid (max. acc.)         AngularGrid ... Lebedev-302
Angular grid pruning method      GridPruning ... 3 (G Style)
Weight generation scheme         WeightScheme... Becke
Basis function cutoff            BFCut       ...    1.0000e-10
Integration weight cutoff        WCut        ...    1.0000e-14
Grids for H and He will be reduced by one unit

# of grid points (after initial pruning)     ...  13034 (   0.0 sec)
# of grid points (after weights+screening)   ...  12997 (   0.0 sec)
nearest neighbour list constructed           ...    0.0 sec
Grid point re-assignment to atoms done       ...    0.0 sec
Grid point division into batches done        ...    0.1 sec
Reduced shell lists constructed in    0.1 sec

Total number of grid points                  ...    12997
Total number of batches                      ...      204
Average number of points per batch           ...       63
Average number of grid points per atom       ...     6498
Average number of shells per batch           ...     5.40 (20.77%)
Average number of basis functions per batch  ...    14.20 (16.90%)
Average number of large shells per batch     ...     2.60 (48.15%)
Average number of large basis fcns per batch ...     6.80 (47.89%)
Average number of aux-shells per batch       ...     5.40 ( 8.44%)
Average number of aux functions per batch    ...    14.20 ( 5.04%)
Maximum spatial batch extension              ...  31.41, 28.57, 18.66 au
Average spatial batch extension              ...   1.02,  0.95,  0.71 au

Time for grid setup =    0.120 sec

------------------------------
INITIAL GUESS: MODEL POTENTIAL
------------------------------
Loading Hartree-Fock densities                     ... done
Calculating cut-offs                               ... done
Setting up the integral package                    ... done
Initializing the effective Hamiltonian             ... done
Starting the Coulomb interaction                   ... done (   0.0 sec)
Reading the grid                                   ... done
Mapping shells                                     ... done
Starting the XC term evaluation                    ... done (   0.0 sec)
  promolecular density results
     # of electrons  =     27.999537407
     EX              =    -58.296015759
     EC              =     -0.472455646
     EX+EC           =    -58.768471406
Transforming the Hamiltonian                       ... done (   0.0 sec)
Diagonalizing the Hamiltonian                      ... done (   0.0 sec)
Back transforming the eigenvectors                 ... done (   0.0 sec)
Now organizing SCF variables                       ... done
                      ------------------
                      INITIAL GUESS DONE (   0.2 sec)
                      ------------------
--------------
SCF ITERATIONS
--------------
ITER       Energy         Delta-E        Max-DP      RMS-DP      [F,P]     Damp
  0  -1382.8244288387   0.000000000000 0.03140825  0.00093301  0.2131019 0.7000
  1  -1382.6605512136   0.163877625119 0.02219569  0.00069491  0.1077411 0.7000
                               ***Turning on DIIS***
  2  -1382.7477097523  -0.087158538716 0.04047529  0.00134627  0.0817276 0.0000
  3  -1382.9043138782  -0.156604125927 0.01684766  0.00058572  0.0559279 0.0000
  4  -1382.9096292245  -0.005315346318 0.00712699  0.00028506  0.0450530 0.0000
  5  -1382.9121819768  -0.002552752248 0.00562918  0.00015496  0.0094385 0.0000
  6  -1382.9128409652  -0.000658988449 0.00347186  0.00009901  0.0054901 0.0000
  7  -1382.9131173292  -0.000276363955 0.00354975  0.00008422  0.0035039 0.0000
  8  -1382.9132615372  -0.000144208038 0.00217840  0.00005136  0.0018825 0.0000
  9  -1382.9133132412  -0.000051703968 0.00145648  0.00003390  0.0010049 0.0000
 10  -1382.9133339847  -0.000020743534 0.00153194  0.00004035  0.0005338 0.0000
 11  -1382.9133464665  -0.000012481757 0.00044132  0.00001096  0.0002330 0.0000
 12  -1382.9133475399  -0.000001073455 0.00025323  0.00000566  0.0002483 0.0000
 13  -1382.9133477524  -0.000000212513 0.00006744  0.00000153  0.0000498 0.0000
                 **** Energy Check signals convergence ****

               *****************************************************
               *                     SUCCESS                       *
               *           SCF CONVERGED AFTER  14 CYCLES          *
               *****************************************************


----------------
TOTAL SCF ENERGY
----------------

Total Energy       :        -1382.91334777 Eh          -37630.98532 eV

Components:
Nuclear Repulsion  :            9.46210902 Eh             257.47708 eV
Electronic Energy  :        -1392.37545679 Eh          -37888.46239 eV
One Electron Energy:        -1937.78166098 Eh          -52729.71972 eV
Two Electron Energy:          545.40620418 Eh           14841.25733 eV

Virial components:
Potential Energy   :        -2764.31286540 Eh          -75220.77722 eV
Kinetic Energy     :         1381.39951763 Eh           37589.79190 eV
Virial Ratio       :            2.00109587


DFT components:
N(Alpha)           :       14.999999783758 electrons
N(Beta)            :       13.000000352710 electrons
N(Total)           :       28.000000136469 electrons
E(X)               :      -27.548449056962 Eh       
E(C)               :       -0.925829398469 Eh       
E(XC)              :      -28.474278455431 Eh       
DFET-embed. en.    :        0.000000000000 Eh       

---------------
SCF CONVERGENCE
---------------

  Last Energy change         ...   -1.9922e-08  Tolerance :   1.0000e-06
  Last MAX-Density change    ...    2.0038e-05  Tolerance :   1.0000e-05
  Last RMS-Density change    ...    4.7463e-07  Tolerance :   1.0000e-06
  Last DIIS Error            ...    1.2247e-05  Tolerance :   1.0000e-06

             **** THE GBW FILE WAS UPDATED (TMD21_CoH.gbw) ****
             **** DENSITY FILE WAS UPDATED (TMD21_CoH.scfp) ****
             **** ENERGY FILE WAS UPDATED (TMD21_CoH.en.tmp) ****
----------------------
UHF SPIN CONTAMINATION
----------------------

Warning: in a DFT calculation there is little theoretical justification to 
         calculate <S**2> as in Hartree-Fock theory. We will do it anyways
         but you should keep in mind that the values have only limited relevance

Expectation value of <S**2>     :     2.038372
Ideal value S*(S+1) for S=1.0   :     2.000000
Deviation                       :     0.038372

             **** THE GBW FILE WAS UPDATED (TMD21_CoH.gbw) ****
             **** DENSITY FILE WAS UPDATED (TMD21_CoH.scfp) ****
----------------
ORBITAL ENERGIES
----------------
                 SPIN UP ORBITALS
  NO   OCC          E(Eh)            E(eV) 
   0   1.0000    -279.726600     -7611.7477 
   1   1.0000     -33.564006      -913.3230 
   2   1.0000     -29.045027      -790.3554 
   3   1.0000     -29.045027      -790.3554 
   4   1.0000     -29.043824      -790.3226 
   5   1.0000      -3.986993      -108.4916 
   6   1.0000      -2.601476       -70.7898 
   7   1.0000      -2.600467       -70.7623 
   8   1.0000      -2.600467       -70.7623 
   9   1.0000      -0.378718       -10.3055 
  10   1.0000      -0.364422        -9.9164 
  11   1.0000      -0.324037        -8.8175 
  12   1.0000      -0.324037        -8.8175 
  13   1.0000      -0.321236        -8.7413 
  14   1.0000      -0.261698        -7.1212 
  15   0.0000      -0.033848        -0.9211 
  16   0.0000       0.016307         0.4437 
  17   0.0000       0.016307         0.4437 
  18   0.0000       0.096933         2.6377 
  19   0.0000       0.109522         2.9802 
  20   0.0000       0.160242         4.3604 
  21   0.0000       0.160242         4.3604 
  22   0.0000       0.199034         5.4160 
  23   0.0000       0.228306         6.2125 
  24   0.0000       0.228306         6.2125 
  25   0.0000       0.246414         6.7053 
  26   0.0000       0.248731         6.7683 
  27   0.0000       0.343180         9.3384 
  28   0.0000       0.347359         9.4521 
  29   0.0000       0.347359         9.4521 
  30   0.0000       0.460217        12.5232 
  31   0.0000       0.537710        14.6318 
  32   0.0000       0.685957        18.6658 
  33   0.0000       0.685957        18.6658 
  34   0.0000       0.734459        19.9857 
  35   0.0000       0.942156        25.6374 
  36   0.0000       0.942156        25.6374 
  37   0.0000       1.071987        29.1703 
  38   0.0000       1.086410        29.5627 
  39   0.0000       1.193280        32.4708 
  40   0.0000       1.249592        34.0031 
  41   0.0000       1.249592        34.0031 
  42   0.0000       1.382588        37.6221 
  43   0.0000       2.598908        70.7199 
  44   0.0000       2.733148        74.3727 
  45   0.0000       2.733148        74.3727 
  46   0.0000       2.779227        75.6266 
  47   0.0000       2.820330        76.7451 
  48   0.0000       2.835175        77.1490 
  49   0.0000       2.843899        77.3864 
  50   0.0000       2.843899        77.3864 
  51   0.0000       2.864172        77.9381 
  52   0.0000       2.864172        77.9381 
  53   0.0000       3.126688        85.0815 
  54   0.0000       3.318622        90.3043 
  55   0.0000       3.438818        93.5750 
  56   0.0000       3.440487        93.6204 
  57   0.0000       3.863587       105.1335 
  58   0.0000       3.863587       105.1335 
  59   0.0000       3.885851       105.7394 
  60   0.0000       4.024918       109.5236 
  61   0.0000       4.055302       110.3504 
  62   0.0000       4.100914       111.5915 
  63   0.0000       4.100914       111.5915 
  64   0.0000       4.151776       112.9756 
  65   0.0000       4.151776       112.9756 
  66   0.0000       4.338516       118.0570 
  67   0.0000       5.304412       144.3404 
  68   0.0000      10.279217       279.7117 
  69   0.0000      10.280796       279.7547 
  70   0.0000      10.290204       280.0107 
  71   0.0000      10.300273       280.2847 
  72   0.0000      10.300273       280.2847 
  73   0.0000      10.314318       280.6669 
  74   0.0000      10.322703       280.8950 
  75   0.0000      10.322703       280.8950 
  76   0.0000      10.342596       281.4363 
  77   0.0000      10.836553       294.8776 
  78   0.0000      10.836553       294.8776 
  79   0.0000      10.853932       295.3505 
  80   0.0000      10.885607       296.2124 
  81   0.0000      10.963019       298.3189 
  82   0.0000      10.963019       298.3189 
  83   0.0000      11.244835       305.9875 

                 SPIN DOWN ORBITALS
  NO   OCC          E(Eh)            E(eV) 
   0   1.0000    -279.725283     -7611.7119 
   1   1.0000     -33.516001      -912.0168 
   2   1.0000     -29.003413      -789.2230 
   3   1.0000     -29.000602      -789.1465 
   4   1.0000     -29.000602      -789.1465 
   5   1.0000      -3.863028      -105.1183 
   6   1.0000      -2.462303       -67.0027 
   7   1.0000      -2.459053       -66.9142 
   8   1.0000      -2.459053       -66.9142 
   9   1.0000      -0.323110        -8.7923 
  10   1.0000      -0.273869        -7.4524 
  11   1.0000      -0.272976        -7.4281 
  12   1.0000      -0.272976        -7.4281 
  13   0.0000      -0.038767        -1.0549 
  14   0.0000       0.023744         0.6461 
  15   0.0000       0.023744         0.6461 
  16   0.0000       0.061655         1.6777 
  17   0.0000       0.115954         3.1553 
  18   0.0000       0.138195         3.7605 
  19   0.0000       0.144564         3.9338 
  20   0.0000       0.171918         4.6781 
  21   0.0000       0.171918         4.6781 
  22   0.0000       0.229739         6.2515 
  23   0.0000       0.229739         6.2515 
  24   0.0000       0.237924         6.4743 
  25   0.0000       0.253615         6.9012 
  26   0.0000       0.307005         8.3540 
  27   0.0000       0.349091         9.4993 
  28   0.0000       0.349091         9.4993 
  29   0.0000       0.368769        10.0347 
  30   0.0000       0.470633        12.8066 
  31   0.0000       0.538607        14.6562 
  32   0.0000       0.705534        19.1986 
  33   0.0000       0.705534        19.1986 
  34   0.0000       0.747528        20.3413 
  35   0.0000       0.940086        25.5810 
  36   0.0000       0.940086        25.5810 
  37   0.0000       1.104703        30.0605 
  38   0.0000       1.165805        31.7232 
  39   0.0000       1.246376        33.9156 
  40   0.0000       1.258449        34.2441 
  41   0.0000       1.258449        34.2441 
  42   0.0000       1.393504        37.9192 
  43   0.0000       2.622698        71.3672 
  44   0.0000       2.765440        75.2515 
  45   0.0000       2.765440        75.2515 
  46   0.0000       2.772268        75.4373 
  47   0.0000       2.839411        77.2643 
  48   0.0000       2.865853        77.9838 
  49   0.0000       2.908050        79.1321 
  50   0.0000       2.908050        79.1321 
  51   0.0000       2.930690        79.7481 
  52   0.0000       2.930690        79.7481 
  53   0.0000       3.168373        86.2158 
  54   0.0000       3.371865        91.7531 
  55   0.0000       3.427318        93.2621 
  56   0.0000       3.430057        93.3366 
  57   0.0000       3.862411       105.1016 
  58   0.0000       3.862411       105.1016 
  59   0.0000       3.977531       108.2341 
  60   0.0000       4.084544       111.1461 
  61   0.0000       4.110328       111.8477 
  62   0.0000       4.110328       111.8477 
  63   0.0000       4.154643       113.0536 
  64   0.0000       4.157654       113.1355 
  65   0.0000       4.157654       113.1355 
  66   0.0000       4.336113       117.9916 
  67   0.0000       5.335929       145.1980 
  68   0.0000      10.344659       281.4925 
  69   0.0000      10.346723       281.5487 
  70   0.0000      10.346723       281.5487 
  71   0.0000      10.361062       281.9388 
  72   0.0000      10.363977       282.0182 
  73   0.0000      10.365479       282.0590 
  74   0.0000      10.388822       282.6942 
  75   0.0000      10.388822       282.6942 
  76   0.0000      10.429673       283.8058 
  77   0.0000      10.902749       296.6789 
  78   0.0000      10.943281       297.7818 
  79   0.0000      10.953952       298.0722 
  80   0.0000      10.953952       298.0722 
  81   0.0000      11.067278       301.1560 
  82   0.0000      11.067278       301.1560 
  83   0.0000      11.375989       309.5564 

                    ********************************
                    * MULLIKEN POPULATION ANALYSIS *
                    ********************************

--------------------------------------------
MULLIKEN ATOMIC CHARGES AND SPIN POPULATIONS
--------------------------------------------
   0 Co:    0.146497    2.160965
   1 H :   -0.146497   -0.160965
Sum of atomic charges         :   -0.0000000
Sum of atomic spin populations:    2.0000000

-----------------------------------------------------
MULLIKEN REDUCED ORBITAL CHARGES AND SPIN POPULATIONS
-----------------------------------------------------
CHARGE
  0 Cos       :     6.752834  s :     6.752834
      pz      :     4.097285  p :    12.099870
      px      :     4.001292
      py      :     4.001292
      dz2     :     1.008014  d :     7.999775
      dxz     :     1.995929
      dyz     :     1.995929
      dx2y2   :     1.999931
      dxy     :     0.999971
      f0      :     0.000560  f :     0.000988
      f+1     :     0.000092
      f-1     :     0.000092
      f+2     :     0.000051
      f-2     :     0.000025
      f+3     :     0.000084
      f-3     :     0.000084
      g0      :     0.000014  g :     0.000037
      g+1     :     0.000000
      g-1     :     0.000000
      g+2     :     0.000002
      g-2     :     0.000004
      g+3     :     0.000002
      g-3     :     0.000002
      g+4     :     0.000011
      g-4     :     0.000000
  1 H s       :     1.147774  s :     1.147774
      pz      :    -0.007062  p :    -0.002619
      px      :     0.002221
      py      :     0.002221
      dz2     :     0.000570  d :     0.001343
      dxz     :     0.000379
      dyz     :     0.000379
      dx2y2   :     0.000015
      dxy     :     0.000000

SPIN
  0 Cos       :     0.300733  s :     0.300733
      pz      :    -0.015219  p :    -0.015438
      px      :    -0.000109
      py      :    -0.000109
      dz2     :     0.873862  d :     1.875997
      dxz     :     0.001076
      dyz     :     0.001076
      dx2y2   :     0.000012
      dxy     :     0.999971
      f0      :    -0.000141  f :    -0.000331
      f+1     :    -0.000039
      f-1     :    -0.000039
      f+2     :    -0.000001
      f-2     :     0.000025
      f+3     :    -0.000068
      f-3     :    -0.000068
      g0      :     0.000002  g :     0.000005
      g+1     :     0.000000
      g-1     :     0.000000
      g+2     :    -0.000000
      g-2     :     0.000004
      g+3     :    -0.000000
      g-3     :    -0.000000
      g+4     :    -0.000000
      g-4     :    -0.000000
  1 H s       :    -0.158371  s :    -0.158371
      pz      :    -0.001214  p :    -0.002874
      px      :    -0.000830
      py      :    -0.000830
      dz2     :     0.000350  d :     0.000280
      dxz     :    -0.000030
      dyz     :    -0.000030
      dx2y2   :    -0.000010
      dxy     :     0.000000


                     *******************************
                     * LOEWDIN POPULATION ANALYSIS *
                     *******************************

-------------------------------------------
LOEWDIN ATOMIC CHARGES AND SPIN POPULATIONS
-------------------------------------------
   0 Co:    0.245967    2.045450
   1 H :   -0.245967   -0.045450

----------------------------------------------------
LOEWDIN REDUCED ORBITAL CHARGES AND SPIN POPULATIONS
----------------------------------------------------
CHARGE
  0 Cos       :     6.630834  s :     6.630834
      pz      :     4.138233  p :    12.140772
      px      :     4.001269
      py      :     4.001269
      dz2     :     1.037034  d :     7.980349
      dxz     :     1.971929
      dyz     :     1.971929
      dx2y2   :     1.999618
      dxy     :     0.999840
      f0      :     0.001372  f :     0.002037
      f+1     :     0.000209
      f-1     :     0.000209
      f+2     :     0.000054
      f-2     :     0.000026
      f+3     :     0.000084
      f-3     :     0.000084
      g0      :     0.000017  g :     0.000041
      g+1     :     0.000001
      g-1     :     0.000001
      g+2     :     0.000002
      g-2     :     0.000004
      g+3     :     0.000002
      g-3     :     0.000002
      g+4     :     0.000011
      g-4     :     0.000000
  1 H s       :     1.106978  s :     1.106978
      pz      :     0.078030  p :     0.121492
      px      :     0.021731
      py      :     0.021731
      dz2     :     0.007491  d :     0.017497
      dxz     :     0.004775
      dyz     :     0.004775
      dx2y2   :     0.000327
      dxy     :     0.000130

SPIN
  0 Cos       :     0.231564  s :     0.231564
      pz      :    -0.040708  p :    -0.041529
      px      :    -0.000410
      py      :    -0.000410
      dz2     :     0.850122  d :     1.856001
      dxz     :     0.003006
      dyz     :     0.003006
      dx2y2   :     0.000026
      dxy     :     0.999840
      f0      :    -0.000385  f :    -0.000583
      f+1     :    -0.000044
      f-1     :    -0.000044
      f+2     :    -0.000001
      f-2     :     0.000026
      f+3     :    -0.000068
      f-3     :    -0.000068
      g0      :    -0.000005  g :    -0.000002
      g+1     :    -0.000000
      g-1     :    -0.000000
      g+2     :    -0.000000
      g-2     :     0.000004
      g+3     :    -0.000000
      g-3     :    -0.000000
      g+4     :    -0.000000
      g-4     :    -0.000000
  1 H s       :    -0.065263  s :    -0.065263
      pz      :     0.022136  p :     0.017469
      px      :    -0.002333
      py      :    -0.002333
      dz2     :     0.002540  d :     0.002344
      dxz     :    -0.000151
      dyz     :    -0.000151
      dx2y2   :    -0.000025
      dxy     :     0.000130


                      *****************************
                      * MAYER POPULATION ANALYSIS *
                      *****************************

  NA   - Mulliken gross atomic population
  ZA   - Total nuclear charge
  QA   - Mulliken gross atomic charge
  VA   - Mayer's total valence
  BVA  - Mayer's bonded valence
  FA   - Mayer's free valence

  ATOM       NA         ZA         QA         VA         BVA        FA
  0 Co    26.8535    27.0000     0.1465     2.9728     0.9465     2.0263
  1 H      1.1465     1.0000    -0.1465     0.9741     0.9465     0.0276

  Mayer bond orders larger than 0.100000
B(  0-Co,  1-H ) :   0.9465 

-------
TIMINGS
-------

Total SCF time: 0 days 0 hours 0 min 2 sec 

Total time                  ....       2.261 sec
Sum of individual times     ....       2.161 sec  ( 95.6%)

Fock matrix formation       ....       1.904 sec  ( 84.2%)
  XC integration            ....       0.289 sec  ( 15.2% of F)
    Basis function eval.    ....       0.017 sec  (  6.0% of XC)
    Density eval.           ....       0.016 sec  (  5.4% of XC)
    XC-Functional eval.     ....       0.008 sec  (  2.9% of XC)
    XC-Potential eval.      ....       0.031 sec  ( 10.7% of XC)
Diagonalization             ....       0.030 sec  (  1.3%)
Density matrix formation    ....       0.007 sec  (  0.3%)
Population analysis         ....       0.004 sec  (  0.2%)
Initial guess               ....       0.082 sec  (  3.6%)
Orbital Transformation      ....       0.000 sec  (  0.0%)
Orbital Orthonormalization  ....       0.000 sec  (  0.0%)
DIIS solution               ....       0.014 sec  (  0.6%)
Grid generation             ....       0.120 sec  (  5.3%)


           ************************************************************
           *        Program running with 24 parallel MPI-processes    *
           *              working on a common directory               *
           ************************************************************

------------------------------------------------------------------------------
                                ORCA  MP2 
------------------------------------------------------------------------------

Freezing NCore=10 chemical core electrons

-------------
RI-MP2 ENERGY
-------------
Dimension of the basis                    ...   84
Memory devoted to MP2                     ... 5000 MB   
Data format for buffers                   ... DOUBLE
Compression type for matrix containers    ... UNCOMPRESSED
Overall scaling of the MP2 energy         ...   2.700e-01
Calculating two index integrals           ... done (    0.004 sec)
Cholesky decomposition of V**-1           ... done (    0.009 sec)

-----------------
RI-TRANSFORMATION (AUX index driven)
-----------------

Dimension of the orbital-basis         ... 84
Dimension of the aux-basis             ... 264
Transformation of internal/external MOs...    5-  14 to   15-  83
Number Format for Storage              ... Double (8 Byte)
Integral mode                          ... Direct

First Phase: integral generation and transformation of MO indices
  Aux angular momentum 0               ... done (    0.000 sec)
  Aux angular momentum 1               ... done (    0.000 sec)
  Aux angular momentum 2               ... done (    0.001 sec)
  Aux angular momentum 3               ... done (    0.001 sec)
  Aux angular momentum 4               ... done (    0.001 sec)
  Aux angular momentum 5               ... done (    0.002 sec)
  Aux angular momentum 6               ... done (    0.003 sec)
Closing buffer VIA ( 0.00 GB; CompressionRatio= 1.00)
  Phase 1 completed in     0.087 sec
Second Phase: sorting and transformation of aux index

IA-Transformation
Memory available                       ... 4999 MB 
Max. # MO pairs treated in a batch     ... 1    
# of internal orbitals                 ... 10
# batches for internal orbitals        ... 1
Closing buffer IAV ( 0.00 GB; CompressionRatio= 1.00)
(ia|v) transformation done in     0.002 sec

  Phase 2 completed in     0.005 sec
RI-Integral transformation completed in     0.093 sec

-----------------
RI-TRANSFORMATION (AUX index driven)
-----------------

Dimension of the orbital-basis         ... 84
Dimension of the aux-basis             ... 264
Transformation of internal/external MOs...    5-  12 to   13-  83
Number Format for Storage              ... Double (8 Byte)
Integral mode                          ... Direct

First Phase: integral generation and transformation of MO indices
  Aux angular momentum 0               ... done (    0.000 sec)
  Aux angular momentum 1               ... done (    0.000 sec)
  Aux angular momentum 2               ... done (    0.001 sec)
  Aux angular momentum 3               ... done (    0.001 sec)
  Aux angular momentum 4               ... done (    0.001 sec)
  Aux angular momentum 5               ... done (    0.002 sec)
  Aux angular momentum 6               ... done (    0.003 sec)
Closing buffer VIA ( 0.00 GB; CompressionRatio= 1.00)
  Phase 1 completed in     0.078 sec
Second Phase: sorting and transformation of aux index

IA-Transformation
Memory available                       ... 4999 MB 
Max. # MO pairs treated in a batch     ... 1    
# of internal orbitals                 ... 8
# batches for internal orbitals        ... 1
Closing buffer IAV ( 0.00 GB; CompressionRatio= 1.00)
(ia|v) transformation done in     0.002 sec

  Phase 2 completed in     0.005 sec
RI-Integral transformation completed in     0.084 sec
Opening buffers                              ... done

Starting loop over batches of integrals:

Operator 0  - window                       ... (  5- 14)x( 15- 83)
Operator 0  - Memory available             ...  5000 MB
Operator 0  - Memory needed per MO         ...   0.1 MB
Operator 0  - Number of orbitals per batch ... 1
Operator 0  - Number of batches            ... 1

OPERATOR  0   PASS   0:  MOs     5 ...    5 +    6 ...    6 +    7 ...    7 +    8 ...    8
                            +    9 ...    9 +   10 ...   10 +   11 ...   11 +   12 ...   12
                            +   13 ...   13 +   14 ...   14
  Reading integrals       ... ok

Operator 1  - window                       ... (  5- 12)x( 13- 83)
Operator 1  - Memory available             ...  5000 MB
Operator 1  - Memory needed per MO         ...   0.1 MB
Operator 1  - Number of orbitals per batch ... 1
Operator 1  - Number of batches            ... 1

OPERATOR  1   PASS   0:  MOs     5 ...    5 +    6 ...    6 +    7 ...    7 +    8 ...    8
                            +    9 ...    9 +   10 ...   10 +   11 ...   11 +   12 ...   12
  Reading integrals       ... ok
Time spent in pair loops =     0.003 sec
Deleting buffer (Ka|jb)[aa] ...done
Deleting buffer (Ka|jb)[ab] ...done
Deleting buffer (Ka|jb)[ba] ...done
Deleting buffer (Ka|jb)[bb] ...done

Correlation energy components}
 E2 and T2 for alpha/alpha pairs :     -0.048078848 Eh      0.000000000
 E2 and T2 for beta/beta   pairs :     -0.026339903 Eh      0.000000000
 E2 and T2 for alpha/beta  pairs :     -0.151465890 Eh      0.000000000


-----------------------------------------------
 RI-MP2 CORRELATION ENERGY:     -0.225884641 Eh
-----------------------------------------------


-------
TIMINGS
-------

Total time                :    0.227 sec
Integral trafo            :    0.209 sec ( 92.3%)
I/O of integrals          :    0.000 sec (  0.1%)
K(i,j) Operators          :    0.001 sec (  0.4%)
T(i,j) pair energies      :    0.000 sec (  0.1%)
V-calculation             :    0.004 sec (  1.6%)
V**(-1/2)                 :    0.009 sec (  3.8%)
Gamma(ia|P)               :    0.000 sec (  0.0%)
Gamma-Trafo               :    0.000 sec (  0.0%)
D(virtual)                :    0.000 sec (  0.0%)
D(internal)               :    0.000 sec (  0.0%)
W(virtual)                :    0.000 sec (  0.0%)
W(internal)               :    0.000 sec (  0.0%)
L(virtual)                :    0.000 sec (  0.0%)
L(internal)               :    0.000 sec (  0.0%)
G(D)                      :    0.000 sec (  0.0%)
G(Z)                      :    0.000 sec (  0.0%)
Z-Vector Solution         :    0.000 sec (  0.0%)
Z-Vector Solution         :    0.000 sec (  0.0%)
3-Index Derivative 
+ Separable RIJ part      :    0.000 sec (  0.0%)
2-Index Derivative 
+ Separable RIJ part      :    0.000 sec (  0.0%)
Separable Gradient (X)    :    0.000 sec (  0.0%)


---------------------------------------
MP2 TOTAL ENERGY:    -1383.139232413 Eh
---------------------------------------


-------------------------------------------------------------------------------
                          DFT DISPERSION CORRECTION                            
                                                                               
                              DFTD3 V3.1  Rev 1                                
                          USING Becke-Johnson damping                          
-------------------------------------------------------------------------------
The B2PLYP functional is recognized
Active option DFTDOPT                   ...         4   

molecular C6(AA) [au] = 313.287291 


            DFT-D V3
 parameters
 s6 scaling factor         :     0.6400 
 a1 scaling factor         :     0.3065 
 s8 scaling factor         :     0.9147 
 a2 scaling factor         :     5.0570 
 ad hoc parameters k1-k3   :    16.0000     1.3333    -4.0000 

 Edisp/kcal,au: -0.218919797984  -0.000348870868 
 E6   /kcal   :  -0.108910635 
 E8   /kcal   :  -0.110009163 
 % E8         :  50.250897490 

-------------------------   ----------------
Dispersion correction           -0.000348871
-------------------------   ----------------


-------------------------   --------------------
FINAL SINGLE POINT ENERGY     -1383.139581284004
-------------------------   --------------------


                            ***************************************
                            *     ORCA property calculations      *
                            ***************************************


  WARNING: The energy has been calculated at the MP2 level but the densities
           used in the property calculations are still SCF densities
           MP2 response densities have not been calculated 
           use %mp2 Density relaxed end
           or  %mp2 Density unrelaxed end

                                    ---------------------
                                    Active property flags
                                    ---------------------
   (+) Dipole Moment


------------------------------------------------------------------------------
                       ORCA ELECTRIC PROPERTIES CALCULATION
------------------------------------------------------------------------------

Dipole Moment Calculation                       ... on
Quadrupole Moment Calculation                   ... off
Polarizability Calculation                      ... off
GBWName                                         ... TMD21_CoH.gbw
Electron density file                           ... TMD21_CoH.scfp
The origin for moment calculation is the CENTER OF MASS  = ( 0.000000,  0.000000  0.053923)

-------------
DIPOLE MOMENT
-------------
                                X             Y             Z
Electronic contribution:     -0.00000      -0.00000       2.86935
Nuclear contribution   :      0.00000       0.00000      -1.50982
                        -----------------------------------------
Total Dipole Moment    :     -0.00000      -0.00000       1.35953
                        -----------------------------------------
Magnitude (a.u.)       :      1.35953
Magnitude (Debye)      :      3.45566



--------------------
Rotational spectrum 
--------------------
 
Rotational constants in cm-1:     0.000000     7.460162     7.460162 
Rotational constants in MHz :     0.000000 223650.041735 223650.041735 

 Dipole components along the rotational axes: 
x,y,z [a.u.] :     1.359532    -0.000000    -0.000000 
x,y,z [Debye]:     3.455657    -0.000000    -0.000000 

 

Timings for individual modules:

Sum of individual times         ...        3.862 sec (=   0.064 min)
GTO integral calculation        ...        0.584 sec (=   0.010 min)  15.1 %
SCF iterations                  ...        2.595 sec (=   0.043 min)  67.2 %
MP2 module                      ...        0.683 sec (=   0.011 min)  17.7 %
                             ****ORCA TERMINATED NORMALLY****
TOTAL RUN TIME: 0 days 0 hours 0 minutes 4 seconds 350 msec
