
                                 *****************
                                 * O   R   C   A *
                                 *****************

           --- An Ab Initio, DFT and Semiempirical electronic structure package ---

                  #######################################################
                  #                        -***-                        #
                  #          Department of theory and spectroscopy      #
                  #               Directorship: Frank Neese             #
                  #        Max Planck Institute fuer Kohlenforschung    #
                  #                Kaiser Wilhelm Platz 1               #
                  #                 D-45470 Muelheim/Ruhr               #
                  #                      Germany                        #
                  #                                                     #
                  #                  All rights reserved                #
                  #                        -***-                        #
                  #######################################################


                         Program Version 4.2.0 -  RELEASE  -


 With contributions from (in alphabetic order):
   Daniel Aravena         : Magnetic Suceptibility
   Michael Atanasov       : Ab Initio Ligand Field Theory (pilot matlab implementation)
   Alexander A. Auer      : GIAO ZORA, VPT2
   Ute Becker             : Parallelization
   Giovanni Bistoni       : ED, misc. LED, open-shell LED, HFLED
   Martin Brehm           : Molecular dynamics
   Dmytro Bykov           : SCF Hessian
   Vijay G. Chilkuri      : MRCI spin determinant printing, contributions to CSF-ICE
   Dipayan Datta          : RHF DLPNO-CCSD density
   Achintya Kumar Dutta   : EOM-CC, STEOM-CC
   Dmitry Ganyushin       : Spin-Orbit,Spin-Spin,Magnetic field MRCI
   Miquel Garcia          : C-PCM Hessian, Gaussian charge scheme
   Yang Guo               : DLPNO-NEVPT2, CIM, IAO-localization
   Andreas Hansen         : Spin unrestricted coupled pair/coupled cluster methods
   Benjamin Helmich-Paris : CASSCF linear response (MC-RPA)
   Lee Huntington         : MR-EOM, pCC
   Robert Izsak           : Overlap fitted RIJCOSX, COSX-SCS-MP3, EOM
   Christian Kollmar      : KDIIS, OOCD, Brueckner-CCSD(T), CCSD density
   Simone Kossmann        : Meta GGA functionals, TD-DFT gradient, OOMP2, MP2 Hessian
   Martin Krupicka        : AUTO-CI
   Lucas Lang             : DCDCAS
   Dagmar Lenk            : GEPOL surface, SMD
   Dimitrios Liakos       : Extrapolation schemes; Compound Job, initial MDCI parallelization
   Dimitrios Manganas     : Further ROCIS development; embedding schemes
   Dimitrios Pantazis     : SARC Basis sets
   Taras Petrenko         : DFT Hessian,TD-DFT gradient, ASA, ECA, R-Raman, ABS, FL, XAS/XES, NRVS
   Peter Pinski           : DLPNO-MP2, DLPNO-MP2 Gradient
   Christoph Reimann      : Effective Core Potentials
   Marius Retegan         : Local ZFS, SOC
   Christoph Riplinger    : Optimizer, TS searches, QM/MM, DLPNO-CCSD(T), (RO)-DLPNO pert. Triples
   Tobias Risthaus        : Range-separated hybrids, TD-DFT gradient, RPA, STAB
   Michael Roemelt        : Original ROCIS implementation
   Masaaki Saitow         : Open-shell DLPNO-CCSD energy and density
   Barbara Sandhoefer     : DKH picture change effects
   Avijit Sen             : IP-ROCIS
   Kantharuban Sivalingam : CASSCF convergence, NEVPT2, FIC-MRCI
   Bernardo de Souza      : ESD, SOC TD-DFT
   Georgi Stoychev        : AutoAux, RI-MP2 NMR
   Willem Van den Heuvel  : Paramagnetic NMR
   Boris Wezisla          : Elementary symmetry handling
   Frank Wennmohs         : Technical directorship


 We gratefully acknowledge several colleagues who have allowed us to
 interface, adapt or use parts of their codes:
   Stefan Grimme, W. Hujo, H. Kruse,             : VdW corrections, initial TS optimization,
                  C. Bannwarth                     DFT functionals, gCP, sTDA/sTD-DF
   Ed Valeev, F. Pavosevic, A. Kumar             : LibInt (2-el integral package), F12 methods
   Garnet Chan, S. Sharma, J. Yang, R. Olivares  : DMRG
   Ulf Ekstrom                                   : XCFun DFT Library
   Mihaly Kallay                                 : mrcc  (arbitrary order and MRCC methods)
   Andreas Klamt, Michael Diedenhofen            : otool_cosmo (COSMO solvation model)
   Jiri Pittner, Ondrej Demel                    : Mk-CCSD
   Frank Weinhold                                : gennbo (NPA and NBO analysis)
   Christopher J. Cramer and Donald G. Truhlar   : smd solvation model
   Lars Goerigk                                  : TD-DFT with DH, B97 family of functionals
   V. Asgeirsson, H. Jonsson                     : NEB implementation
   FAccTs GmbH                                   : IRC, NEB, NEB-TS, Multilevel, MM, QM/MM, CI optimization
   S Lehtola, MJT Oliveira, MAL Marques          : LibXC Library


 Your calculation uses the libint2 library for the computation of 2-el integrals
 For citations please refer to: http://libint.valeyev.net

 Your ORCA version has been built with support for libXC version: 4.2.3
 For citations please refer to: https://tddft.org/programs/libxc/

 This ORCA versions uses:
   CBLAS   interface :  Fast vector & matrix operations
   LAPACKE interface :  Fast linear algebra routines
   SCALAPACK package :  Parallel linear algebra routines


Your calculation utilizes the atom-pairwise dispersion correction
with the Becke-Johnson damping scheme (D3BJ)
Cite in your paper:
S.Grimme, S.Ehrlich, L.Goerigk, J Comput Chem, (2011), 32, 1456–1465 
S.Grimme, J.Antony, S.Ehrlich and H.Krieg, J.Chem.Phys., 132, (2010), 154104 
   

----- Orbital basis set information -----
Your calculation utilizes the basis: def2-TZVPPD
   F. Weigend and R. Ahlrichs, Phys. Chem. Chem. Phys. 7, 3297 (2005).
   D. Rappoport and F. Furche, J. Chem. Phys. 133 134105 (2010).

----- AuxC basis set information -----
Your calculation utilizes the auxiliary basis: def2-TZVPPD/C
   A. Hellweg, C. Hattig, S. Hofener and W. Klopper, Theor. Chem. Acc. 117, 587 (2007).

----- AuxJK basis set information -----
Your calculation utilizes the auxiliary basis: def2/JK
   H-Ba, Hf-Rn: F. Weigend, J. Comput. Chem. 29, 167 (2008).

================================================================================
                                        WARNINGS
                       Please study these warnings very carefully!
================================================================================


WARNING: No MP2 level density has been requested!
         To caclulate MP2 level properties use
         %mp2 Density relaxed end
         or
         %mp2 Density unrelaxed end
         Otherwise for double-hybrid DFT only the energy is correct!

WARNING: The frozen-core approximation is turned on by default for 
         the MP2 part of double-hybrid DFT.

INFO   : the flag for use of LIBINT has been found!

================================================================================
                                       INPUT FILE
================================================================================
NAME = TMD23_CuBr.in
|  1> #
|  2> # TMD23_CuBr ri-B2PLYP-D3BJ/Def2-TZVPPD
|  3> #
|  4> ! rijk ri-b2plyp d3bj def2-tzvppd def2/jk def2-tzvppd/c grid4 nofinalgrid
|  5> 
|  6> *xyz 0 1
|  7> Cu       0.000000    0.000000   -1.208594 
|  8> Br       0.000000    0.000000    1.001406 
|  9> *
| 10> 
| 11> %maxcore 5000
| 12> 
| 13> %pal
| 14> nprocs = 24
| 15> end
| 16> 
| 17> 
| 18>                          ****END OF INPUT****
================================================================================

                       ****************************
                       * Single Point Calculation *
                       ****************************

---------------------------------
CARTESIAN COORDINATES (ANGSTROEM)
---------------------------------
  Cu     0.000000    0.000000   -1.208594
  Br     0.000000    0.000000    1.001406

----------------------------
CARTESIAN COORDINATES (A.U.)
----------------------------
  NO LB      ZA    FRAG     MASS         X           Y           Z
   0 Cu   29.0000    0    63.550    0.000000    0.000000   -2.283912
   1 Br   35.0000    0    79.900    0.000000    0.000000    1.892383

--------------------------------
INTERNAL COORDINATES (ANGSTROEM)
--------------------------------
 Cu     0   0   0     0.000000000000     0.00000000     0.00000000
 Br     1   0   0     2.210000000000     0.00000000     0.00000000

---------------------------
INTERNAL COORDINATES (A.U.)
---------------------------
 Cu     0   0   0     0.000000000000     0.00000000     0.00000000
 Br     1   0   0     4.176294755966     0.00000000     0.00000000

---------------------
BASIS SET INFORMATION
---------------------
There are 2 groups of distinct atoms

 Group   1 Type Cu  : 17s13p7d2f1g contracted to 6s6p4d2f1g pattern {842111/631111/4111/11/1}
 Group   2 Type Br  : 18s14p9d1f contracted to 7s6p5d1f pattern {8421111/641111/51111/1}

Atom   0Cu   basis set group =>   1
Atom   1Br   basis set group =>   2
---------------------------------
AUXILIARY/C BASIS SET INFORMATION
---------------------------------
There are 2 groups of distinct atoms

 Group   1 Type Cu  : 10s10p9d7f5g3h1i contracted to 10s10p9d7f5g3h1i pattern {1111111111/1111111111/111111111/1111111/11111/111/1}
 Group   2 Type Br  : 11s10p9d7f4g1h contracted to 11s10p9d6f4g1h pattern {11111111111/1111111111/111111111/211111/1111/1}

Atom   0Cu   basis set group =>   1
Atom   1Br   basis set group =>   2
----------------------------------
AUXILIARY/JK BASIS SET INFORMATION
----------------------------------
There are 2 groups of distinct atoms

 Group   1 Type Cu  : 19s14p12d10f7g3h1i contracted to 16s13p11d9f5g3h1i pattern {4111111111111111/2111111111111/21111111111/211111111/31111/111/1}
 Group   2 Type Br  : 20s14p13d10f7g3h contracted to 17s13p12d9f6g3h pattern {41111111111111111/2111111111111/211111111111/211111111/211111/111}

Atom   0Cu   basis set group =>   1
Atom   1Br   basis set group =>   2


           ************************************************************
           *        Program running with 24 parallel MPI-processes    *
           *              working on a common directory               *
           ************************************************************
------------------------------------------------------------------------------
                           ORCA GTO INTEGRAL CALCULATION
                           -- RI-GTO INTEGRALS CHOSEN --
------------------------------------------------------------------------------

                         BASIS SET STATISTICS AND STARTUP INFO

Gaussian basis set:
 # of primitive gaussian shells          ...   82
 # of primitive gaussian functions       ...  226
 # of contracted shells                  ...   38
 # of contracted basis functions         ...  124
 Highest angular momentum                ...    4
 Maximum contraction depth               ...    8
Auxiliary gaussian basis set:
 # of primitive gaussian shells          ...  133
 # of primitive gaussian functions       ...  593
 # of contracted shells                  ...  118
 # of contracted aux-basis functions     ...  530
 Highest angular momentum                ...    6
 Maximum contraction depth               ...    4
Ratio of auxiliary to basis functions    ...  4.27
Integral package used                  ... LIBINT
 One Electron integrals                  ... done
 Ordering auxiliary basis shells         ... done
 Integral threshhold             Thresh  ...  1.000e-10
 Primitive cut-off               TCut    ...  1.000e-11
 Pre-screening matrix                    ... done
 Shell pair data                         ... 
 Ordering of the shell pairs             ... done (   0.000 sec) 708 of 741 pairs
 Determination of significant pairs      ... done (   0.000 sec)
 Creation of shell pair data             ... done (   0.000 sec)
 Storage of shell pair data              ... done (   0.001 sec)
 Shell pair data done in (   0.002 sec)
 Computing two index integrals           ... done
 Cholesky decomposition of the V-matrix  ... done


Timings:
 Total evaluation time                   ...   0.255 sec (  0.004 min)
 One electron matrix time                ...   0.025 sec (  0.000 min) = 10.0%
 Schwartz matrix evaluation time         ...   0.150 sec (  0.003 min) = 59.0%
 Two index repulsion integral time       ...   0.041 sec (  0.001 min) = 16.2%
 Cholesky decomposition of V             ...   0.004 sec (  0.000 min) =  1.7%
 Three index repulsion integral time     ...   0.000 sec (  0.000 min) =  0.0%



           ************************************************************
           *        Program running with 24 parallel MPI-processes    *
           *              working on a common directory               *
           ************************************************************
-------------------------------------------------------------------------------
                                 ORCA SCF
-------------------------------------------------------------------------------

------------
SCF SETTINGS
------------
Hamiltonian:
 Density Functional     Method          .... DFT(GTOs)
 Exchange Functional    Exchange        .... B88
   X-Alpha parameter    XAlpha          ....  0.666667
   Becke's b parameter  XBeta           ....  0.004200
 Correlation Functional Correlation     .... LYP
 LDA part of GGA corr.  LDAOpt          .... VWN-3
 Gradients option       PostSCFGGA      .... off
 Hybrid DFT is turned on
   Fraction HF Exchange ScalHFX         ....  0.530000
   Scaling of DF-GGA-X  ScalDFX         ....  0.470000
   Scaling of DF-GGA-C  ScalDFC         ....  0.730000
   Scaling of DF-LDA-C  ScalLDAC        ....  0.730000
   Perturbative correction              ....  0.270000
   Density functional embedding theory  .... OFF
 RI-approximation to the Coulomb term is turned on
   Number of auxiliary basis functions  .... 530
   RI-JK (J+K treated both via RI)      .... on


General Settings:
 Integral files         IntName         .... TMD23_CuBr
 Hartree-Fock type      HFTyp           .... RHF
 Total Charge           Charge          ....    0
 Multiplicity           Mult            ....    1
 Number of Electrons    NEL             ....   64
 Basis Dimension        Dim             ....  124
 Nuclear Repulsion      ENuc            ....    243.0384010971 Eh

Convergence Acceleration:
 DIIS                   CNVDIIS         .... on
   Start iteration      DIISMaxIt       ....    12
   Startup error        DIISStart       ....  0.200000
   # of expansion vecs  DIISMaxEq       ....     5
   Bias factor          DIISBfac        ....   1.050
   Max. coefficient     DIISMaxC        ....  10.000
 Newton-Raphson         CNVNR           .... off
 SOSCF                  CNVSOSCF        .... off
 Level Shifting         CNVShift        .... on
   Level shift para.    LevelShift      ....    0.2500
   Turn off err/grad.   ShiftErr        ....    0.0010
 Zerner damping         CNVZerner       .... off
 Static damping         CNVDamp         .... on
   Fraction old density DampFac         ....    0.7000
   Max. Damping (<1)    DampMax         ....    0.9800
   Min. Damping (>=0)   DampMin         ....    0.0000
   Turn off err/grad.   DampErr         ....    0.1000
 Fernandez-Rico         CNVRico         .... off

SCF Procedure:
 Maximum # iterations   MaxIter         ....   125
 SCF integral mode      SCFMode         .... Direct
   Integral package                     .... LIBINT
 Reset frequency        DirectResetFreq ....    20
 Integral Threshold     Thresh          ....  1.000e-10 Eh
 Primitive CutOff       TCut            ....  1.000e-11 Eh

Convergence Tolerance:
 Convergence Check Mode ConvCheckMode   .... Total+1el-Energy
 Convergence forced     ConvForced      .... 0
 Energy Change          TolE            ....  1.000e-06 Eh
 1-El. energy change                    ....  1.000e-03 Eh
 DIIS Error             TolErr          ....  1.000e-06


Diagonalization of the overlap matrix:
Smallest eigenvalue                        ... 1.770e-03
Time for diagonalization                   ...    0.003 sec
Threshold for overlap eigenvalues          ... 1.000e-08
Number of eigenvalues below threshold      ... 0
Time for construction of square roots      ...    0.002 sec
Total time needed                          ...    0.005 sec

-------------------
DFT GRID GENERATION
-------------------

General Integration Accuracy     IntAcc      ...  4.670
Radial Grid Type                 RadialGrid  ... Gauss-Chebyshev
Angular Grid (max. acc.)         AngularGrid ... Lebedev-302
Angular grid pruning method      GridPruning ... 3 (G Style)
Weight generation scheme         WeightScheme... Becke
Basis function cutoff            BFCut       ...    1.0000e-10
Integration weight cutoff        WCut        ...    1.0000e-14
Grids for H and He will be reduced by one unit

# of grid points (after initial pruning)     ...  19172 (   0.0 sec)
# of grid points (after weights+screening)   ...  19146 (   0.0 sec)
nearest neighbour list constructed           ...    0.0 sec
Grid point re-assignment to atoms done       ...    0.0 sec
Grid point division into batches done        ...    0.2 sec
Reduced shell lists constructed in    0.2 sec

Total number of grid points                  ...    19146
Total number of batches                      ...      300
Average number of points per batch           ...       63
Average number of grid points per atom       ...     9573
Average number of shells per batch           ...     8.57 (22.56%)
Average number of basis functions per batch  ...    24.71 (19.93%)
Average number of large shells per batch     ...     6.00 (70.00%)
Average number of large basis fcns per batch ...    17.43 (70.52%)
Average number of aux-shells per batch       ...     8.57 ( 7.26%)
Average number of aux functions per batch    ...    24.71 ( 4.66%)
Maximum spatial batch extension              ...  22.45, 22.17, 16.62 au
Average spatial batch extension              ...   0.78,  0.77,  0.63 au

Time for grid setup =    0.199 sec

------------------------------
INITIAL GUESS: MODEL POTENTIAL
------------------------------
Loading Hartree-Fock densities                     ... done
Calculating cut-offs                               ... done
Setting up the integral package                    ... done
Initializing the effective Hamiltonian             ... done
Starting the Coulomb interaction                   ... done (   0.0 sec)
Reading the grid                                   ... done
Mapping shells                                     ... done
Starting the XC term evaluation                    ... done (   0.0 sec)
  promolecular density results
     # of electrons  =     64.000004237
     EX              =   -155.497309242
     EC              =     -1.166639122
     EX+EC           =   -156.663948365
Transforming the Hamiltonian                       ... done (   0.0 sec)
Diagonalizing the Hamiltonian                      ... done (   0.0 sec)
Back transforming the eigenvectors                 ... done (   0.0 sec)
Now organizing SCF variables                       ... done
                      ------------------
                      INITIAL GUESS DONE (   0.3 sec)
                      ------------------
--------------
SCF ITERATIONS
--------------
ITER       Energy         Delta-E        Max-DP      RMS-DP      [F,P]     Damp
  0  -4213.7800427889   0.000000000000 0.03877456  0.00109389  0.1212101 0.7000
  1  -4213.7307473018   0.049295487169 0.03769867  0.00095220  0.0784342 0.7000
                               ***Turning on DIIS***
  2  -4213.7651560000  -0.034408698245 0.08378399  0.00211525  0.0462269 0.0000
  3  -4213.8099444202  -0.044788420210 0.03139482  0.00061473  0.0269732 0.0000
  4  -4213.8125153170  -0.002570896742 0.01586871  0.00024897  0.0118036 0.0000
  5  -4213.8127886065  -0.000273289533 0.00709605  0.00010586  0.0089059 0.0000
  6  -4213.8128926453  -0.000104038829 0.00498484  0.00006725  0.0020253 0.0000
  7  -4213.8129162407  -0.000023595368 0.00363082  0.00005233  0.0012063 0.0000
  8  -4213.8129281835  -0.000011942832 0.00439698  0.00007003  0.0007852 0.0000
  9  -4213.8129371272  -0.000008943648 0.00104811  0.00001637  0.0002109 0.0000
 10  -4213.8129376685  -0.000000541343 0.00032339  0.00000416  0.0000602 0.0000
 11  -4213.8129377040  -0.000000035465 0.00007537  0.00000102  0.0000256 0.0000
 12  -4213.8129377064  -0.000000002402 0.00004355  0.00000062  0.0000325 0.0000
                 **** Energy Check signals convergence ****

               *****************************************************
               *                     SUCCESS                       *
               *           SCF CONVERGED AFTER  13 CYCLES          *
               *****************************************************


----------------
TOTAL SCF ENERGY
----------------

Total Energy       :        -4213.81293771 Eh         -114663.67942 eV

Components:
Nuclear Repulsion  :          243.03840110 Eh            6613.41111 eV
Electronic Energy  :        -4456.85133880 Eh         -121277.09054 eV
One Electron Energy:        -6357.56374778 Eh         -172998.10463 eV
Two Electron Energy:         1900.71240898 Eh           51721.01409 eV

Virial components:
Potential Energy   :        -8423.50466883 Eh         -229215.21512 eV
Kinetic Energy     :         4209.69173112 Eh          114551.53569 eV
Virial Ratio       :            2.00097898


DFT components:
N(Alpha)           :       32.000002877737 electrons
N(Beta)            :       32.000002877737 electrons
N(Total)           :       64.000005755475 electrons
E(X)               :      -73.175917426154 Eh       
E(C)               :       -2.254339308643 Eh       
E(XC)              :      -75.430256734797 Eh       
DFET-embed. en.    :        0.000000000000 Eh       

---------------
SCF CONVERGENCE
---------------

  Last Energy change         ...   -1.2069e-09  Tolerance :   1.0000e-06
  Last MAX-Density change    ...    1.3540e-05  Tolerance :   1.0000e-05
  Last RMS-Density change    ...    2.1812e-07  Tolerance :   1.0000e-06
  Last DIIS Error            ...    8.0224e-06  Tolerance :   1.0000e-06

             **** THE GBW FILE WAS UPDATED (TMD23_CuBr.gbw) ****
             **** DENSITY FILE WAS UPDATED (TMD23_CuBr.scfp) ****
             **** ENERGY FILE WAS UPDATED (TMD23_CuBr.en.tmp) ****
             **** THE GBW FILE WAS UPDATED (TMD23_CuBr.gbw) ****
             **** DENSITY FILE WAS UPDATED (TMD23_CuBr.scfp) ****
----------------
ORBITAL ENERGIES
----------------

  NO   OCC          E(Eh)            E(eV) 
   0   2.0000    -485.803232    -13219.3780 
   1   2.0000    -325.469942     -8856.4874 
   2   2.0000     -63.555046     -1729.4207 
   3   2.0000     -57.177907     -1555.8900 
   4   2.0000     -57.176809     -1555.8601 
   5   2.0000     -57.176809     -1555.8601 
   6   2.0000     -39.678446     -1079.7054 
   7   2.0000     -34.714573      -944.6316 
   8   2.0000     -34.714573      -944.6316 
   9   2.0000     -34.713411      -944.5999 
  10   2.0000      -9.115830      -248.0543 
  11   2.0000      -6.851711      -186.4445 
  12   2.0000      -6.847449      -186.3286 
  13   2.0000      -6.847449      -186.3286 
  14   2.0000      -4.630535      -126.0033 
  15   2.0000      -3.051871       -83.0456 
  16   2.0000      -3.047962       -82.9393 
  17   2.0000      -3.047962       -82.9393 
  18   2.0000      -2.811925       -76.5164 
  19   2.0000      -2.810399       -76.4748 
  20   2.0000      -2.810399       -76.4748 
  21   2.0000      -2.806488       -76.3684 
  22   2.0000      -2.806469       -76.3679 
  23   2.0000      -0.812850       -22.1188 
  24   2.0000      -0.422926       -11.5084 
  25   2.0000      -0.416158       -11.3242 
  26   2.0000      -0.416158       -11.3242 
  27   2.0000      -0.404890       -11.0176 
  28   2.0000      -0.404888       -11.0176 
  29   2.0000      -0.330122        -8.9831 
  30   2.0000      -0.303513        -8.2590 
  31   2.0000      -0.303513        -8.2590 
  32   0.0000      -0.073779        -2.0076 
  33   0.0000       0.020145         0.5482 
  34   0.0000       0.020145         0.5482 
  35   0.0000       0.040152         1.0926 
  36   0.0000       0.079001         2.1497 
  37   0.0000       0.079342         2.1590 
  38   0.0000       0.079342         2.1590 
  39   0.0000       0.107268         2.9189 
  40   0.0000       0.154447         4.2027 
  41   0.0000       0.154447         4.2027 
  42   0.0000       0.171258         4.6602 
  43   0.0000       0.171258         4.6602 
  44   0.0000       0.185617         5.0509 
  45   0.0000       0.211564         5.7569 
  46   0.0000       0.230364         6.2685 
  47   0.0000       0.230364         6.2685 
  48   0.0000       0.250408         6.8140 
  49   0.0000       0.250408         6.8140 
  50   0.0000       0.297989         8.1087 
  51   0.0000       0.316737         8.6189 
  52   0.0000       0.316737         8.6189 
  53   0.0000       0.377958        10.2847 
  54   0.0000       0.473560        12.8862 
  55   0.0000       0.473560        12.8862 
  56   0.0000       0.509870        13.8743 
  57   0.0000       0.552563        15.0360 
  58   0.0000       0.552563        15.0360 
  59   0.0000       0.557152        15.1609 
  60   0.0000       0.557152        15.1609 
  61   0.0000       0.653572        17.7846 
  62   0.0000       0.753322        20.4989 
  63   0.0000       0.753322        20.4989 
  64   0.0000       0.795973        21.6595 
  65   0.0000       0.956103        26.0169 
  66   0.0000       0.956106        26.0170 
  67   0.0000       1.024194        27.8697 
  68   0.0000       1.024194        27.8697 
  69   0.0000       1.037757        28.2388 
  70   0.0000       1.217616        33.1330 
  71   0.0000       1.648055        44.8458 
  72   0.0000       1.648060        44.8460 
  73   0.0000       1.654399        45.0185 
  74   0.0000       1.654399        45.0185 
  75   0.0000       1.689521        45.9742 
  76   0.0000       1.689521        45.9742 
  77   0.0000       1.690493        46.0006 
  78   0.0000       1.690493        46.0006 
  79   0.0000       1.700448        46.2715 
  80   0.0000       1.812934        49.3324 
  81   0.0000       1.812934        49.3324 
  82   0.0000       1.865908        50.7739 
  83   0.0000       1.865908        50.7739 
  84   0.0000       1.891433        51.4685 
  85   0.0000       2.190467        59.6056 
  86   0.0000       3.194420        86.9246 
  87   0.0000       3.194420        86.9246 
  88   0.0000       3.274329        89.0990 
  89   0.0000       3.411984        92.8448 
  90   0.0000       3.549518        96.5873 
  91   0.0000       3.549523        96.5874 
  92   0.0000       3.550268        96.6077 
  93   0.0000       3.550268        96.6077 
  94   0.0000       3.603111        98.0456 
  95   0.0000       3.603111        98.0456 
  96   0.0000       3.753613       102.1410 
  97   0.0000       3.858434       104.9933 
  98   0.0000       3.858454       104.9939 
  99   0.0000       3.926510       106.8458 
 100   0.0000       3.926510       106.8458 
 101   0.0000       4.107673       111.7755 
 102   0.0000       4.350215       118.3754 
 103   0.0000       4.350335       118.3786 
 104   0.0000       4.371796       118.9626 
 105   0.0000       4.371796       118.9626 
 106   0.0000       4.563426       124.1771 
 107   0.0000       7.793380       212.0687 
 108   0.0000      13.255931       360.7122 
 109   0.0000      13.255931       360.7122 
 110   0.0000      13.256427       360.7257 
 111   0.0000      13.256669       360.7323 
 112   0.0000      13.258396       360.7793 
 113   0.0000      13.258396       360.7793 
 114   0.0000      13.258814       360.7907 
 115   0.0000      13.260135       360.8266 
 116   0.0000      13.260228       360.8292 
 117   0.0000      13.464208       366.3797 
 118   0.0000      13.464208       366.3797 
 119   0.0000      13.465247       366.4080 
 120   0.0000      13.465341       366.4106 
 121   0.0000      13.483404       366.9021 
 122   0.0000      13.483404       366.9021 
 123   0.0000      13.576821       369.4441 

                    ********************************
                    * MULLIKEN POPULATION ANALYSIS *
                    ********************************

-----------------------
MULLIKEN ATOMIC CHARGES
-----------------------
   0 Cu:    0.288269
   1 Br:   -0.288269
Sum of atomic charges:   -0.0000000

--------------------------------
MULLIKEN REDUCED ORBITAL CHARGES
--------------------------------
  0 Cus       :     6.547373  s :     6.547373
      pz      :     4.116203  p :    12.213367
      px      :     4.048582
      py      :     4.048582
      dz2     :     1.954660  d :     9.950414
      dxz     :     1.998378
      dyz     :     1.998378
      dx2y2   :     1.999499
      dxy     :     1.999499
      f0      :     0.000264  f :     0.000575
      f+1     :     0.000134
      f-1     :     0.000134
      f+2     :     0.000022
      f-2     :     0.000022
      f+3     :     0.000000
      f-3     :     0.000000
      g0      :     0.000001  g :     0.000001
      g+1     :     0.000000
      g-1     :     0.000000
      g+2     :     0.000000
      g-2     :     0.000000
      g+3     :     0.000000
      g-3     :     0.000000
      g+4     :     0.000000
      g-4     :     0.000000
  1 Brs       :     7.913727  s :     7.913727
      pz      :     5.466764  p :    17.360834
      px      :     5.947035
      py      :     5.947035
      dz2     :     1.999378  d :    10.010468
      dxz     :     2.005142
      dyz     :     2.005142
      dx2y2   :     2.000403
      dxy     :     2.000403
      f0      :     0.001631  f :     0.003241
      f+1     :     0.000729
      f-1     :     0.000729
      f+2     :     0.000076
      f-2     :     0.000076
      f+3     :     0.000000
      f-3     :     0.000000


                     *******************************
                     * LOEWDIN POPULATION ANALYSIS *
                     *******************************

----------------------
LOEWDIN ATOMIC CHARGES
----------------------
   0 Cu:    0.034253
   1 Br:   -0.034253

-------------------------------
LOEWDIN REDUCED ORBITAL CHARGES
-------------------------------
  0 Cus       :     6.321101  s :     6.321101
      pz      :     4.236990  p :    12.425940
      px      :     4.094475
      py      :     4.094475
      dz2     :     2.083572  d :    10.217404
      dxz     :     2.068640
      dyz     :     2.068640
      dx2y2   :     1.998277
      dxy     :     1.998277
      f0      :     0.000706  f :     0.001299
      f+1     :     0.000273
      f-1     :     0.000273
      f+2     :     0.000023
      f-2     :     0.000023
      f+3     :     0.000000
      f-3     :     0.000000
      g0      :     0.000002  g :     0.000003
      g+1     :     0.000001
      g-1     :     0.000001
      g+2     :     0.000000
      g-2     :     0.000000
      g+3     :     0.000000
      g-3     :     0.000000
      g+4     :     0.000000
      g-4     :     0.000000
  1 Brs       :     7.658158  s :     7.658158
      pz      :     5.651451  p :    17.299136
      px      :     5.823843
      py      :     5.823843
      dz2     :     2.044869  d :    10.069837
      dxz     :     2.010941
      dyz     :     2.010941
      dx2y2   :     2.001544
      dxy     :     2.001544
      f0      :     0.003150  f :     0.007121
      f+1     :     0.001829
      f-1     :     0.001829
      f+2     :     0.000157
      f-2     :     0.000157
      f+3     :     0.000000
      f-3     :     0.000000


                      *****************************
                      * MAYER POPULATION ANALYSIS *
                      *****************************

  NA   - Mulliken gross atomic population
  ZA   - Total nuclear charge
  QA   - Mulliken gross atomic charge
  VA   - Mayer's total valence
  BVA  - Mayer's bonded valence
  FA   - Mayer's free valence

  ATOM       NA         ZA         QA         VA         BVA        FA
  0 Cu    28.7117    29.0000     0.2883     1.0756     1.0756    -0.0000
  1 Br    35.2883    35.0000    -0.2883     1.0756     1.0756    -0.0000

  Mayer bond orders larger than 0.100000
B(  0-Cu,  1-Br) :   1.0756 

-------
TIMINGS
-------

Total SCF time: 0 days 0 hours 0 min 2 sec 

Total time                  ....       2.855 sec
Sum of individual times     ....       2.745 sec  ( 96.1%)

Fock matrix formation       ....       2.410 sec  ( 84.4%)
  XC integration            ....       0.274 sec  ( 11.4% of F)
    Basis function eval.    ....       0.031 sec  ( 11.3% of XC)
    Density eval.           ....       0.017 sec  (  6.2% of XC)
    XC-Functional eval.     ....       0.009 sec  (  3.3% of XC)
    XC-Potential eval.      ....       0.027 sec  ( 10.0% of XC)
Diagonalization             ....       0.027 sec  (  0.9%)
Density matrix formation    ....       0.004 sec  (  0.2%)
Population analysis         ....       0.003 sec  (  0.1%)
Initial guess               ....       0.086 sec  (  3.0%)
Orbital Transformation      ....       0.000 sec  (  0.0%)
Orbital Orthonormalization  ....       0.000 sec  (  0.0%)
DIIS solution               ....       0.015 sec  (  0.5%)
Grid generation             ....       0.199 sec  (  7.0%)


           ************************************************************
           *        Program running with 24 parallel MPI-processes    *
           *              working on a common directory               *
           ************************************************************

------------------------------------------------------------------------------
                                ORCA  MP2 
------------------------------------------------------------------------------

Freezing NCore=28 chemical core electrons

-------------
RI-MP2 ENERGY
-------------
Dimension of the basis                    ...  124
Memory devoted to MP2                     ... 5000 MB   
Data format for buffers                   ... DOUBLE
Compression type for matrix containers    ... UNCOMPRESSED
Overall scaling of the MP2 energy         ...   2.700e-01
Calculating two index integrals           ... done (    0.005 sec)
Cholesky decomposition of V**-1           ... done (    0.012 sec)

-----------------
RI-TRANSFORMATION (AUX index driven)
-----------------

Dimension of the orbital-basis         ... 124
Dimension of the aux-basis             ... 400
Transformation of internal/external MOs...   14-  31 to   32- 123
Number Format for Storage              ... Double (8 Byte)
Integral mode                          ... Direct

First Phase: integral generation and transformation of MO indices
  Aux angular momentum 0               ... done (    0.001 sec)
  Aux angular momentum 1               ... done (    0.001 sec)
  Aux angular momentum 2               ... done (    0.001 sec)
  Aux angular momentum 3               ... done (    0.002 sec)
  Aux angular momentum 4               ... done (    0.003 sec)
  Aux angular momentum 5               ... done (    0.004 sec)
  Aux angular momentum 6               ... done (    0.006 sec)
Closing buffer VIA ( 0.00 GB; CompressionRatio= 1.00)
  Phase 1 completed in     0.099 sec
Second Phase: sorting and transformation of aux index

IA-Transformation
Memory available                       ... 4998 MB 
Max. # MO pairs treated in a batch     ... 1    
# of internal orbitals                 ... 18
# batches for internal orbitals        ... 1
Closing buffer IAV ( 0.00 GB; CompressionRatio= 1.00)
(ia|v) transformation done in     0.004 sec

  Phase 2 completed in     0.010 sec
RI-Integral transformation completed in     0.110 sec
Opening buffers                              ... done

Starting loop over batches of integrals:

Operator 0  - window                       ... ( 14- 31)x( 32-123)
Operator 0  - Memory available             ...  5000 MB
Operator 0  - Memory needed per MO         ...   0.3 MB
Operator 0  - Number of orbitals per batch ... 1
Operator 0  - Number of batches            ... 1

OPERATOR  0   PASS   0:  MOs    14 ...   14 +   15 ...   15 +   16 ...   16 +   17 ...   17
                            +   18 ...   18 +   19 ...   19 +   20 ...   20 +   21 ...   21
                            +   22 ...   22 +   23 ...   23 +   24 ...   24 +   25 ...   25
                            +   26 ...   26 +   27 ...   27 +   28 ...   28 +   29 ...   29
                            +   30 ...   30 +   31 ...   31
  Reading integrals       ... ok
Time spent in pair loops =     0.001 sec
Deleting buffer (Ka|jb)[aa] ...done

-----------------------------------------------
 RI-MP2 CORRELATION ENERGY:     -0.355624552 Eh
-----------------------------------------------


-------
TIMINGS
-------

Total time                :    0.149 sec
Integral trafo            :    0.126 sec ( 84.1%)
I/O of integrals          :    0.000 sec (  0.1%)
K(i,j) Operators          :    0.000 sec (  0.1%)
T(i,j) pair energies      :    0.000 sec (  0.0%)
V-calculation             :    0.005 sec (  3.5%)
V**(-1/2)                 :    0.012 sec (  8.3%)
Gamma(ia|P)               :    0.000 sec (  0.0%)
Gamma-Trafo               :    0.000 sec (  0.0%)
D(virtual)                :    0.000 sec (  0.0%)
D(internal)               :    0.000 sec (  0.0%)
W(virtual)                :    0.000 sec (  0.0%)
W(internal)               :    0.000 sec (  0.0%)
L(virtual)                :    0.000 sec (  0.0%)
L(internal)               :    0.000 sec (  0.0%)
G(D)                      :    0.000 sec (  0.0%)
G(Z)                      :    0.000 sec (  0.0%)
Z-Vector Solution         :    0.000 sec (  0.0%)
Z-Vector Solution         :    0.000 sec (  0.0%)
3-Index Derivative 
+ Separable RIJ part      :    0.000 sec (  0.0%)
2-Index Derivative 
+ Separable RIJ part      :    0.000 sec (  0.0%)
Separable Gradient (X)    :    0.000 sec (  0.0%)


---------------------------------------
MP2 TOTAL ENERGY:    -4214.168562259 Eh
---------------------------------------


-------------------------------------------------------------------------------
                          DFT DISPERSION CORRECTION                            
                                                                               
                              DFTD3 V3.1  Rev 1                                
                          USING Becke-Johnson damping                          
-------------------------------------------------------------------------------
The B2PLYP functional is recognized
Active option DFTDOPT                   ...         4   

molecular C6(AA) [au] = 682.071987 


            DFT-D V3
 parameters
 s6 scaling factor         :     0.6400 
 a1 scaling factor         :     0.3065 
 s8 scaling factor         :     0.9147 
 a2 scaling factor         :     5.0570 
 ad hoc parameters k1-k3   :    16.0000     1.3333    -4.0000 

 Edisp/kcal,au: -0.907211846805  -0.001445733949 
 E6   /kcal   :  -0.325562492 
 E8   /kcal   :  -0.581649355 
 % E8         :  64.113950562 

-------------------------   ----------------
Dispersion correction           -0.001445734
-------------------------   ----------------


-------------------------   --------------------
FINAL SINGLE POINT ENERGY     -4214.170007993143
-------------------------   --------------------


                            ***************************************
                            *     ORCA property calculations      *
                            ***************************************


  WARNING: The energy has been calculated at the MP2 level but the densities
           used in the property calculations are still SCF densities
           MP2 response densities have not been calculated 
           use %mp2 Density relaxed end
           or  %mp2 Density unrelaxed end

                                    ---------------------
                                    Active property flags
                                    ---------------------
   (+) Dipole Moment


------------------------------------------------------------------------------
                       ORCA ELECTRIC PROPERTIES CALCULATION
------------------------------------------------------------------------------

Dipole Moment Calculation                       ... on
Quadrupole Moment Calculation                   ... off
Polarizability Calculation                      ... off
GBWName                                         ... TMD23_CuBr.gbw
Electron density file                           ... TMD23_CuBr.scfp
The origin for moment calculation is the CENTER OF MASS  = ( 0.000000,  0.000000  0.042236)

-------------
DIPOLE MOMENT
-------------
                                X             Y             Z
Electronic contribution:      0.00000       0.00000       0.50512
Nuclear contribution   :      0.00000       0.00000      -2.70316
                        -----------------------------------------
Total Dipole Moment    :      0.00000       0.00000      -2.19805
                        -----------------------------------------
Magnitude (a.u.)       :      2.19805
Magnitude (Debye)      :      5.58699



--------------------
Rotational spectrum 
--------------------
 
Rotational constants in cm-1:     0.000000     0.097510     0.097510 
Rotational constants in MHz :     0.000000  2923.285786  2923.285786 

 Dipole components along the rotational axes: 
x,y,z [a.u.] :    -2.198047     0.000000     0.000000 
x,y,z [Debye]:    -5.586992     0.000000     0.000000 

 

Timings for individual modules:

Sum of individual times         ...        4.382 sec (=   0.073 min)
GTO integral calculation        ...        0.621 sec (=   0.010 min)  14.2 %
SCF iterations                  ...        3.188 sec (=   0.053 min)  72.8 %
MP2 module                      ...        0.573 sec (=   0.010 min)  13.1 %
                             ****ORCA TERMINATED NORMALLY****
TOTAL RUN TIME: 0 days 0 hours 0 minutes 4 seconds 878 msec
