
                                 *****************
                                 * O   R   C   A *
                                 *****************

           --- An Ab Initio, DFT and Semiempirical electronic structure package ---

                  #######################################################
                  #                        -***-                        #
                  #          Department of theory and spectroscopy      #
                  #               Directorship: Frank Neese             #
                  #        Max Planck Institute fuer Kohlenforschung    #
                  #                Kaiser Wilhelm Platz 1               #
                  #                 D-45470 Muelheim/Ruhr               #
                  #                      Germany                        #
                  #                                                     #
                  #                  All rights reserved                #
                  #                        -***-                        #
                  #######################################################


                         Program Version 4.2.0 -  RELEASE  -


 With contributions from (in alphabetic order):
   Daniel Aravena         : Magnetic Suceptibility
   Michael Atanasov       : Ab Initio Ligand Field Theory (pilot matlab implementation)
   Alexander A. Auer      : GIAO ZORA, VPT2
   Ute Becker             : Parallelization
   Giovanni Bistoni       : ED, misc. LED, open-shell LED, HFLED
   Martin Brehm           : Molecular dynamics
   Dmytro Bykov           : SCF Hessian
   Vijay G. Chilkuri      : MRCI spin determinant printing, contributions to CSF-ICE
   Dipayan Datta          : RHF DLPNO-CCSD density
   Achintya Kumar Dutta   : EOM-CC, STEOM-CC
   Dmitry Ganyushin       : Spin-Orbit,Spin-Spin,Magnetic field MRCI
   Miquel Garcia          : C-PCM Hessian, Gaussian charge scheme
   Yang Guo               : DLPNO-NEVPT2, CIM, IAO-localization
   Andreas Hansen         : Spin unrestricted coupled pair/coupled cluster methods
   Benjamin Helmich-Paris : CASSCF linear response (MC-RPA)
   Lee Huntington         : MR-EOM, pCC
   Robert Izsak           : Overlap fitted RIJCOSX, COSX-SCS-MP3, EOM
   Christian Kollmar      : KDIIS, OOCD, Brueckner-CCSD(T), CCSD density
   Simone Kossmann        : Meta GGA functionals, TD-DFT gradient, OOMP2, MP2 Hessian
   Martin Krupicka        : AUTO-CI
   Lucas Lang             : DCDCAS
   Dagmar Lenk            : GEPOL surface, SMD
   Dimitrios Liakos       : Extrapolation schemes; Compound Job, initial MDCI parallelization
   Dimitrios Manganas     : Further ROCIS development; embedding schemes
   Dimitrios Pantazis     : SARC Basis sets
   Taras Petrenko         : DFT Hessian,TD-DFT gradient, ASA, ECA, R-Raman, ABS, FL, XAS/XES, NRVS
   Peter Pinski           : DLPNO-MP2, DLPNO-MP2 Gradient
   Christoph Reimann      : Effective Core Potentials
   Marius Retegan         : Local ZFS, SOC
   Christoph Riplinger    : Optimizer, TS searches, QM/MM, DLPNO-CCSD(T), (RO)-DLPNO pert. Triples
   Tobias Risthaus        : Range-separated hybrids, TD-DFT gradient, RPA, STAB
   Michael Roemelt        : Original ROCIS implementation
   Masaaki Saitow         : Open-shell DLPNO-CCSD energy and density
   Barbara Sandhoefer     : DKH picture change effects
   Avijit Sen             : IP-ROCIS
   Kantharuban Sivalingam : CASSCF convergence, NEVPT2, FIC-MRCI
   Bernardo de Souza      : ESD, SOC TD-DFT
   Georgi Stoychev        : AutoAux, RI-MP2 NMR
   Willem Van den Heuvel  : Paramagnetic NMR
   Boris Wezisla          : Elementary symmetry handling
   Frank Wennmohs         : Technical directorship


 We gratefully acknowledge several colleagues who have allowed us to
 interface, adapt or use parts of their codes:
   Stefan Grimme, W. Hujo, H. Kruse,             : VdW corrections, initial TS optimization,
                  C. Bannwarth                     DFT functionals, gCP, sTDA/sTD-DF
   Ed Valeev, F. Pavosevic, A. Kumar             : LibInt (2-el integral package), F12 methods
   Garnet Chan, S. Sharma, J. Yang, R. Olivares  : DMRG
   Ulf Ekstrom                                   : XCFun DFT Library
   Mihaly Kallay                                 : mrcc  (arbitrary order and MRCC methods)
   Andreas Klamt, Michael Diedenhofen            : otool_cosmo (COSMO solvation model)
   Jiri Pittner, Ondrej Demel                    : Mk-CCSD
   Frank Weinhold                                : gennbo (NPA and NBO analysis)
   Christopher J. Cramer and Donald G. Truhlar   : smd solvation model
   Lars Goerigk                                  : TD-DFT with DH, B97 family of functionals
   V. Asgeirsson, H. Jonsson                     : NEB implementation
   FAccTs GmbH                                   : IRC, NEB, NEB-TS, Multilevel, MM, QM/MM, CI optimization
   S Lehtola, MJT Oliveira, MAL Marques          : LibXC Library


 Your calculation uses the libint2 library for the computation of 2-el integrals
 For citations please refer to: http://libint.valeyev.net

 Your ORCA version has been built with support for libXC version: 4.2.3
 For citations please refer to: https://tddft.org/programs/libxc/

 This ORCA versions uses:
   CBLAS   interface :  Fast vector & matrix operations
   LAPACKE interface :  Fast linear algebra routines
   SCALAPACK package :  Parallel linear algebra routines


Your calculation utilizes the atom-pairwise dispersion correction
with the Becke-Johnson damping scheme (D3BJ)
Cite in your paper:
S.Grimme, S.Ehrlich, L.Goerigk, J Comput Chem, (2011), 32, 1456–1465 
S.Grimme, J.Antony, S.Ehrlich and H.Krieg, J.Chem.Phys., 132, (2010), 154104 
   

----- Orbital basis set information -----
Your calculation utilizes the basis: def2-TZVPPD
   F. Weigend and R. Ahlrichs, Phys. Chem. Chem. Phys. 7, 3297 (2005).
   D. Rappoport and F. Furche, J. Chem. Phys. 133 134105 (2010).

----- AuxJK basis set information -----
Your calculation utilizes the auxiliary basis: def2/JK
   H-Ba, Hf-Rn: F. Weigend, J. Comput. Chem. 29, 167 (2008).

================================================================================
                                        WARNINGS
                       Please study these warnings very carefully!
================================================================================


INFO   : the flag for use of LIBINT has been found!

================================================================================
                                       INPUT FILE
================================================================================
NAME = MOR01_accl.in
|  1> #
|  2> # MOR01_accl TPSSh-D3BJ/Def2-TZVPPD
|  3> #
|  4> ! tpssh d3bj def2-tzvppd def2/jk grid4 nofinalgrid
|  5> 
|  6> *xyz 0 1
|  7> C        1.306659   -1.017500   -0.000028 
|  8> C        0.488515    0.240833   -0.000079 
|  9> H        2.367301   -0.760167   -0.001300 
| 10> H        1.052624   -1.613812   -0.881062 
| 11> H        1.054555   -1.612076    0.882774 
| 12> O        0.865971    1.367720    0.000018 
| 13> Cl      -1.304312   -0.135041    0.000005 
| 14> *
| 15> 
| 16> %maxcore 5000
| 17> 
| 18> %pal
| 19> nprocs = 24
| 20> end
| 21> 
| 22> 
| 23>                          ****END OF INPUT****
================================================================================

                       ****************************
                       * Single Point Calculation *
                       ****************************

---------------------------------
CARTESIAN COORDINATES (ANGSTROEM)
---------------------------------
  C      1.306659   -1.017500   -0.000028
  C      0.488515    0.240833   -0.000079
  H      2.367301   -0.760167   -0.001300
  H      1.052624   -1.613812   -0.881062
  H      1.054555   -1.612076    0.882774
  O      0.865971    1.367720    0.000018
  Cl    -1.304312   -0.135041    0.000005

----------------------------
CARTESIAN COORDINATES (A.U.)
----------------------------
  NO LB      ZA    FRAG     MASS         X           Y           Z
   0 C     6.0000    0    12.011    2.469228   -1.922796   -0.000053
   1 C     6.0000    0    12.011    0.923160    0.455108   -0.000149
   2 H     1.0000    0     1.008    4.473551   -1.436507   -0.002457
   3 H     1.0000    0     1.008    1.989171   -3.049663   -1.664966
   4 H     1.0000    0     1.008    1.992820   -3.046382    1.668201
   5 O     8.0000    0    15.999    1.636448    2.584616    0.000034
   6 Cl   17.0000    0    35.453   -2.464792   -0.255191    0.000009

--------------------------------
INTERNAL COORDINATES (ANGSTROEM)
--------------------------------
 C      0   0   0     0.000000000000     0.00000000     0.00000000
 C      1   0   0     1.500920233132     0.00000000     0.00000000
 H      1   2   0     1.091413461085   109.39354470     0.00000000
 H      1   2   3     1.093774515942   109.29563365   238.66057659
 H      1   2   3     1.093808218014   109.27598563   121.31046809
 O      2   1   3     1.188422211217   128.45033757   359.92100454
 Cl     2   1   3     1.831805099584   111.19033989   179.93209452

---------------------------
INTERNAL COORDINATES (A.U.)
---------------------------
 C      0   0   0     0.000000000000     0.00000000     0.00000000
 C      1   0   0     2.836328189481     0.00000000     0.00000000
 H      1   2   0     2.062472540325   109.39354470     0.00000000
 H      1   2   3     2.066934287393   109.29563365   238.66057659
 H      1   2   3     2.066997975080   109.27598563   121.31046809
 O      2   1   3     2.245792510669   128.45033757   359.92100454
 Cl     2   1   3     3.461609968934   111.19033989   179.93209452

---------------------
BASIS SET INFORMATION
---------------------
There are 4 groups of distinct atoms

 Group   1 Type C   : 12s6p3d1f contracted to 6s3p3d1f pattern {621111/411/111/1}
 Group   2 Type H   : 5s3p1d contracted to 3s3p1d pattern {311/111/1}
 Group   3 Type O   : 12s7p3d1f contracted to 6s4p3d1f pattern {621111/4111/111/1}
 Group   4 Type Cl  : 15s10p4d1f contracted to 6s6p4d1f pattern {732111/511111/1111/1}

Atom   0C    basis set group =>   1
Atom   1C    basis set group =>   1
Atom   2H    basis set group =>   2
Atom   3H    basis set group =>   2
Atom   4H    basis set group =>   2
Atom   5O    basis set group =>   3
Atom   6Cl   basis set group =>   4
----------------------------------
AUXILIARY/JK BASIS SET INFORMATION
----------------------------------
There are 4 groups of distinct atoms

 Group   1 Type C   : 14s10p6d2f1g contracted to 10s8p5d1f1g pattern {5111111111/31111111/21111/2/1}
 Group   2 Type H   : 4s2p2d contracted to 2s2p2d pattern {31/11/11}
 Group   3 Type O   : 14s10p6d2f1g contracted to 10s8p4d2f1g pattern {5111111111/31111111/3111/11/1}
 Group   4 Type Cl  : 16s12p10d4f1g contracted to 13s11p9d4f1g pattern {4111111111111/21111111111/211111111/1111/1}

Atom   0C    basis set group =>   1
Atom   1C    basis set group =>   1
Atom   2H    basis set group =>   2
Atom   3H    basis set group =>   2
Atom   4H    basis set group =>   2
Atom   5O    basis set group =>   3
Atom   6Cl   basis set group =>   4


           ************************************************************
           *        Program running with 24 parallel MPI-processes    *
           *              working on a common directory               *
           ************************************************************
------------------------------------------------------------------------------
                           ORCA GTO INTEGRAL CALCULATION
------------------------------------------------------------------------------

                         BASIS SET STATISTICS AND STARTUP INFO

 # of primitive gaussian shells          ...  124
 # of primitive gaussian functions       ...  288
 # of contracted shells                  ...   78
 # of contracted basis functions         ...  216
 Highest angular momentum                ...    3
 Maximum contraction depth               ...    7
 Integral package used                   ... LIBINT
 Integral threshhold            Thresh   ...  1.000e-10
 Primitive cut-off              TCut     ...  1.000e-11


------------------------------ INTEGRAL EVALUATION ----------------------------


 * One electron integrals 
 Pre-screening matrix                    ... done
 Shell pair data                         ... done (   0.001 sec)



           ************************************************************
           *        Program running with 24 parallel MPI-processes    *
           *              working on a common directory               *
           ************************************************************
-------------------------------------------------------------------------------
                                 ORCA SCF
-------------------------------------------------------------------------------

------------
SCF SETTINGS
------------
Hamiltonian:
 Density Functional     Method          .... DFT(GTOs)
 Exchange Functional    Exchange        .... TPSS
 Correlation Functional Correlation     .... TPSS
 LDA part of GGA corr.  LDAOpt          .... PW91-LDA
 Gradients option       PostSCFGGA      .... off
 Hybrid DFT is turned on
   Fraction HF Exchange ScalHFX         ....  0.100000
   Scaling of DF-GGA-X  ScalDFX         ....  0.900000
   Scaling of DF-GGA-C  ScalDFC         ....  1.000000
   Scaling of DF-LDA-C  ScalLDAC        ....  1.000000
   Perturbative correction              ....  0.000000
   Density functional embedding theory  .... OFF
   NL short-range parameter             ....  5.200000


General Settings:
 Integral files         IntName         .... MOR01_accl
 Hartree-Fock type      HFTyp           .... RHF
 Total Charge           Charge          ....    0
 Multiplicity           Mult            ....    1
 Number of Electrons    NEL             ....   40
 Basis Dimension        Dim             ....  216
 Nuclear Repulsion      ENuc            ....    147.8518070522 Eh

Convergence Acceleration:
 DIIS                   CNVDIIS         .... on
   Start iteration      DIISMaxIt       ....    12
   Startup error        DIISStart       ....  0.200000
   # of expansion vecs  DIISMaxEq       ....     5
   Bias factor          DIISBfac        ....   1.050
   Max. coefficient     DIISMaxC        ....  10.000
 Newton-Raphson         CNVNR           .... off
 SOSCF                  CNVSOSCF        .... on
   Start iteration      SOSCFMaxIt      ....   150
   Startup grad/error   SOSCFStart      ....  0.003300
 Level Shifting         CNVShift        .... on
   Level shift para.    LevelShift      ....    0.2500
   Turn off err/grad.   ShiftErr        ....    0.0010
 Zerner damping         CNVZerner       .... off
 Static damping         CNVDamp         .... on
   Fraction old density DampFac         ....    0.7000
   Max. Damping (<1)    DampMax         ....    0.9800
   Min. Damping (>=0)   DampMin         ....    0.0000
   Turn off err/grad.   DampErr         ....    0.1000
 Fernandez-Rico         CNVRico         .... off

SCF Procedure:
 Maximum # iterations   MaxIter         ....   125
 SCF integral mode      SCFMode         .... Direct
   Integral package                     .... LIBINT
 Reset frequency        DirectResetFreq ....    20
 Integral Threshold     Thresh          ....  1.000e-10 Eh
 Primitive CutOff       TCut            ....  1.000e-11 Eh

Convergence Tolerance:
 Convergence Check Mode ConvCheckMode   .... Total+1el-Energy
 Convergence forced     ConvForced      .... 0
 Energy Change          TolE            ....  1.000e-06 Eh
 1-El. energy change                    ....  1.000e-03 Eh
 Orbital Gradient       TolG            ....  5.000e-05
 Orbital Rotation angle TolX            ....  5.000e-05
 DIIS Error             TolErr          ....  1.000e-06


Diagonalization of the overlap matrix:
Smallest eigenvalue                        ... 1.309e-05
Time for diagonalization                   ...    0.010 sec
Threshold for overlap eigenvalues          ... 1.000e-08
Number of eigenvalues below threshold      ... 0
Time for construction of square roots      ...    0.006 sec
Total time needed                          ...    0.017 sec

-------------------
DFT GRID GENERATION
-------------------

General Integration Accuracy     IntAcc      ...  4.670
Radial Grid Type                 RadialGrid  ... Gauss-Chebyshev
Angular Grid (max. acc.)         AngularGrid ... Lebedev-302
Angular grid pruning method      GridPruning ... 3 (G Style)
Weight generation scheme         WeightScheme... Becke
Basis function cutoff            BFCut       ...    1.0000e-10
Integration weight cutoff        WCut        ...    1.0000e-14
Grids for H and He will be reduced by one unit

# of grid points (after initial pruning)     ...  35556 (   0.0 sec)
# of grid points (after weights+screening)   ...  34186 (   0.0 sec)
nearest neighbour list constructed           ...    0.0 sec
Grid point re-assignment to atoms done       ...    0.0 sec
Grid point division into batches done        ...    0.2 sec
Reduced shell lists constructed in    0.2 sec

Total number of grid points                  ...    34186
Total number of batches                      ...      536
Average number of points per batch           ...       63
Average number of grid points per atom       ...     4884
Average number of shells per batch           ...    64.17 (82.26%)
Average number of basis functions per batch  ...   183.17 (84.80%)
Average number of large shells per batch     ...    59.75 (93.12%)
Average number of large basis fcns per batch ...   168.50 (91.99%)
Maximum spatial batch extension              ...   1.41,  1.40,  1.88 au
Average spatial batch extension              ...   0.05,  0.04,  0.05 au

Time for grid setup =    0.209 sec

------------------------------
INITIAL GUESS: MODEL POTENTIAL
------------------------------
Loading Hartree-Fock densities                     ... done
Calculating cut-offs                               ... done
Setting up the integral package                    ... done
Initializing the effective Hamiltonian             ... done
Starting the Coulomb interaction                   ... done (   0.0 sec)
Reading the grid                                   ... done
Mapping shells                                     ... done
Starting the XC term evaluation                    ... done (   0.0 sec)
  promolecular density results
     # of electrons  =     39.998500665
     EX              =    -46.611347372
     EC              =     -1.417887915
     EX+EC           =    -48.029235287
Transforming the Hamiltonian                       ... done (   0.0 sec)
Diagonalizing the Hamiltonian                      ... done (   0.0 sec)
Back transforming the eigenvectors                 ... done (   0.0 sec)
Now organizing SCF variables                       ... done
                      ------------------
                      INITIAL GUESS DONE (   0.3 sec)
                      ------------------
--------------
SCF ITERATIONS
--------------
ITER       Energy         Delta-E        Max-DP      RMS-DP      [F,P]     Damp
               ***  Starting incremental Fock matrix formation  ***
  0   -613.4236006400   0.000000000000 0.05789330  0.00113297  0.2617889 0.7000
  1   -613.4876137317  -0.064013091707 0.03003343  0.00074742  0.0881040 0.7000
                               ***Turning on DIIS***
  2   -613.5049787944  -0.017365062713 0.07891977  0.00141896  0.0348641 0.0000
  3   -613.5434796600  -0.038500865527 0.01756162  0.00044073  0.0509566 0.0000
  4   -613.5478959432  -0.004416283225 0.00884788  0.00017394  0.0296314 0.0000
  5   -613.5492559923  -0.001360049127 0.00422172  0.00007091  0.0036677 0.0000
                      *** Initiating the SOSCF procedure ***
                           *** Shutting down DIIS ***
                      *** Re-Reading the Fockian *** 
                      *** Removing any level shift *** 
ITER      Energy       Delta-E        Grad      Rot      Max-DP    RMS-DP
  6   -613.54930792  -0.0000519285  0.000410  0.000410  0.002527  0.000037
               *** Restarting incremental Fock matrix formation ***
  7   -613.54931387  -0.0000059457  0.000171  0.000543  0.000617  0.000014
  8   -613.54931393  -0.0000000610  0.000146  0.000299  0.000255  0.000005
                 **** Energy Check signals convergence ****
              ***Rediagonalizing the Fockian in SOSCF/NRSCF***

               *****************************************************
               *                     SUCCESS                       *
               *           SCF CONVERGED AFTER   9 CYCLES          *
               *****************************************************


----------------
TOTAL SCF ENERGY
----------------

Total Energy       :         -613.54931433 Eh          -16695.52563 eV

Components:
Nuclear Repulsion  :          147.85180705 Eh            4023.25221 eV
Electronic Energy  :         -761.40112138 Eh          -20718.77784 eV
One Electron Energy:        -1136.75875138 Eh          -30932.77822 eV
Two Electron Energy:          375.35763000 Eh           10214.00038 eV

Virial components:
Potential Energy   :        -1225.62441393 Eh          -33350.93583 eV
Kinetic Energy     :          612.07509959 Eh           16655.41020 eV
Virial Ratio       :            2.00240855


DFT components:
N(Alpha)           :       19.999999079197 electrons
N(Beta)            :       19.999999079197 electrons
N(Total)           :       39.999998158395 electrons
E(X)               :      -42.663074627345 Eh       
E(C)               :       -1.429810339256 Eh       
E(XC)              :      -44.092884966600 Eh       
DFET-embed. en.    :        0.000000000000 Eh       

---------------
SCF CONVERGENCE
---------------

  Last Energy change         ...   -4.0378e-07  Tolerance :   1.0000e-06
  Last MAX-Density change    ...    2.8240e-04  Tolerance :   1.0000e-05
  Last RMS-Density change    ...    5.0387e-06  Tolerance :   1.0000e-06
  Last Orbital Gradient      ...    6.4941e-05  Tolerance :   5.0000e-05
  Last Orbital Rotation      ...    1.7325e-04  Tolerance :   5.0000e-05

             **** THE GBW FILE WAS UPDATED (MOR01_accl.gbw) ****
             **** DENSITY FILE WAS UPDATED (MOR01_accl.scfp) ****
             **** ENERGY FILE WAS UPDATED (MOR01_accl.en.tmp) ****
             **** THE GBW FILE WAS UPDATED (MOR01_accl.gbw) ****
             **** DENSITY FILE WAS UPDATED (MOR01_accl.scfp) ****
----------------
ORBITAL ENERGIES
----------------

  NO   OCC          E(Eh)            E(eV) 
   0   2.0000    -101.379907     -2758.6875 
   1   2.0000     -19.092625      -519.5367 
   2   2.0000     -10.269867      -279.4573 
   3   2.0000     -10.155258      -276.3386 
   4   2.0000      -9.381302      -255.2782 
   5   2.0000      -7.128236      -193.9692 
   6   2.0000      -7.120933      -193.7704 
   7   2.0000      -7.119587      -193.7338 
   8   2.0000      -1.075653       -29.2700 
   9   2.0000      -0.827685       -22.5225 
  10   2.0000      -0.751495       -20.4492 
  11   2.0000      -0.551293       -15.0014 
  12   2.0000      -0.480237       -13.0679 
  13   2.0000      -0.466214       -12.6863 
  14   2.0000      -0.461138       -12.5482 
  15   2.0000      -0.410064       -11.1584 
  16   2.0000      -0.392135       -10.6705 
  17   2.0000      -0.314622        -8.5613 
  18   2.0000      -0.309785        -8.4297 
  19   2.0000      -0.288263        -7.8440 
  20   0.0000      -0.065538        -1.7834 
  21   0.0000      -0.014208        -0.3866 
  22   0.0000       0.002625         0.0714 
  23   0.0000       0.032148         0.8748 
  24   0.0000       0.040524         1.1027 
  25   0.0000       0.044545         1.2121 
  26   0.0000       0.062472         1.6999 
  27   0.0000       0.070924         1.9299 
  28   0.0000       0.080634         2.1942 
  29   0.0000       0.084888         2.3099 
  30   0.0000       0.093544         2.5455 
  31   0.0000       0.115919         3.1543 
  32   0.0000       0.130057         3.5390 
  33   0.0000       0.132961         3.6181 
  34   0.0000       0.154338         4.1998 
  35   0.0000       0.167173         4.5490 
  36   0.0000       0.173129         4.7111 
  37   0.0000       0.190101         5.1729 
  38   0.0000       0.203595         5.5401 
  39   0.0000       0.223978         6.0947 
  40   0.0000       0.225690         6.1413 
  41   0.0000       0.237560         6.4643 
  42   0.0000       0.244296         6.6476 
  43   0.0000       0.257286         7.0011 
  44   0.0000       0.261246         7.1089 
  45   0.0000       0.268975         7.3192 
  46   0.0000       0.270549         7.3620 
  47   0.0000       0.284620         7.7449 
  48   0.0000       0.297611         8.0984 
  49   0.0000       0.311323         8.4715 
  50   0.0000       0.316224         8.6049 
  51   0.0000       0.322008         8.7623 
  52   0.0000       0.334039         9.0897 
  53   0.0000       0.337564         9.1856 
  54   0.0000       0.367106         9.9895 
  55   0.0000       0.370187        10.0733 
  56   0.0000       0.388988        10.5849 
  57   0.0000       0.398846        10.8532 
  58   0.0000       0.407531        11.0895 
  59   0.0000       0.410865        11.1802 
  60   0.0000       0.450697        12.2641 
  61   0.0000       0.452971        12.3260 
  62   0.0000       0.474504        12.9119 
  63   0.0000       0.494297        13.4505 
  64   0.0000       0.502613        13.6768 
  65   0.0000       0.518293        14.1035 
  66   0.0000       0.529330        14.4038 
  67   0.0000       0.547728        14.9044 
  68   0.0000       0.556883        15.1536 
  69   0.0000       0.566514        15.4156 
  70   0.0000       0.578382        15.7386 
  71   0.0000       0.587225        15.9792 
  72   0.0000       0.613764        16.7014 
  73   0.0000       0.637502        17.3473 
  74   0.0000       0.640275        17.4228 
  75   0.0000       0.658843        17.9280 
  76   0.0000       0.670325        18.2405 
  77   0.0000       0.682228        18.5644 
  78   0.0000       0.689261        18.7558 
  79   0.0000       0.706027        19.2120 
  80   0.0000       0.707093        19.2410 
  81   0.0000       0.715549        19.4711 
  82   0.0000       0.753921        20.5152 
  83   0.0000       0.791030        21.5250 
  84   0.0000       0.794599        21.6221 
  85   0.0000       0.822124        22.3711 
  86   0.0000       0.854836        23.2613 
  87   0.0000       0.893575        24.3154 
  88   0.0000       0.895573        24.3698 
  89   0.0000       0.957247        26.0480 
  90   0.0000       0.974500        26.5175 
  91   0.0000       0.987690        26.8764 
  92   0.0000       1.081620        29.4324 
  93   0.0000       1.084002        29.4972 
  94   0.0000       1.116897        30.3923 
  95   0.0000       1.129548        30.7366 
  96   0.0000       1.151535        31.3348 
  97   0.0000       1.179441        32.0942 
  98   0.0000       1.212201        32.9857 
  99   0.0000       1.256666        34.1956 
 100   0.0000       1.266193        34.4549 
 101   0.0000       1.328492        36.1501 
 102   0.0000       1.463950        39.8361 
 103   0.0000       1.468531        39.9608 
 104   0.0000       1.476071        40.1659 
 105   0.0000       1.543221        41.9932 
 106   0.0000       1.557021        42.3687 
 107   0.0000       1.560337        42.4589 
 108   0.0000       1.609858        43.8065 
 109   0.0000       1.643526        44.7226 
 110   0.0000       1.719775        46.7975 
 111   0.0000       1.768058        48.1113 
 112   0.0000       1.786671        48.6178 
 113   0.0000       1.892534        51.4985 
 114   0.0000       1.898140        51.6510 
 115   0.0000       1.911166        52.0055 
 116   0.0000       1.924614        52.3714 
 117   0.0000       1.927371        52.4464 
 118   0.0000       1.939415        52.7742 
 119   0.0000       1.966299        53.5057 
 120   0.0000       2.001160        54.4543 
 121   0.0000       2.024243        55.0824 
 122   0.0000       2.026290        55.1382 
 123   0.0000       2.060688        56.0742 
 124   0.0000       2.112111        57.4735 
 125   0.0000       2.113210        57.5034 
 126   0.0000       2.186602        59.5005 
 127   0.0000       2.219836        60.4048 
 128   0.0000       2.308380        62.8142 
 129   0.0000       2.331140        63.4335 
 130   0.0000       2.428419        66.0806 
 131   0.0000       2.434040        66.2336 
 132   0.0000       2.466753        67.1238 
 133   0.0000       2.495705        67.9116 
 134   0.0000       2.522577        68.6428 
 135   0.0000       2.651804        72.1592 
 136   0.0000       2.716662        73.9241 
 137   0.0000       2.735706        74.4424 
 138   0.0000       2.772268        75.4372 
 139   0.0000       2.796575        76.0987 
 140   0.0000       2.844666        77.4073 
 141   0.0000       2.872689        78.1698 
 142   0.0000       2.895142        78.7808 
 143   0.0000       2.897024        78.8320 
 144   0.0000       3.018436        82.1358 
 145   0.0000       3.032022        82.5055 
 146   0.0000       3.077424        83.7410 
 147   0.0000       3.079187        83.7890 
 148   0.0000       3.096842        84.2694 
 149   0.0000       3.172802        86.3363 
 150   0.0000       3.188480        86.7629 
 151   0.0000       3.223195        87.7076 
 152   0.0000       3.269221        88.9600 
 153   0.0000       3.331330        90.6501 
 154   0.0000       3.360331        91.4393 
 155   0.0000       3.382817        92.0511 
 156   0.0000       3.385165        92.1150 
 157   0.0000       3.467550        94.3568 
 158   0.0000       3.535299        96.2004 
 159   0.0000       3.545224        96.4704 
 160   0.0000       3.549400        96.5841 
 161   0.0000       3.614948        98.3677 
 162   0.0000       3.619982        98.5047 
 163   0.0000       3.732394       101.5636 
 164   0.0000       3.823997       104.0563 
 165   0.0000       3.918134       106.6179 
 166   0.0000       3.928763       106.9071 
 167   0.0000       4.011848       109.1679 
 168   0.0000       4.029392       109.6453 
 169   0.0000       4.053054       110.2892 
 170   0.0000       4.133569       112.4801 
 171   0.0000       4.155763       113.0841 
 172   0.0000       4.218549       114.7926 
 173   0.0000       4.219736       114.8248 
 174   0.0000       4.306260       117.1793 
 175   0.0000       4.399736       119.7229 
 176   0.0000       4.453206       121.1779 
 177   0.0000       4.464947       121.4974 
 178   0.0000       4.579215       124.6068 
 179   0.0000       4.660736       126.8251 
 180   0.0000       4.762585       129.5965 
 181   0.0000       4.874492       132.6417 
 182   0.0000       4.919591       133.8689 
 183   0.0000       5.140296       139.8746 
 184   0.0000       5.185527       141.1054 
 185   0.0000       5.225556       142.1946 
 186   0.0000       5.253290       142.9493 
 187   0.0000       5.309582       144.4811 
 188   0.0000       5.360996       145.8801 
 189   0.0000       5.430374       147.7680 
 190   0.0000       5.473204       148.9335 
 191   0.0000       5.488991       149.3630 
 192   0.0000       5.627236       153.1249 
 193   0.0000       5.689362       154.8154 
 194   0.0000       5.739373       156.1763 
 195   0.0000       5.784894       157.4150 
 196   0.0000       6.251564       170.1137 
 197   0.0000       6.439387       175.2246 
 198   0.0000       6.470781       176.0789 
 199   0.0000       6.524718       177.5466 
 200   0.0000       6.567842       178.7201 
 201   0.0000       6.859250       186.6497 
 202   0.0000       7.021950       191.0770 
 203   0.0000       7.202930       196.0017 
 204   0.0000       8.123946       221.0638 
 205   0.0000       8.133967       221.3365 
 206   0.0000       8.145993       221.6637 
 207   0.0000       8.228320       223.9040 
 208   0.0000       8.267629       224.9736 
 209   0.0000      10.878840       296.0283 
 210   0.0000      10.990202       299.0586 
 211   0.0000      11.333928       308.4119 
 212   0.0000      23.002214       625.9221 
 213   0.0000      23.681186       644.3978 
 214   0.0000      26.265266       714.7142 
 215   0.0000      44.216763      1203.1993 

                    ********************************
                    * MULLIKEN POPULATION ANALYSIS *
                    ********************************

-----------------------
MULLIKEN ATOMIC CHARGES
-----------------------
   0 C :   -0.072730
   1 C :    0.665061
   2 H :    0.011406
   3 H :    0.085255
   4 H :    0.085057
   5 O :   -0.398943
   6 Cl:   -0.375106
Sum of atomic charges:   -0.0000000

--------------------------------
MULLIKEN REDUCED ORBITAL CHARGES
--------------------------------
  0 C s       :     2.998936  s :     2.998936
      pz      :     1.042027  p :     2.978310
      px      :     1.000296
      py      :     0.935988
      dz2     :     0.013478  d :     0.091712
      dxz     :     0.014154
      dyz     :     0.025667
      dx2y2   :     0.030423
      dxy     :     0.007990
      f0      :     0.000223  f :     0.003771
      f+1     :     0.000429
      f-1     :     0.000756
      f+2     :     0.000344
      f-2     :     0.000312
      f+3     :     0.000887
      f-3     :     0.000819
  1 C s       :     3.021226  s :     3.021226
      pz      :     0.709782  p :     2.110320
      px      :     0.666020
      py      :     0.734518
      dz2     :     0.002276  d :     0.185221
      dxz     :     0.012473
      dyz     :     0.050423
      dx2y2   :     0.060572
      dxy     :     0.059477
      f0      :     0.002261  f :     0.018172
      f+1     :     0.000829
      f-1     :     0.001391
      f+2     :     0.002222
      f-2     :     0.001385
      f+3     :     0.004293
      f-3     :     0.005790
  2 H s       :     0.927088  s :     0.927088
      pz      :     0.009801  p :     0.059900
      px      :     0.033002
      py      :     0.017097
      dz2     :     0.000063  d :     0.001605
      dxz     :     0.000585
      dyz     :     0.000062
      dx2y2   :     0.000308
      dxy     :     0.000587
  3 H s       :     0.867252  s :     0.867252
      pz      :     0.024395  p :     0.045909
      px      :     0.008521
      py      :     0.012993
      dz2     :     0.000526  d :     0.001585
      dxz     :     0.000327
      dyz     :     0.000291
      dx2y2   :     0.000233
      dxy     :     0.000208
  4 H s       :     0.867394  s :     0.867394
      pz      :     0.024461  p :     0.045964
      px      :     0.008548
      py      :     0.012955
      dz2     :     0.000526  d :     0.001585
      dxz     :     0.000328
      dyz     :     0.000292
      dx2y2   :     0.000231
      dxy     :     0.000207
  5 O s       :     4.017246  s :     4.017246
      pz      :     1.344391  p :     4.339661
      px      :     1.668285
      py      :     1.326985
      dz2     :     0.002771  d :     0.040037
      dxz     :     0.001921
      dyz     :     0.014871
      dx2y2   :     0.009781
      dxy     :     0.010694
      f0      :     0.000208  f :     0.001999
      f+1     :     0.000036
      f-1     :     0.000124
      f+2     :     0.000338
      f-2     :     0.000203
      f+3     :     0.000508
      f-3     :     0.000583
  6 Cls       :     6.087533  s :     6.087533
      pz      :     3.903455  p :    11.233648
      px      :     3.361962
      py      :     3.968230
      dz2     :     0.008021  d :     0.050014
      dxz     :     0.010384
      dyz     :     0.001105
      dx2y2   :     0.018825
      dxy     :     0.011679
      f0      :     0.000292  f :     0.003911
      f+1     :     0.000785
      f-1     :     0.000080
      f+2     :     0.000409
      f-2     :     0.000117
      f+3     :     0.001273
      f-3     :     0.000954


                     *******************************
                     * LOEWDIN POPULATION ANALYSIS *
                     *******************************

----------------------
LOEWDIN ATOMIC CHARGES
----------------------
   0 C :    0.134522
   1 C :   -0.748887
   2 H :   -0.002737
   3 H :   -0.005708
   4 H :   -0.005617
   5 O :    0.072332
   6 Cl:    0.556096

-------------------------------
LOEWDIN REDUCED ORBITAL CHARGES
-------------------------------
  0 C s       :     2.645004  s :     2.645004
      pz      :     0.923793  p :     2.715660
      px      :     0.912957
      py      :     0.878910
      dz2     :     0.081302  d :     0.473572
      dxz     :     0.037325
      dyz     :     0.104061
      dx2y2   :     0.145863
      dxy     :     0.105021
      f0      :     0.001364  f :     0.031243
      f+1     :     0.005107
      f-1     :     0.006216
      f+2     :     0.002885
      f-2     :     0.003152
      f+3     :     0.007110
      f-3     :     0.005409
  1 C s       :     2.743346  s :     2.743346
      pz      :     0.660584  p :     2.503319
      px      :     0.858509
      py      :     0.984225
      dz2     :     0.114427  d :     1.390754
      dxz     :     0.170927
      dyz     :     0.204812
      dx2y2   :     0.469410
      dxy     :     0.431177
      f0      :     0.008376  f :     0.111468
      f+1     :     0.005143
      f-1     :     0.009902
      f+2     :     0.013010
      f-2     :     0.009689
      f+3     :     0.028629
      f-3     :     0.036720
  2 H s       :     0.699186  s :     0.699186
      pz      :     0.073737  p :     0.274413
      px      :     0.128040
      py      :     0.072637
      dz2     :     0.002657  d :     0.029138
      dxz     :     0.008691
      dyz     :     0.000702
      dx2y2   :     0.008500
      dxy     :     0.008587
  3 H s       :     0.692616  s :     0.692616
      pz      :     0.113204  p :     0.283935
      px      :     0.081782
      py      :     0.088950
      dz2     :     0.009099  d :     0.029157
      dxz     :     0.005761
      dyz     :     0.007805
      dx2y2   :     0.003272
      dxy     :     0.003220
  4 H s       :     0.692573  s :     0.692573
      pz      :     0.113341  p :     0.283889
      px      :     0.081702
      py      :     0.088845
      dz2     :     0.009111  d :     0.029155
      dxz     :     0.005781
      dyz     :     0.007815
      dx2y2   :     0.003249
      dxy     :     0.003199
  5 O s       :     3.365830  s :     3.365830
      pz      :     1.230567  p :     4.302321
      px      :     1.542140
      py      :     1.529615
      dz2     :     0.030068  d :     0.252976
      dxz     :     0.007470
      dyz     :     0.037561
      dx2y2   :     0.088530
      dxy     :     0.089347
      f0      :     0.000495  f :     0.006541
      f+1     :     0.000229
      f-1     :     0.000924
      f+2     :     0.000577
      f-2     :     0.000376
      f+3     :     0.002061
      f-3     :     0.001878
  6 Cls       :     5.501016  s :     5.501016
      pz      :     3.712413  p :    10.753487
      px      :     3.294657
      py      :     3.746417
      dz2     :     0.028887  d :     0.181430
      dxz     :     0.033190
      dyz     :     0.004162
      dx2y2   :     0.060759
      dxy     :     0.054431
      f0      :     0.000476  f :     0.007972
      f+1     :     0.001793
      f-1     :     0.000195
      f+2     :     0.000637
      f-2     :     0.000152
      f+3     :     0.002698
      f-3     :     0.002021


                      *****************************
                      * MAYER POPULATION ANALYSIS *
                      *****************************

  NA   - Mulliken gross atomic population
  ZA   - Total nuclear charge
  QA   - Mulliken gross atomic charge
  VA   - Mayer's total valence
  BVA  - Mayer's bonded valence
  FA   - Mayer's free valence

  ATOM       NA         ZA         QA         VA         BVA        FA
  0 C      6.0727     6.0000    -0.0727     3.9996     3.9996    -0.0000
  1 C      5.3349     6.0000     0.6651     3.5775     3.5775    -0.0000
  2 H      0.9886     1.0000     0.0114     1.1270     1.1270    -0.0000
  3 H      0.9147     1.0000     0.0853     1.0523     1.0523     0.0000
  4 H      0.9149     1.0000     0.0851     1.0524     1.0524    -0.0000
  5 O      8.3989     8.0000    -0.3989     2.0835     2.0835     0.0000
  6 Cl    17.3751    17.0000    -0.3751     0.9096     0.9096    -0.0000

  Mayer bond orders larger than 0.100000
B(  0-C ,  1-C ) :   1.0041 B(  0-C ,  2-H ) :   1.0146 B(  0-C ,  3-H ) :   0.9467 
B(  0-C ,  4-H ) :   0.9465 B(  1-C ,  5-O ) :   1.8503 B(  1-C ,  6-Cl) :   0.6219 
B(  5-O ,  6-Cl) :   0.1697 

-------
TIMINGS
-------

Total SCF time: 0 days 0 hours 0 min 5 sec 

Total time                  ....       5.084 sec
Sum of individual times     ....       4.859 sec  ( 95.6%)

Fock matrix formation       ....       4.449 sec  ( 87.5%)
  XC integration            ....       0.593 sec  ( 13.3% of F)
    Basis function eval.    ....       0.060 sec  ( 10.1% of XC)
    Density eval.           ....       0.110 sec  ( 18.6% of XC)
    XC-Functional eval.     ....       0.031 sec  (  5.2% of XC)
    XC-Potential eval.      ....       0.265 sec  ( 44.7% of XC)
Diagonalization             ....       0.043 sec  (  0.8%)
Density matrix formation    ....       0.009 sec  (  0.2%)
Population analysis         ....       0.007 sec  (  0.1%)
Initial guess               ....       0.111 sec  (  2.2%)
Orbital Transformation      ....       0.000 sec  (  0.0%)
Orbital Orthonormalization  ....       0.000 sec  (  0.0%)
DIIS solution               ....       0.018 sec  (  0.4%)
SOSCF solution              ....       0.012 sec  (  0.2%)
Grid generation             ....       0.209 sec  (  4.1%)


-------------------------------------------------------------------------------
                          DFT DISPERSION CORRECTION                            
                                                                               
                              DFTD3 V3.1  Rev 1                                
                          USING Becke-Johnson damping                          
-------------------------------------------------------------------------------
The TPSSH functional is recognized
Active option DFTDOPT                   ...         4   

molecular C6(AA) [au] = 762.529206 


            DFT-D V3
 parameters
 s6 scaling factor         :     1.0000 
 a1 scaling factor         :     0.4529 
 s8 scaling factor         :     2.2382 
 a2 scaling factor         :     4.6550 
 ad hoc parameters k1-k3   :    16.0000     1.3333    -4.0000 

 Edisp/kcal,au: -3.381008666442  -0.005387979697 
 E6   /kcal   :  -1.558044468 
 E8   /kcal   :  -1.822964198 
 % E8         :  53.917761779 

-------------------------   ----------------
Dispersion correction           -0.005387980
-------------------------   ----------------


-------------------------   --------------------
FINAL SINGLE POINT ENERGY      -613.554702310991
-------------------------   --------------------


                            ***************************************
                            *     ORCA property calculations      *
                            ***************************************

                                    ---------------------
                                    Active property flags
                                    ---------------------
   (+) Dipole Moment


------------------------------------------------------------------------------
                       ORCA ELECTRIC PROPERTIES CALCULATION
------------------------------------------------------------------------------

Dipole Moment Calculation                       ... on
Quadrupole Moment Calculation                   ... off
Polarizability Calculation                      ... off
GBWName                                         ... MOR01_accl.gbw
Electron density file                           ... MOR01_accl.scfp
The origin for moment calculation is the CENTER OF MASS  = (-0.152024,  0.090229 -0.000010)

-------------
DIPOLE MOMENT
-------------
                                X             Y             Z
Electronic contribution:     -5.48333       2.66070      -0.00033
Nuclear contribution   :      6.08095      -3.60915       0.00039
                        -----------------------------------------
Total Dipole Moment    :      0.59762      -0.94845       0.00006
                        -----------------------------------------
Magnitude (a.u.)       :      1.12103
Magnitude (Debye)      :      2.84943



--------------------
Rotational spectrum 
--------------------
 
Rotational constants in cm-1:     0.334975     0.160198     0.110601 
Rotational constants in MHz : 10042.310181  4802.622935  3315.727154 

 Dipole components along the rotational axes: 
x,y,z [a.u.] :    -0.495358    -1.005648     0.000068 
x,y,z [Debye]:    -1.259100    -2.556154     0.000172 

 

Timings for individual modules:

Sum of individual times         ...        6.153 sec (=   0.103 min)
GTO integral calculation        ...        0.696 sec (=   0.012 min)  11.3 %
SCF iterations                  ...        5.458 sec (=   0.091 min)  88.7 %
                             ****ORCA TERMINATED NORMALLY****
TOTAL RUN TIME: 0 days 0 hours 0 minutes 6 seconds 665 msec
