
                                 *****************
                                 * O   R   C   A *
                                 *****************

           --- An Ab Initio, DFT and Semiempirical electronic structure package ---

                  #######################################################
                  #                        -***-                        #
                  #          Department of theory and spectroscopy      #
                  #               Directorship: Frank Neese             #
                  #        Max Planck Institute fuer Kohlenforschung    #
                  #                Kaiser Wilhelm Platz 1               #
                  #                 D-45470 Muelheim/Ruhr               #
                  #                      Germany                        #
                  #                                                     #
                  #                  All rights reserved                #
                  #                        -***-                        #
                  #######################################################


                         Program Version 4.2.0 -  RELEASE  -


 With contributions from (in alphabetic order):
   Daniel Aravena         : Magnetic Suceptibility
   Michael Atanasov       : Ab Initio Ligand Field Theory (pilot matlab implementation)
   Alexander A. Auer      : GIAO ZORA, VPT2
   Ute Becker             : Parallelization
   Giovanni Bistoni       : ED, misc. LED, open-shell LED, HFLED
   Martin Brehm           : Molecular dynamics
   Dmytro Bykov           : SCF Hessian
   Vijay G. Chilkuri      : MRCI spin determinant printing, contributions to CSF-ICE
   Dipayan Datta          : RHF DLPNO-CCSD density
   Achintya Kumar Dutta   : EOM-CC, STEOM-CC
   Dmitry Ganyushin       : Spin-Orbit,Spin-Spin,Magnetic field MRCI
   Miquel Garcia          : C-PCM Hessian, Gaussian charge scheme
   Yang Guo               : DLPNO-NEVPT2, CIM, IAO-localization
   Andreas Hansen         : Spin unrestricted coupled pair/coupled cluster methods
   Benjamin Helmich-Paris : CASSCF linear response (MC-RPA)
   Lee Huntington         : MR-EOM, pCC
   Robert Izsak           : Overlap fitted RIJCOSX, COSX-SCS-MP3, EOM
   Christian Kollmar      : KDIIS, OOCD, Brueckner-CCSD(T), CCSD density
   Simone Kossmann        : Meta GGA functionals, TD-DFT gradient, OOMP2, MP2 Hessian
   Martin Krupicka        : AUTO-CI
   Lucas Lang             : DCDCAS
   Dagmar Lenk            : GEPOL surface, SMD
   Dimitrios Liakos       : Extrapolation schemes; Compound Job, initial MDCI parallelization
   Dimitrios Manganas     : Further ROCIS development; embedding schemes
   Dimitrios Pantazis     : SARC Basis sets
   Taras Petrenko         : DFT Hessian,TD-DFT gradient, ASA, ECA, R-Raman, ABS, FL, XAS/XES, NRVS
   Peter Pinski           : DLPNO-MP2, DLPNO-MP2 Gradient
   Christoph Reimann      : Effective Core Potentials
   Marius Retegan         : Local ZFS, SOC
   Christoph Riplinger    : Optimizer, TS searches, QM/MM, DLPNO-CCSD(T), (RO)-DLPNO pert. Triples
   Tobias Risthaus        : Range-separated hybrids, TD-DFT gradient, RPA, STAB
   Michael Roemelt        : Original ROCIS implementation
   Masaaki Saitow         : Open-shell DLPNO-CCSD energy and density
   Barbara Sandhoefer     : DKH picture change effects
   Avijit Sen             : IP-ROCIS
   Kantharuban Sivalingam : CASSCF convergence, NEVPT2, FIC-MRCI
   Bernardo de Souza      : ESD, SOC TD-DFT
   Georgi Stoychev        : AutoAux, RI-MP2 NMR
   Willem Van den Heuvel  : Paramagnetic NMR
   Boris Wezisla          : Elementary symmetry handling
   Frank Wennmohs         : Technical directorship


 We gratefully acknowledge several colleagues who have allowed us to
 interface, adapt or use parts of their codes:
   Stefan Grimme, W. Hujo, H. Kruse,             : VdW corrections, initial TS optimization,
                  C. Bannwarth                     DFT functionals, gCP, sTDA/sTD-DF
   Ed Valeev, F. Pavosevic, A. Kumar             : LibInt (2-el integral package), F12 methods
   Garnet Chan, S. Sharma, J. Yang, R. Olivares  : DMRG
   Ulf Ekstrom                                   : XCFun DFT Library
   Mihaly Kallay                                 : mrcc  (arbitrary order and MRCC methods)
   Andreas Klamt, Michael Diedenhofen            : otool_cosmo (COSMO solvation model)
   Jiri Pittner, Ondrej Demel                    : Mk-CCSD
   Frank Weinhold                                : gennbo (NPA and NBO analysis)
   Christopher J. Cramer and Donald G. Truhlar   : smd solvation model
   Lars Goerigk                                  : TD-DFT with DH, B97 family of functionals
   V. Asgeirsson, H. Jonsson                     : NEB implementation
   FAccTs GmbH                                   : IRC, NEB, NEB-TS, Multilevel, MM, QM/MM, CI optimization
   S Lehtola, MJT Oliveira, MAL Marques          : LibXC Library


 Your calculation uses the libint2 library for the computation of 2-el integrals
 For citations please refer to: http://libint.valeyev.net

 Your ORCA version has been built with support for libXC version: 4.2.3
 For citations please refer to: https://tddft.org/programs/libxc/

 This ORCA versions uses:
   CBLAS   interface :  Fast vector & matrix operations
   LAPACKE interface :  Fast linear algebra routines
   SCALAPACK package :  Parallel linear algebra routines


Your calculation utilizes the atom-pairwise dispersion correction
with the Becke-Johnson damping scheme (D3BJ)
Cite in your paper:
S.Grimme, S.Ehrlich, L.Goerigk, J Comput Chem, (2011), 32, 1456–1465 
S.Grimme, J.Antony, S.Ehrlich and H.Krieg, J.Chem.Phys., 132, (2010), 154104 
   

----- Orbital basis set information -----
Your calculation utilizes the basis: def2-TZVPPD
   F. Weigend and R. Ahlrichs, Phys. Chem. Chem. Phys. 7, 3297 (2005).
   D. Rappoport and F. Furche, J. Chem. Phys. 133 134105 (2010).

----- AuxJK basis set information -----
Your calculation utilizes the auxiliary basis: def2/JK
   H-Ba, Hf-Rn: F. Weigend, J. Comput. Chem. 29, 167 (2008).

================================================================================
                                        WARNINGS
                       Please study these warnings very carefully!
================================================================================


INFO   : the flag for use of LIBINT has been found!

================================================================================
                                       INPUT FILE
================================================================================
NAME = MOR07_ed01.in
|  1> #
|  2> # MOR07_ed01 TPSSh-D3BJ/Def2-TZVPPD
|  3> #
|  4> ! tpssh d3bj def2-tzvppd def2/jk grid4 nofinalgrid
|  5> 
|  6> *xyz 0 1
|  7> Cr      -0.000046    0.000041   -0.405569 
|  8> O       -2.277907    2.043130   -0.317819 
|  9> C       -1.422280    1.275470   -0.391359 
| 10> C       -0.000325   -0.000192    1.429559 
| 11> O       -0.000571   -0.000422    2.587655 
| 12> C        1.422359   -1.275089   -0.391211 
| 13> O        2.278285   -2.042429   -0.317709 
| 14> C        1.275390    1.422211   -0.390822 
| 15> O        2.043071    2.277781   -0.316760 
| 16> C       -1.275267   -1.422351   -0.391135 
| 17> O       -2.042647   -2.278220   -0.317434 
| 18> *
| 19> 
| 20> %maxcore 5000
| 21> 
| 22> %pal
| 23> nprocs = 24
| 24> end
| 25> 
| 26> 
| 27>                          ****END OF INPUT****
================================================================================

                       ****************************
                       * Single Point Calculation *
                       ****************************

---------------------------------
CARTESIAN COORDINATES (ANGSTROEM)
---------------------------------
  Cr    -0.000046    0.000041   -0.405569
  O     -2.277907    2.043130   -0.317819
  C     -1.422280    1.275470   -0.391359
  C     -0.000325   -0.000192    1.429559
  O     -0.000571   -0.000422    2.587655
  C      1.422359   -1.275089   -0.391211
  O      2.278285   -2.042429   -0.317709
  C      1.275390    1.422211   -0.390822
  O      2.043071    2.277781   -0.316760
  C     -1.275267   -1.422351   -0.391135
  O     -2.042647   -2.278220   -0.317434

----------------------------
CARTESIAN COORDINATES (A.U.)
----------------------------
  NO LB      ZA    FRAG     MASS         X           Y           Z
   0 Cr   24.0000    0    52.000   -0.000087    0.000077   -0.766414
   1 O     8.0000    0    15.999   -4.304620    3.860956   -0.600591
   2 C     6.0000    0    12.011   -2.687720    2.410289   -0.739561
   3 C     6.0000    0    12.011   -0.000614   -0.000363    2.701475
   4 O     8.0000    0    15.999   -0.001079   -0.000797    4.889959
   5 C     6.0000    0    12.011    2.687869   -2.409569   -0.739282
   6 O     8.0000    0    15.999    4.305335   -3.859631   -0.600383
   7 C     6.0000    0    12.011    2.410138    2.687589   -0.738547
   8 O     8.0000    0    15.999    3.860845    4.304382   -0.598590
   9 C     6.0000    0    12.011   -2.409905   -2.687854   -0.739138
  10 O     8.0000    0    15.999   -3.860043   -4.305212   -0.599863

--------------------------------
INTERNAL COORDINATES (ANGSTROEM)
--------------------------------
 Cr     0   0   0     0.000000000000     0.00000000     0.00000000
 O      1   0   0     3.061137608756     0.00000000     0.00000000
 C      2   1   0     1.151871334103     2.01783897     0.00000000
 C      1   2   3     1.835128036000    88.35571758   180.24238282
 O      4   1   2     1.158096048967   179.99463193    91.76122125
 C      1   2   3     1.910339931292   177.92665485   179.81632214
 O      6   1   4     1.151877830796   176.77207242     0.00000000
 C      1   2   3     1.910372207975    89.98385338    90.67316090
 O      8   1   2     1.151876435433   176.75578430    88.60960898
 C      1   2   3     1.910391567418    90.00030062   269.79805641
 O     10   1   2     1.151874839973   176.76441128   271.68563110

---------------------------
INTERNAL COORDINATES (A.U.)
---------------------------
 Cr     0   0   0     0.000000000000     0.00000000     0.00000000
 O      1   0   0     5.784711738796     0.00000000     0.00000000
 C      2   1   0     2.176721362970     2.01783897     0.00000000
 C      1   2   3     3.467889408721    88.35571758   180.24238282
 O      4   1   2     2.188484369323   179.99463193    91.76122125
 C      1   2   3     3.610019292836   177.92665485   179.81632214
 O      6   1   4     2.176733639940   176.77207242     0.00000000
 C      1   2   3     3.610080286928    89.98385338    90.67316090
 O      8   1   2     2.176731003085   176.75578430    88.60960898
 C      1   2   3     3.610116870972    90.00030062   269.79805641
 O     10   1   2     2.176727988103   176.76441128   271.68563110

---------------------
BASIS SET INFORMATION
---------------------
There are 3 groups of distinct atoms

 Group   1 Type Cr  : 17s13p7d2f1g contracted to 6s6p4d2f1g pattern {842111/631111/4111/11/1}
 Group   2 Type O   : 12s7p3d1f contracted to 6s4p3d1f pattern {621111/4111/111/1}
 Group   3 Type C   : 12s6p3d1f contracted to 6s3p3d1f pattern {621111/411/111/1}

Atom   0Cr   basis set group =>   1
Atom   1O    basis set group =>   2
Atom   2C    basis set group =>   3
Atom   3C    basis set group =>   3
Atom   4O    basis set group =>   2
Atom   5C    basis set group =>   3
Atom   6O    basis set group =>   2
Atom   7C    basis set group =>   3
Atom   8O    basis set group =>   2
Atom   9C    basis set group =>   3
Atom  10O    basis set group =>   2
----------------------------------
AUXILIARY/JK BASIS SET INFORMATION
----------------------------------
There are 3 groups of distinct atoms

 Group   1 Type Cr  : 19s14p12d10f7g3h1i contracted to 16s13p11d9f5g3h1i pattern {4111111111111111/2111111111111/21111111111/211111111/31111/111/1}
 Group   2 Type O   : 14s10p6d2f1g contracted to 10s8p4d2f1g pattern {5111111111/31111111/3111/11/1}
 Group   3 Type C   : 14s10p6d2f1g contracted to 10s8p5d1f1g pattern {5111111111/31111111/21111/2/1}

Atom   0Cr   basis set group =>   1
Atom   1O    basis set group =>   2
Atom   2C    basis set group =>   3
Atom   3C    basis set group =>   3
Atom   4O    basis set group =>   2
Atom   5C    basis set group =>   3
Atom   6O    basis set group =>   2
Atom   7C    basis set group =>   3
Atom   8O    basis set group =>   2
Atom   9C    basis set group =>   3
Atom  10O    basis set group =>   2


           ************************************************************
           *        Program running with 24 parallel MPI-processes    *
           *              working on a common directory               *
           ************************************************************
------------------------------------------------------------------------------
                           ORCA GTO INTEGRAL CALCULATION
------------------------------------------------------------------------------

                         BASIS SET STATISTICS AND STARTUP INFO

 # of primitive gaussian shells          ...  265
 # of primitive gaussian functions       ...  649
 # of contracted shells                  ...  154
 # of contracted basis functions         ...  452
 Highest angular momentum                ...    4
 Maximum contraction depth               ...    8
 Integral package used                   ... LIBINT
 Integral threshhold            Thresh   ...  1.000e-10
 Primitive cut-off              TCut     ...  1.000e-11


------------------------------ INTEGRAL EVALUATION ----------------------------


 * One electron integrals 
 Pre-screening matrix                    ... done
 Shell pair data                         ... done (   0.003 sec)



           ************************************************************
           *        Program running with 24 parallel MPI-processes    *
           *              working on a common directory               *
           ************************************************************
-------------------------------------------------------------------------------
                                 ORCA SCF
-------------------------------------------------------------------------------

------------
SCF SETTINGS
------------
Hamiltonian:
 Density Functional     Method          .... DFT(GTOs)
 Exchange Functional    Exchange        .... TPSS
 Correlation Functional Correlation     .... TPSS
 LDA part of GGA corr.  LDAOpt          .... PW91-LDA
 Gradients option       PostSCFGGA      .... off
 Hybrid DFT is turned on
   Fraction HF Exchange ScalHFX         ....  0.100000
   Scaling of DF-GGA-X  ScalDFX         ....  0.900000
   Scaling of DF-GGA-C  ScalDFC         ....  1.000000
   Scaling of DF-LDA-C  ScalLDAC        ....  1.000000
   Perturbative correction              ....  0.000000
   Density functional embedding theory  .... OFF
   NL short-range parameter             ....  5.200000


General Settings:
 Integral files         IntName         .... MOR07_ed01
 Hartree-Fock type      HFTyp           .... RHF
 Total Charge           Charge          ....    0
 Multiplicity           Mult            ....    1
 Number of Electrons    NEL             ....   94
 Basis Dimension        Dim             ....  452
 Nuclear Repulsion      ENuc            ....    753.7684398673 Eh

Convergence Acceleration:
 DIIS                   CNVDIIS         .... on
   Start iteration      DIISMaxIt       ....    12
   Startup error        DIISStart       ....  0.200000
   # of expansion vecs  DIISMaxEq       ....     5
   Bias factor          DIISBfac        ....   1.050
   Max. coefficient     DIISMaxC        ....  10.000
 Newton-Raphson         CNVNR           .... off
 SOSCF                  CNVSOSCF        .... off
 Level Shifting         CNVShift        .... on
   Level shift para.    LevelShift      ....    0.2500
   Turn off err/grad.   ShiftErr        ....    0.0010
 Zerner damping         CNVZerner       .... off
 Static damping         CNVDamp         .... on
   Fraction old density DampFac         ....    0.7000
   Max. Damping (<1)    DampMax         ....    0.9800
   Min. Damping (>=0)   DampMin         ....    0.0000
   Turn off err/grad.   DampErr         ....    0.1000
 Fernandez-Rico         CNVRico         .... off

SCF Procedure:
 Maximum # iterations   MaxIter         ....   125
 SCF integral mode      SCFMode         .... Direct
   Integral package                     .... LIBINT
 Reset frequency        DirectResetFreq ....    20
 Integral Threshold     Thresh          ....  1.000e-10 Eh
 Primitive CutOff       TCut            ....  1.000e-11 Eh

Convergence Tolerance:
 Convergence Check Mode ConvCheckMode   .... Total+1el-Energy
 Convergence forced     ConvForced      .... 0
 Energy Change          TolE            ....  1.000e-06 Eh
 1-El. energy change                    ....  1.000e-03 Eh
 DIIS Error             TolErr          ....  1.000e-06


Diagonalization of the overlap matrix:
Smallest eigenvalue                        ... 1.041e-05
Time for diagonalization                   ...    0.027 sec
Threshold for overlap eigenvalues          ... 1.000e-08
Number of eigenvalues below threshold      ... 0
Time for construction of square roots      ...    0.026 sec
Total time needed                          ...    0.054 sec

-------------------
DFT GRID GENERATION
-------------------

General Integration Accuracy     IntAcc      ...  4.670
Radial Grid Type                 RadialGrid  ... Gauss-Chebyshev
Angular Grid (max. acc.)         AngularGrid ... Lebedev-302
Angular grid pruning method      GridPruning ... 3 (G Style)
Weight generation scheme         WeightScheme... Becke
Basis function cutoff            BFCut       ...    1.0000e-10
Integration weight cutoff        WCut        ...    1.0000e-14
Grids for H and He will be reduced by one unit

# of grid points (after initial pruning)     ...  71784 (   0.0 sec)
# of grid points (after weights+screening)   ...  67810 (   0.0 sec)
nearest neighbour list constructed           ...    0.0 sec
Grid point re-assignment to atoms done       ...    0.0 sec
Grid point division into batches done        ...    0.3 sec
Reduced shell lists constructed in    0.4 sec

Total number of grid points                  ...    67810
Total number of batches                      ...     1063
Average number of points per batch           ...       63
Average number of grid points per atom       ...     6165
Average number of shells per batch           ...   110.87 (71.99%)
Average number of basis functions per batch  ...   340.48 (75.33%)
Average number of large shells per batch     ...    94.52 (85.25%)
Average number of large basis fcns per batch ...   288.09 (84.61%)
Maximum spatial batch extension              ...   4.97,  3.91, 18.21 au
Average spatial batch extension              ...   0.07,  0.07,  0.08 au

Time for grid setup =    0.428 sec

------------------------------
INITIAL GUESS: MODEL POTENTIAL
------------------------------
Loading Hartree-Fock densities                     ... done
Calculating cut-offs                               ... done
Setting up the integral package                    ... done
Initializing the effective Hamiltonian             ... done
Starting the Coulomb interaction                   ... done (   0.0 sec)
Reading the grid                                   ... done
Mapping shells                                     ... done
Starting the XC term evaluation                    ... done (   0.1 sec)
  promolecular density results
     # of electrons  =     93.999955849
     EX              =   -113.433179417
     EC              =     -3.367723000
     EX+EC           =   -116.800902417
Transforming the Hamiltonian                       ... done (   0.0 sec)
Diagonalizing the Hamiltonian                      ... done (   0.0 sec)
Back transforming the eigenvectors                 ... done (   0.0 sec)
Now organizing SCF variables                       ... done
                      ------------------
                      INITIAL GUESS DONE (   0.7 sec)
                      ------------------
--------------
SCF ITERATIONS
--------------
ITER       Energy         Delta-E        Max-DP      RMS-DP      [F,P]     Damp
               ***  Starting incremental Fock matrix formation  ***
  0  -1611.3307059853   0.000000000000 0.16261692  0.00076776  0.1715230 0.7000
  1  -1611.4043816781  -0.073675692774 0.08369894  0.00049483  0.0710571 0.7000
                               ***Turning on DIIS***
  2  -1611.4296246384  -0.025242960290 0.08603480  0.00093712  0.0330925 0.0000
  3  -1611.4790031425  -0.049378504098 0.06043643  0.00037237  0.0503808 0.0000
  4  -1611.4812885683  -0.002285425847 0.04997367  0.00019436  0.0591794 0.0000
  5  -1611.4880627523  -0.006774183980 0.00723313  0.00006398  0.0103086 0.0000
  6  -1611.4885199961  -0.000457243819 0.00290158  0.00002678  0.0052963 0.0000
  7  -1611.4885641896  -0.000044193482 0.00225910  0.00001203  0.0020807 0.0000
  8  -1611.4885780066  -0.000013817047 0.00139477  0.00000598  0.0016763 0.0000
  9  -1611.4885821631  -0.000004156444 0.00168507  0.00000867  0.0008602 0.0000
 10  -1611.4885811175   0.000001045538 0.00044734  0.00000252  0.0012063 0.0000
 11  -1611.4885830221  -0.000001904573 0.00194838  0.00001048  0.0005522 0.0000
 12  -1611.4885834018  -0.000000379681 0.00102439  0.00000609  0.0002724 0.0000
 13  -1611.4885835104  -0.000000108631 0.00065569  0.00000354  0.0001126 0.0000
                 **** Energy Check signals convergence ****

               *****************************************************
               *                     SUCCESS                       *
               *           SCF CONVERGED AFTER  14 CYCLES          *
               *****************************************************


----------------
TOTAL SCF ENERGY
----------------

Total Energy       :        -1611.48858352 Eh          -43850.83369 eV

Components:
Nuclear Repulsion  :          753.76843987 Eh           20511.08201 eV
Electronic Energy  :        -2365.25702338 Eh          -64361.91570 eV
One Electron Energy:        -3709.92598500 Eh         -100952.21836 eV
Two Electron Energy:         1344.66896161 Eh           36590.30266 eV

Virial components:
Potential Energy   :        -3218.93497100 Eh          -87591.67364 eV
Kinetic Energy     :         1607.44638748 Eh           43740.83994 eV
Virial Ratio       :            2.00251467


DFT components:
N(Alpha)           :       46.999972292613 electrons
N(Beta)            :       46.999972292613 electrons
N(Total)           :       93.999944585226 electrons
E(X)               :     -103.602970243209 Eh       
E(C)               :       -3.423813556915 Eh       
E(XC)              :     -107.026783800124 Eh       
DFET-embed. en.    :        0.000000000000 Eh       

---------------
SCF CONVERGENCE
---------------

  Last Energy change         ...   -7.0158e-09  Tolerance :   1.0000e-06
  Last MAX-Density change    ...    9.6173e-04  Tolerance :   1.0000e-05
  Last RMS-Density change    ...    5.0147e-06  Tolerance :   1.0000e-06
  Last DIIS Error            ...    4.4680e-05  Tolerance :   1.0000e-06

             **** THE GBW FILE WAS UPDATED (MOR07_ed01.gbw) ****
             **** DENSITY FILE WAS UPDATED (MOR07_ed01.scfp) ****
             **** ENERGY FILE WAS UPDATED (MOR07_ed01.en.tmp) ****
             **** THE GBW FILE WAS UPDATED (MOR07_ed01.gbw) ****
             **** DENSITY FILE WAS UPDATED (MOR07_ed01.scfp) ****
----------------
ORBITAL ENERGIES
----------------

  NO   OCC          E(Eh)            E(eV) 
   0   2.0000    -215.555817     -5865.5720 
   1   2.0000     -24.615581      -669.8240 
   2   2.0000     -20.883157      -568.2596 
   3   2.0000     -20.883156      -568.2596 
   4   2.0000     -20.882741      -568.2483 
   5   2.0000     -19.147861      -521.0398 
   6   2.0000     -19.147851      -521.0395 
   7   2.0000     -19.147850      -521.0395 
   8   2.0000     -19.147846      -521.0394 
   9   2.0000     -19.123422      -520.3748 
  10   2.0000     -10.239372      -278.6275 
  11   2.0000     -10.239367      -278.6273 
  12   2.0000     -10.239364      -278.6273 
  13   2.0000     -10.239364      -278.6272 
  14   2.0000     -10.224195      -278.2145 
  15   2.0000      -2.857337       -77.7521 
  16   2.0000      -1.809276       -49.2329 
  17   2.0000      -1.808407       -49.2093 
  18   2.0000      -1.808405       -49.2092 
  19   2.0000      -1.123424       -30.5699 
  20   2.0000      -1.122849       -30.5543 
  21   2.0000      -1.122843       -30.5541 
  22   2.0000      -1.122444       -30.5433 
  23   2.0000      -1.099137       -29.9090 
  24   2.0000      -0.596541       -16.2327 
  25   2.0000      -0.559497       -15.2247 
  26   2.0000      -0.559492       -15.2246 
  27   2.0000      -0.556238       -15.1360 
  28   2.0000      -0.543714       -14.7952 
  29   2.0000      -0.481561       -13.1039 
  30   2.0000      -0.467091       -12.7102 
  31   2.0000      -0.462049       -12.5730 
  32   2.0000      -0.462046       -12.5729 
  33   2.0000      -0.458514       -12.4768 
  34   2.0000      -0.455625       -12.3982 
  35   2.0000      -0.455622       -12.3981 
  36   2.0000      -0.448249       -12.1975 
  37   2.0000      -0.441320       -12.0089 
  38   2.0000      -0.436633       -11.8814 
  39   2.0000      -0.431953       -11.7540 
  40   2.0000      -0.431952       -11.7540 
  41   2.0000      -0.413235       -11.2447 
  42   2.0000      -0.402228       -10.9452 
  43   2.0000      -0.402220       -10.9450 
  44   2.0000      -0.247019        -6.7217 
  45   2.0000      -0.239601        -6.5199 
  46   2.0000      -0.239597        -6.5198 
  47   0.0000      -0.143848        -3.9143 
  48   0.0000      -0.064905        -1.7662 
  49   0.0000      -0.064897        -1.7659 
  50   0.0000      -0.054361        -1.4792 
  51   0.0000      -0.029237        -0.7956 
  52   0.0000      -0.028142        -0.7658 
  53   0.0000      -0.028132        -0.7655 
  54   0.0000      -0.018403        -0.5008 
  55   0.0000      -0.013551        -0.3688 
  56   0.0000      -0.013529        -0.3682 
  57   0.0000      -0.004265        -0.1161 
  58   0.0000      -0.002158        -0.0587 
  59   0.0000      -0.000146        -0.0040 
  60   0.0000       0.015363         0.4181 
  61   0.0000       0.015366         0.4181 
  62   0.0000       0.017446         0.4747 
  63   0.0000       0.046771         1.2727 
  64   0.0000       0.053830         1.4648 
  65   0.0000       0.056828         1.5464 
  66   0.0000       0.060157         1.6370 
  67   0.0000       0.060159         1.6370 
  68   0.0000       0.080539         2.1916 
  69   0.0000       0.080549         2.1918 
  70   0.0000       0.087279         2.3750 
  71   0.0000       0.096613         2.6290 
  72   0.0000       0.097348         2.6490 
  73   0.0000       0.102018         2.7761 
  74   0.0000       0.102022         2.7762 
  75   0.0000       0.109718         2.9856 
  76   0.0000       0.117977         3.2103 
  77   0.0000       0.117992         3.2107 
  78   0.0000       0.136587         3.7167 
  79   0.0000       0.138154         3.7593 
  80   0.0000       0.142119         3.8672 
  81   0.0000       0.145549         3.9606 
  82   0.0000       0.150180         4.0866 
  83   0.0000       0.150188         4.0868 
  84   0.0000       0.166224         4.5232 
  85   0.0000       0.176129         4.7927 
  86   0.0000       0.176152         4.7933 
  87   0.0000       0.192093         5.2271 
  88   0.0000       0.199807         5.4370 
  89   0.0000       0.218535         5.9467 
  90   0.0000       0.233469         6.3530 
  91   0.0000       0.233497         6.3538 
  92   0.0000       0.242356         6.5948 
  93   0.0000       0.248016         6.7489 
  94   0.0000       0.248032         6.7493 
  95   0.0000       0.260509         7.0888 
  96   0.0000       0.261929         7.1275 
  97   0.0000       0.273361         7.4385 
  98   0.0000       0.275728         7.5029 
  99   0.0000       0.280479         7.6322 
 100   0.0000       0.282392         7.6843 
 101   0.0000       0.282406         7.6847 
 102   0.0000       0.293813         7.9951 
 103   0.0000       0.293848         7.9960 
 104   0.0000       0.295947         8.0531 
 105   0.0000       0.319463         8.6930 
 106   0.0000       0.319468         8.6932 
 107   0.0000       0.327361         8.9079 
 108   0.0000       0.337568         9.1857 
 109   0.0000       0.349191         9.5020 
 110   0.0000       0.349215         9.5026 
 111   0.0000       0.354221         9.6389 
 112   0.0000       0.358093         9.7442 
 113   0.0000       0.364648         9.9226 
 114   0.0000       0.364656         9.9228 
 115   0.0000       0.365576         9.9478 
 116   0.0000       0.371135        10.0991 
 117   0.0000       0.371163        10.0998 
 118   0.0000       0.372239        10.1291 
 119   0.0000       0.389976        10.6118 
 120   0.0000       0.405070        11.0225 
 121   0.0000       0.414431        11.2773 
 122   0.0000       0.447117        12.1667 
 123   0.0000       0.447126        12.1669 
 124   0.0000       0.450311        12.2536 
 125   0.0000       0.471882        12.8406 
 126   0.0000       0.497719        13.5436 
 127   0.0000       0.498638        13.5686 
 128   0.0000       0.498643        13.5688 
 129   0.0000       0.504725        13.7343 
 130   0.0000       0.507379        13.8065 
 131   0.0000       0.507393        13.8069 
 132   0.0000       0.508262        13.8305 
 133   0.0000       0.517198        14.0737 
 134   0.0000       0.522247        14.2111 
 135   0.0000       0.522260        14.2114 
 136   0.0000       0.535163        14.5625 
 137   0.0000       0.535680        14.5766 
 138   0.0000       0.539679        14.6854 
 139   0.0000       0.543088        14.7782 
 140   0.0000       0.543133        14.7794 
 141   0.0000       0.556749        15.1499 
 142   0.0000       0.556776        15.1507 
 143   0.0000       0.563137        15.3237 
 144   0.0000       0.573146        15.5961 
 145   0.0000       0.573200        15.5976 
 146   0.0000       0.582011        15.8373 
 147   0.0000       0.589016        16.0279 
 148   0.0000       0.600050        16.3282 
 149   0.0000       0.600107        16.3297 
 150   0.0000       0.607578        16.5330 
 151   0.0000       0.613700        16.6996 
 152   0.0000       0.640555        17.4304 
 153   0.0000       0.657461        17.8904 
 154   0.0000       0.663911        18.0659 
 155   0.0000       0.671813        18.2810 
 156   0.0000       0.671860        18.2822 
 157   0.0000       0.675821        18.3900 
 158   0.0000       0.693533        18.8720 
 159   0.0000       0.693546        18.8723 
 160   0.0000       0.693564        18.8728 
 161   0.0000       0.695146        18.9159 
 162   0.0000       0.717073        19.5125 
 163   0.0000       0.722267        19.6539 
 164   0.0000       0.723072        19.6758 
 165   0.0000       0.723097        19.6765 
 166   0.0000       0.729010        19.8374 
 167   0.0000       0.738233        20.0883 
 168   0.0000       0.747580        20.3427 
 169   0.0000       0.747610        20.3435 
 170   0.0000       0.761308        20.7162 
 171   0.0000       0.773973        21.0609 
 172   0.0000       0.783347        21.3160 
 173   0.0000       0.788587        21.4585 
 174   0.0000       0.788598        21.4589 
 175   0.0000       0.826030        22.4774 
 176   0.0000       0.828993        22.5581 
 177   0.0000       0.840335        22.8667 
 178   0.0000       0.840346        22.8670 
 179   0.0000       0.858879        23.3713 
 180   0.0000       0.858965        23.3736 
 181   0.0000       0.858983        23.3741 
 182   0.0000       0.873275        23.7630 
 183   0.0000       0.882084        24.0027 
 184   0.0000       0.886357        24.1190 
 185   0.0000       0.895711        24.3735 
 186   0.0000       0.899531        24.4775 
 187   0.0000       0.899546        24.4779 
 188   0.0000       0.917489        24.9661 
 189   0.0000       0.921773        25.0827 
 190   0.0000       0.921801        25.0835 
 191   0.0000       0.929830        25.3020 
 192   0.0000       0.962293        26.1853 
 193   0.0000       0.974868        26.5275 
 194   0.0000       0.974913        26.5287 
 195   0.0000       0.979997        26.6671 
 196   0.0000       0.983564        26.7641 
 197   0.0000       0.983584        26.7647 
 198   0.0000       0.999004        27.1843 
 199   0.0000       1.017902        27.6985 
 200   0.0000       1.023151        27.8414 
 201   0.0000       1.023163        27.8417 
 202   0.0000       1.034612        28.1532 
 203   0.0000       1.098761        29.8988 
 204   0.0000       1.098787        29.8995 
 205   0.0000       1.104706        30.0606 
 206   0.0000       1.187385        32.3104 
 207   0.0000       1.205960        32.8158 
 208   0.0000       1.221879        33.2490 
 209   0.0000       1.224732        33.3267 
 210   0.0000       1.242956        33.8226 
 211   0.0000       1.242975        33.8231 
 212   0.0000       1.280509        34.8444 
 213   0.0000       1.280572        34.8461 
 214   0.0000       1.298325        35.3292 
 215   0.0000       1.324354        36.0375 
 216   0.0000       1.336072        36.3564 
 217   0.0000       1.363912        37.1139 
 218   0.0000       1.363936        37.1146 
 219   0.0000       1.364095        37.1189 
 220   0.0000       1.529609        41.6228 
 221   0.0000       1.587092        43.1870 
 222   0.0000       1.587140        43.1883 
 223   0.0000       1.587645        43.2020 
 224   0.0000       1.612714        43.8842 
 225   0.0000       1.667181        45.3663 
 226   0.0000       1.667209        45.3671 
 227   0.0000       1.667335        45.3705 
 228   0.0000       1.688138        45.9366 
 229   0.0000       1.702938        46.3393 
 230   0.0000       1.702975        46.3403 
 231   0.0000       1.728230        47.0275 
 232   0.0000       1.728251        47.0281 
 233   0.0000       1.731938        47.1284 
 234   0.0000       1.745863        47.5074 
 235   0.0000       1.750265        47.6271 
 236   0.0000       1.767735        48.1025 
 237   0.0000       1.767788        48.1040 
 238   0.0000       1.775491        48.3136 
 239   0.0000       1.779214        48.4149 
 240   0.0000       1.790763        48.7291 
 241   0.0000       1.790803        48.7302 
 242   0.0000       1.814200        49.3669 
 243   0.0000       1.825780        49.6820 
 244   0.0000       1.840439        50.0809 
 245   0.0000       1.882246        51.2185 
 246   0.0000       1.882541        51.2266 
 247   0.0000       1.891698        51.4757 
 248   0.0000       1.891725        51.4765 
 249   0.0000       1.898386        51.6577 
 250   0.0000       1.924948        52.3805 
 251   0.0000       1.969111        53.5822 
 252   0.0000       1.969122        53.5825 
 253   0.0000       1.987137        54.0727 
 254   0.0000       2.005303        54.5671 
 255   0.0000       2.033038        55.3218 
 256   0.0000       2.033133        55.3243 
 257   0.0000       2.084588        56.7245 
 258   0.0000       2.123218        57.7757 
 259   0.0000       2.123247        57.7765 
 260   0.0000       2.126177        57.8562 
 261   0.0000       2.164826        58.9079 
 262   0.0000       2.178155        59.2706 
 263   0.0000       2.267778        61.7094 
 264   0.0000       2.267857        61.7115 
 265   0.0000       2.268510        61.7293 
 266   0.0000       2.318043        63.0772 
 267   0.0000       2.318170        63.0806 
 268   0.0000       2.318201        63.0815 
 269   0.0000       2.321652        63.1753 
 270   0.0000       2.325036        63.2675 
 271   0.0000       2.325054        63.2679 
 272   0.0000       2.342211        63.7348 
 273   0.0000       2.366418        64.3935 
 274   0.0000       2.371673        64.5365 
 275   0.0000       2.371727        64.5380 
 276   0.0000       2.400883        65.3313 
 277   0.0000       2.400955        65.3333 
 278   0.0000       2.445989        66.5587 
 279   0.0000       2.457075        66.8604 
 280   0.0000       2.675261        72.7976 
 281   0.0000       2.675294        72.7985 
 282   0.0000       2.675928        72.8157 
 283   0.0000       2.679537        72.9139 
 284   0.0000       2.682917        73.0059 
 285   0.0000       2.683512        73.0221 
 286   0.0000       2.683559        73.0233 
 287   0.0000       2.701744        73.5182 
 288   0.0000       2.763265        75.1923 
 289   0.0000       2.763300        75.1932 
 290   0.0000       2.803472        76.2863 
 291   0.0000       2.803476        76.2865 
 292   0.0000       2.812219        76.5244 
 293   0.0000       2.840877        77.3042 
 294   0.0000       2.851648        77.5973 
 295   0.0000       2.874615        78.2223 
 296   0.0000       2.888822        78.6089 
 297   0.0000       2.898291        78.8665 
 298   0.0000       2.898359        78.8683 
 299   0.0000       2.903556        79.0098 
 300   0.0000       2.903572        79.0102 
 301   0.0000       2.913054        79.2682 
 302   0.0000       2.961309        80.5813 
 303   0.0000       2.969030        80.7914 
 304   0.0000       3.007537        81.8392 
 305   0.0000       3.007538        81.8393 
 306   0.0000       3.008291        81.8598 
 307   0.0000       3.030169        82.4551 
 308   0.0000       3.030185        82.4555 
 309   0.0000       3.049421        82.9790 
 310   0.0000       3.087686        84.0202 
 311   0.0000       3.096496        84.2599 
 312   0.0000       3.096515        84.2605 
 313   0.0000       3.097587        84.2896 
 314   0.0000       3.110682        84.6460 
 315   0.0000       3.129577        85.1601 
 316   0.0000       3.148963        85.6876 
 317   0.0000       3.154964        85.8509 
 318   0.0000       3.168076        86.2077 
 319   0.0000       3.219268        87.6007 
 320   0.0000       3.219279        87.6010 
 321   0.0000       3.227734        87.8311 
 322   0.0000       3.243370        88.2566 
 323   0.0000       3.243455        88.2589 
 324   0.0000       3.251959        88.4903 
 325   0.0000       3.292893        89.6042 
 326   0.0000       3.293218        89.6130 
 327   0.0000       3.293236        89.6135 
 328   0.0000       3.324141        90.4545 
 329   0.0000       3.369192        91.6804 
 330   0.0000       3.412252        92.8521 
 331   0.0000       3.412288        92.8531 
 332   0.0000       3.419015        93.0361 
 333   0.0000       3.422967        93.1437 
 334   0.0000       3.453091        93.9634 
 335   0.0000       3.453119        93.9641 
 336   0.0000       3.458115        94.1001 
 337   0.0000       3.485953        94.8576 
 338   0.0000       3.485969        94.8580 
 339   0.0000       3.498390        95.1960 
 340   0.0000       3.528534        96.0163 
 341   0.0000       3.561249        96.9065 
 342   0.0000       3.581616        97.4607 
 343   0.0000       3.586380        97.5904 
 344   0.0000       3.595167        97.8295 
 345   0.0000       3.595190        97.8301 
 346   0.0000       3.652967        99.4023 
 347   0.0000       3.652996        99.4031 
 348   0.0000       3.658155        99.5435 
 349   0.0000       3.872377       105.3727 
 350   0.0000       3.882314       105.6431 
 351   0.0000       3.882331       105.6436 
 352   0.0000       3.898467       106.0827 
 353   0.0000       3.933468       107.0351 
 354   0.0000       3.955891       107.6453 
 355   0.0000       3.955946       107.6468 
 356   0.0000       4.391163       119.4896 
 357   0.0000       4.427504       120.4785 
 358   0.0000       4.427533       120.4793 
 359   0.0000       4.484411       122.0270 
 360   0.0000       4.512035       122.7787 
 361   0.0000       4.527740       123.2061 
 362   0.0000       4.699452       127.8786 
 363   0.0000       4.738436       128.9394 
 364   0.0000       4.738484       128.9407 
 365   0.0000       4.818479       131.1175 
 366   0.0000       5.114635       139.1763 
 367   0.0000       5.114642       139.1765 
 368   0.0000       5.114739       139.1791 
 369   0.0000       5.115226       139.1924 
 370   0.0000       5.115270       139.1936 
 371   0.0000       5.116610       139.2300 
 372   0.0000       5.116661       139.2314 
 373   0.0000       5.116666       139.2316 
 374   0.0000       5.139199       139.8447 
 375   0.0000       5.139204       139.8448 
 376   0.0000       5.499645       149.6529 
 377   0.0000       5.499651       149.6531 
 378   0.0000       5.506892       149.8501 
 379   0.0000       5.508176       149.8851 
 380   0.0000       5.519162       150.1840 
 381   0.0000       5.521287       150.2418 
 382   0.0000       5.521294       150.2420 
 383   0.0000       5.525608       150.3594 
 384   0.0000       5.538626       150.7137 
 385   0.0000       5.574941       151.7019 
 386   0.0000       5.691458       154.8725 
 387   0.0000       5.691475       154.8729 
 388   0.0000       5.701304       155.1404 
 389   0.0000       5.723902       155.7553 
 390   0.0000       5.730802       155.9430 
 391   0.0000       5.730812       155.9433 
 392   0.0000       5.922048       161.1471 
 393   0.0000       6.093443       165.8110 
 394   0.0000       6.178498       168.1255 
 395   0.0000       6.185010       168.3027 
 396   0.0000       6.185021       168.3030 
 397   0.0000       6.230355       169.5366 
 398   0.0000       6.321743       172.0234 
 399   0.0000       6.360165       173.0689 
 400   0.0000       6.387533       173.8136 
 401   0.0000       6.387558       173.8143 
 402   0.0000       6.394275       173.9971 
 403   0.0000       6.401320       174.1888 
 404   0.0000       6.401334       174.1892 
 405   0.0000       6.423270       174.7861 
 406   0.0000       6.423285       174.7865 
 407   0.0000       6.424321       174.8147 
 408   0.0000       6.426943       174.8860 
 409   0.0000       6.437105       175.1625 
 410   0.0000       6.438377       175.1971 
 411   0.0000       6.449556       175.5014 
 412   0.0000       6.454140       175.6261 
 413   0.0000       6.454157       175.6265 
 414   0.0000       6.469385       176.0409 
 415   0.0000       6.483844       176.4344 
 416   0.0000       6.623508       180.2348 
 417   0.0000       6.623521       180.2352 
 418   0.0000       6.624369       180.2582 
 419   0.0000       6.736158       183.3002 
 420   0.0000       6.765781       184.1063 
 421   0.0000       6.765800       184.1068 
 422   0.0000       6.784998       184.6292 
 423   0.0000       6.810952       185.3354 
 424   0.0000       6.841877       186.1770 
 425   0.0000       6.841886       186.1772 
 426   0.0000       6.899653       187.7491 
 427   0.0000       6.926225       188.4722 
 428   0.0000       6.927162       188.4977 
 429   0.0000       6.931651       188.6198 
 430   0.0000       6.931656       188.6200 
 431   0.0000       6.953476       189.2137 
 432   0.0000       6.990319       190.2163 
 433   0.0000       6.990347       190.2170 
 434   0.0000       7.010243       190.7584 
 435   0.0000       7.117648       193.6811 
 436   0.0000       7.117654       193.6812 
 437   0.0000       7.202379       195.9867 
 438   0.0000       7.234160       196.8515 
 439   0.0000       7.282096       198.1559 
 440   0.0000       7.360929       200.3011 
 441   0.0000       7.360961       200.3019 
 442   0.0000      23.200765       631.3249 
 443   0.0000      23.200917       631.3290 
 444   0.0000      23.434516       637.6856 
 445   0.0000      23.458268       638.3319 
 446   0.0000      23.654571       643.6736 
 447   0.0000      44.090975      1199.7764 
 448   0.0000      44.276422      1204.8227 
 449   0.0000      44.276440      1204.8232 
 450   0.0000      44.305321      1205.6091 
 451   0.0000      44.345163      1206.6932 

                    ********************************
                    * MULLIKEN POPULATION ANALYSIS *
                    ********************************

-----------------------
MULLIKEN ATOMIC CHARGES
-----------------------
   0 Cr:   -1.035212
   1 O :   -0.290884
   2 C :    0.501000
   3 C :    0.516578
   4 O :   -0.322230
   5 C :    0.501080
   6 O :   -0.290920
   7 C :    0.501137
   8 O :   -0.290878
   9 C :    0.501213
  10 O :   -0.290885
Sum of atomic charges:   -0.0000000

--------------------------------
MULLIKEN REDUCED ORBITAL CHARGES
--------------------------------
  0 Crs       :     7.169098  s :     7.169098
      pz      :     4.170216  p :    12.613610
      px      :     4.221701
      py      :     4.221692
      dz2     :     0.491989  d :     5.234570
      dxz     :     1.413003
      dyz     :     1.413006
      dx2y2   :     1.298620
      dxy     :     0.617952
      f0      :     0.003112  f :     0.017715
      f+1     :     0.002765
      f-1     :     0.002765
      f+2     :     0.000008
      f-2     :     0.000872
      f+3     :     0.004096
      f-3     :     0.004096
      g0      :     0.000048  g :     0.000219
      g+1     :     0.000011
      g-1     :     0.000011
      g+2     :     0.000004
      g-2     :     0.000041
      g+3     :     0.000009
      g-3     :     0.000009
      g+4     :     0.000068
      g-4     :     0.000019
  1 O s       :     3.987004  s :     3.987004
      pz      :     1.467923  p :     4.252409
      px      :     1.382527
      py      :     1.401959
      dz2     :     0.003230  d :     0.049707
      dxz     :     0.010625
      dyz     :     0.008544
      dx2y2   :     0.018230
      dxy     :     0.009077
      f0      :     0.000251  f :     0.001765
      f+1     :     0.000102
      f-1     :     0.000090
      f+2     :     0.000012
      f-2     :     0.000427
      f+3     :     0.000508
      f-3     :     0.000374
  2 C s       :     3.271268  s :     3.271268
      pz      :     0.637050  p :     2.105221
      px      :     0.744821
      py      :     0.723350
      dz2     :     0.004163  d :     0.106235
      dxz     :     0.026970
      dyz     :     0.022454
      dx2y2   :     0.051903
      dxy     :     0.000745
      f0      :     0.001999  f :     0.016276
      f+1     :     0.001263
      f-1     :     0.001083
      f+2     :     0.000251
      f-2     :     0.003405
      f+3     :     0.004464
      f-3     :     0.003812
  3 C s       :     3.160875  s :     3.160875
      pz      :     0.870224  p :     2.174184
      px      :     0.651977
      py      :     0.651983
      dz2     :     0.006091  d :     0.130775
      dxz     :     0.054712
      dyz     :     0.054712
      dx2y2   :     0.005071
      dxy     :     0.010189
      f0      :     0.005669  f :     0.017589
      f+1     :     0.005766
      f-1     :     0.005766
      f+2     :     0.000197
      f-2     :     0.000164
      f+3     :     0.000013
      f-3     :     0.000013
  4 O s       :     3.987017  s :     3.987017
      pz      :     1.292104  p :     4.287298
      px      :     1.497596
      py      :     1.497599
      dz2     :     0.009768  d :     0.046175
      dxz     :     0.018457
      dyz     :     0.018457
      dx2y2   :    -0.000108
      dxy     :    -0.000399
      f0      :     0.000376  f :     0.001739
      f+1     :     0.000681
      f-1     :     0.000681
      f+2     :     0.000001
      f-2     :     0.000000
      f+3     :     0.000000
      f-3     :     0.000000
  5 C s       :     3.271117  s :     3.271117
      pz      :     0.637084  p :     2.105270
      px      :     0.744948
      py      :     0.723237
      dz2     :     0.004165  d :     0.106256
      dxz     :     0.026989
      dyz     :     0.022448
      dx2y2   :     0.051900
      dxy     :     0.000755
      f0      :     0.001999  f :     0.016277
      f+1     :     0.001263
      f-1     :     0.001082
      f+2     :     0.000251
      f-2     :     0.003405
      f+3     :     0.004467
      f-3     :     0.003810
  6 O s       :     3.987013  s :     3.987013
      pz      :     1.467937  p :     4.252434
      px      :     1.382453
      py      :     1.402044
      dz2     :     0.003230  d :     0.049708
      dxz     :     0.010633
      dyz     :     0.008537
      dx2y2   :     0.018228
      dxy     :     0.009080
      f0      :     0.000251  f :     0.001764
      f+1     :     0.000102
      f-1     :     0.000090
      f+2     :     0.000012
      f-2     :     0.000427
      f+3     :     0.000508
      f-3     :     0.000374
  7 C s       :     3.271032  s :     3.271032
      pz      :     0.637118  p :     2.105283
      px      :     0.723368
      py      :     0.744797
      dz2     :     0.004169  d :     0.106270
      dxz     :     0.022461
      dyz     :     0.026974
      dx2y2   :     0.051905
      dxy     :     0.000761
      f0      :     0.001998  f :     0.016277
      f+1     :     0.001084
      f-1     :     0.001263
      f+2     :     0.000251
      f-2     :     0.003405
      f+3     :     0.003812
      f-3     :     0.004464
  8 O s       :     3.986980  s :     3.986980
      pz      :     1.467937  p :     4.252427
      px      :     1.401951
      py      :     1.382538
      dz2     :     0.003232  d :     0.049707
      dxz     :     0.008544
      dyz     :     0.010624
      dx2y2   :     0.018229
      dxy     :     0.009079
      f0      :     0.000251  f :     0.001765
      f+1     :     0.000090
      f-1     :     0.000103
      f+2     :     0.000012
      f-2     :     0.000427
      f+3     :     0.000374
      f-3     :     0.000508
  9 C s       :     3.271002  s :     3.271002
      pz      :     0.637086  p :     2.105261
      px      :     0.723251
      py      :     0.744924
      dz2     :     0.004166  d :     0.106248
      dxz     :     0.022448
      dyz     :     0.026985
      dx2y2   :     0.051892
      dxy     :     0.000757
      f0      :     0.001999  f :     0.016277
      f+1     :     0.001083
      f-1     :     0.001263
      f+2     :     0.000251
      f-2     :     0.003405
      f+3     :     0.003810
      f-3     :     0.004466
 10 O s       :     3.986994  s :     3.986994
      pz      :     1.467942  p :     4.252420
      px      :     1.402020
      py      :     1.382458
      dz2     :     0.003230  d :     0.049706
      dxz     :     0.008538
      dyz     :     0.010631
      dx2y2   :     0.018228
      dxy     :     0.009080
      f0      :     0.000251  f :     0.001765
      f+1     :     0.000090
      f-1     :     0.000103
      f+2     :     0.000012
      f-2     :     0.000427
      f+3     :     0.000374
      f-3     :     0.000508


                     *******************************
                     * LOEWDIN POPULATION ANALYSIS *
                     *******************************

----------------------
LOEWDIN ATOMIC CHARGES
----------------------
   0 Cr:   -0.205531
   1 O :    0.145486
   2 C :   -0.085823
   3 C :   -0.170864
   4 O :    0.137893
   5 C :   -0.085877
   6 O :    0.145491
   7 C :   -0.085881
   8 O :    0.145485
   9 C :   -0.085864
  10 O :    0.145484

-------------------------------
LOEWDIN REDUCED ORBITAL CHARGES
-------------------------------
  0 Crs       :     5.965380  s :     5.965380
      pz      :     4.124667  p :    12.752887
      px      :     4.314113
      py      :     4.314108
      dz2     :     0.674094  d :     5.398413
      dxz     :     1.298581
      dyz     :     1.298591
      dx2y2   :     1.185407
      dxy     :     0.941741
      f0      :     0.016712  f :     0.087733
      f+1     :     0.013467
      f-1     :     0.013466
      f+2     :     0.000044
      f-2     :     0.003006
      f+3     :     0.020517
      f-3     :     0.020521
      g0      :     0.000372  g :     0.001118
      g+1     :     0.000026
      g-1     :     0.000026
      g+2     :     0.000011
      g-2     :     0.000234
      g+3     :     0.000015
      g-3     :     0.000015
      g+4     :     0.000368
      g-4     :     0.000051
  1 O s       :     3.389242  s :     3.389242
      pz      :     1.330779  p :     4.265708
      px      :     1.481236
      py      :     1.453693
      dz2     :     0.026647  d :     0.193272
      dxz     :     0.024318
      dyz     :     0.019618
      dx2y2   :     0.040791
      dxy     :     0.081897
      f0      :     0.000577  f :     0.006292
      f+1     :     0.000714
      f-1     :     0.000592
      f+2     :     0.000027
      f-2     :     0.000972
      f+3     :     0.001604
      f-3     :     0.001808
  2 C s       :     2.920273  s :     2.920273
      pz      :     0.627767  p :     2.304609
      px      :     0.862273
      py      :     0.814568
      dz2     :     0.083689  d :     0.776048
      dxz     :     0.125892
      dyz     :     0.104268
      dx2y2   :     0.260729
      dxy     :     0.201470
      f0      :     0.010015  f :     0.084893
      f+1     :     0.007135
      f-1     :     0.006066
      f+2     :     0.000927
      f-2     :     0.016819
      f+3     :     0.023147
      f-3     :     0.020784
  3 C s       :     2.871021  s :     2.871021
      pz      :     1.045435  p :     2.316237
      px      :     0.635400
      py      :     0.635402
      dz2     :     0.274699  d :     0.897879
      dxz     :     0.284681
      dyz     :     0.284681
      dx2y2   :     0.017790
      dxy     :     0.036028
      f0      :     0.031186  f :     0.085726
      f+1     :     0.026751
      f-1     :     0.026751
      f+2     :     0.000573
      f-2     :     0.000387
      f+3     :     0.000039
      f-3     :     0.000039
  4 O s       :     3.380966  s :     3.380966
      pz      :     1.576877  p :     4.281251
      px      :     1.352186
      py      :     1.352187
      dz2     :     0.104687  d :     0.193597
      dxz     :     0.044376
      dyz     :     0.044377
      dx2y2   :     0.000044
      dxy     :     0.000113
      f0      :     0.003198  f :     0.006294
      f+1     :     0.001547
      f-1     :     0.001547
      f+2     :     0.000001
      f-2     :     0.000000
      f+3     :     0.000000
      f-3     :     0.000000
  5 C s       :     2.920227  s :     2.920227
      pz      :     0.627783  p :     2.304621
      px      :     0.862435
      py      :     0.814404
      dz2     :     0.083698  d :     0.776135
      dxz     :     0.125976
      dyz     :     0.104215
      dx2y2   :     0.260756
      dxy     :     0.201489
      f0      :     0.010015  f :     0.084893
      f+1     :     0.007139
      f-1     :     0.006062
      f+2     :     0.000930
      f-2     :     0.016816
      f+3     :     0.023156
      f-3     :     0.020775
  6 O s       :     3.389235  s :     3.389235
      pz      :     1.330790  p :     4.265710
      px      :     1.481323
      py      :     1.453597
      dz2     :     0.026646  d :     0.193272
      dxz     :     0.024336
      dyz     :     0.019603
      dx2y2   :     0.040800
      dxy     :     0.081888
      f0      :     0.000577  f :     0.006292
      f+1     :     0.000714
      f-1     :     0.000591
      f+2     :     0.000027
      f-2     :     0.000971
      f+3     :     0.001603
      f-3     :     0.001809
  7 C s       :     2.920236  s :     2.920236
      pz      :     0.627821  p :     2.304621
      px      :     0.814573
      py      :     0.862227
      dz2     :     0.083690  d :     0.776130
      dxz     :     0.104299
      dyz     :     0.125919
      dx2y2   :     0.260742
      dxy     :     0.201481
      f0      :     0.010012  f :     0.084894
      f+1     :     0.006069
      f-1     :     0.007138
      f+2     :     0.000931
      f-2     :     0.016818
      f+3     :     0.020783
      f-3     :     0.023143
  8 O s       :     3.389234  s :     3.389234
      pz      :     1.330817  p :     4.265715
      px      :     1.453692
      py      :     1.481206
      dz2     :     0.026641  d :     0.193274
      dxz     :     0.019630
      dyz     :     0.024328
      dx2y2   :     0.040787
      dxy     :     0.081887
      f0      :     0.000577  f :     0.006292
      f+1     :     0.000592
      f-1     :     0.000713
      f+2     :     0.000027
      f-2     :     0.000972
      f+3     :     0.001808
      f-3     :     0.001603
  9 C s       :     2.920249  s :     2.920249
      pz      :     0.627789  p :     2.304615
      px      :     0.814422
      py      :     0.862404
      dz2     :     0.083696  d :     0.776107
      dxz     :     0.104234
      dyz     :     0.125970
      dx2y2   :     0.260730
      dxy     :     0.201477
      f0      :     0.010014  f :     0.084893
      f+1     :     0.006064
      f-1     :     0.007139
      f+2     :     0.000931
      f-2     :     0.016817
      f+3     :     0.020775
      f-3     :     0.023154
 10 O s       :     3.389237  s :     3.389237
      pz      :     1.330800  p :     4.265714
      px      :     1.453608
      py      :     1.481305
      dz2     :     0.026645  d :     0.193273
      dxz     :     0.019608
      dyz     :     0.024337
      dx2y2   :     0.040796
      dxy     :     0.081887
      f0      :     0.000577  f :     0.006292
      f+1     :     0.000591
      f-1     :     0.000714
      f+2     :     0.000027
      f-2     :     0.000972
      f+3     :     0.001809
      f-3     :     0.001603


                      *****************************
                      * MAYER POPULATION ANALYSIS *
                      *****************************

  NA   - Mulliken gross atomic population
  ZA   - Total nuclear charge
  QA   - Mulliken gross atomic charge
  VA   - Mayer's total valence
  BVA  - Mayer's bonded valence
  FA   - Mayer's free valence

  ATOM       NA         ZA         QA         VA         BVA        FA
  0 Cr    25.0352    24.0000    -1.0352     6.2075     6.2075    -0.0000
  1 O      8.2909     8.0000    -0.2909     2.2619     2.2619    -0.0000
  2 C      5.4990     6.0000     0.5010     3.2332     3.2332     0.0000
  3 C      5.4834     6.0000     0.5166     3.3365     3.3365    -0.0000
  4 O      8.3222     8.0000    -0.3222     2.1347     2.1347    -0.0000
  5 C      5.4989     6.0000     0.5011     3.2332     3.2332    -0.0000
  6 O      8.2909     8.0000    -0.2909     2.2619     2.2619     0.0000
  7 C      5.4989     6.0000     0.5011     3.2331     3.2331    -0.0000
  8 O      8.2909     8.0000    -0.2909     2.2618     2.2618    -0.0000
  9 C      5.4988     6.0000     0.5012     3.2330     3.2330    -0.0000
 10 O      8.2909     8.0000    -0.2909     2.2618     2.2618     0.0000

  Mayer bond orders larger than 0.100000
B(  0-Cr,  1-O ) :   0.1094 B(  0-Cr,  2-C ) :   1.0357 B(  0-Cr,  3-C ) :   1.4375 
B(  0-Cr,  4-O ) :   0.1900 B(  0-Cr,  5-C ) :   1.0357 B(  0-Cr,  6-O ) :   0.1095 
B(  0-Cr,  7-C ) :   1.0355 B(  0-Cr,  8-O ) :   0.1094 B(  0-Cr,  9-C ) :   1.0354 
B(  0-Cr, 10-O ) :   0.1094 B(  1-O ,  2-C ) :   2.0917 B(  3-C ,  4-O ) :   1.9141 
B(  5-C ,  6-O ) :   2.0916 B(  7-C ,  8-O ) :   2.0916 B(  9-C , 10-O ) :   2.0917 


-------
TIMINGS
-------

Total SCF time: 0 days 0 hours 1 min 6 sec 

Total time                  ....      66.247 sec
Sum of individual times     ....      65.779 sec  ( 99.3%)

Fock matrix formation       ....      64.046 sec  ( 96.7%)
  XC integration            ....       3.184 sec  (  5.0% of F)
    Basis function eval.    ....       0.300 sec  (  9.4% of XC)
    Density eval.           ....       0.752 sec  ( 23.6% of XC)
    XC-Functional eval.     ....       0.083 sec  (  2.6% of XC)
    XC-Potential eval.      ....       1.382 sec  ( 43.4% of XC)
Diagonalization             ....       0.585 sec  (  0.9%)
Density matrix formation    ....       0.038 sec  (  0.1%)
Population analysis         ....       0.035 sec  (  0.1%)
Initial guess               ....       0.243 sec  (  0.4%)
Orbital Transformation      ....       0.000 sec  (  0.0%)
Orbital Orthonormalization  ....       0.000 sec  (  0.0%)
DIIS solution               ....       0.404 sec  (  0.6%)
Grid generation             ....       0.428 sec  (  0.6%)


-------------------------------------------------------------------------------
                          DFT DISPERSION CORRECTION                            
                                                                               
                              DFTD3 V3.1  Rev 1                                
                          USING Becke-Johnson damping                          
-------------------------------------------------------------------------------
The TPSSH functional is recognized
Active option DFTDOPT                   ...         4   

molecular C6(AA) [au] = 3700.705887 


            DFT-D V3
 parameters
 s6 scaling factor         :     1.0000 
 a1 scaling factor         :     0.4529 
 s8 scaling factor         :     2.2382 
 a2 scaling factor         :     4.6550 
 ad hoc parameters k1-k3   :    16.0000     1.3333    -4.0000 

 Edisp/kcal,au: -11.591523634742  -0.018472266758 
 E6   /kcal   :  -4.746815846 
 E8   /kcal   :  -6.844707789 
 % E8         :  59.049250167 

-------------------------   ----------------
Dispersion correction           -0.018472267
-------------------------   ----------------


-------------------------   --------------------
FINAL SINGLE POINT ENERGY     -1611.507055784192
-------------------------   --------------------


                            ***************************************
                            *     ORCA property calculations      *
                            ***************************************

                                    ---------------------
                                    Active property flags
                                    ---------------------
   (+) Dipole Moment


------------------------------------------------------------------------------
                       ORCA ELECTRIC PROPERTIES CALCULATION
------------------------------------------------------------------------------

Dipole Moment Calculation                       ... on
Quadrupole Moment Calculation                   ... off
Polarizability Calculation                      ... off
GBWName                                         ... MOR07_ed01.gbw
Electron density file                           ... MOR07_ed01.scfp
The origin for moment calculation is the CENTER OF MASS  = (-0.000002,  0.000002 -0.015990)

-------------
DIPOLE MOMENT
-------------
                                X             Y             Z
Electronic contribution:     -0.00030       0.00030      -2.40888
Nuclear contribution   :      0.00017      -0.00015       1.50310
                        -----------------------------------------
Total Dipole Moment    :     -0.00013       0.00015      -0.90578
                        -----------------------------------------
Magnitude (a.u.)       :      0.90578
Magnitude (Debye)      :      2.30231



--------------------
Rotational spectrum 
--------------------
 
Rotational constants in cm-1:     0.031146     0.031144     0.021766 
Rotational constants in MHz :   933.731625   933.679962   652.524637 

 Dipole components along the rotational axes: 
x,y,z [a.u.] :     0.000127     0.000151    -0.905781 
x,y,z [Debye]:     0.000324     0.000383    -2.302313 

 

Timings for individual modules:

Sum of individual times         ...       67.493 sec (=   1.125 min)
GTO integral calculation        ...        0.884 sec (=   0.015 min)   1.3 %
SCF iterations                  ...       66.610 sec (=   1.110 min)  98.7 %
                             ****ORCA TERMINATED NORMALLY****
TOTAL RUN TIME: 0 days 0 hours 1 minutes 8 seconds 25 msec
