
                                 *****************
                                 * O   R   C   A *
                                 *****************

           --- An Ab Initio, DFT and Semiempirical electronic structure package ---

                  #######################################################
                  #                        -***-                        #
                  #          Department of theory and spectroscopy      #
                  #               Directorship: Frank Neese             #
                  #        Max Planck Institute fuer Kohlenforschung    #
                  #                Kaiser Wilhelm Platz 1               #
                  #                 D-45470 Muelheim/Ruhr               #
                  #                      Germany                        #
                  #                                                     #
                  #                  All rights reserved                #
                  #                        -***-                        #
                  #######################################################


                         Program Version 4.2.0 -  RELEASE  -


 With contributions from (in alphabetic order):
   Daniel Aravena         : Magnetic Suceptibility
   Michael Atanasov       : Ab Initio Ligand Field Theory (pilot matlab implementation)
   Alexander A. Auer      : GIAO ZORA, VPT2
   Ute Becker             : Parallelization
   Giovanni Bistoni       : ED, misc. LED, open-shell LED, HFLED
   Martin Brehm           : Molecular dynamics
   Dmytro Bykov           : SCF Hessian
   Vijay G. Chilkuri      : MRCI spin determinant printing, contributions to CSF-ICE
   Dipayan Datta          : RHF DLPNO-CCSD density
   Achintya Kumar Dutta   : EOM-CC, STEOM-CC
   Dmitry Ganyushin       : Spin-Orbit,Spin-Spin,Magnetic field MRCI
   Miquel Garcia          : C-PCM Hessian, Gaussian charge scheme
   Yang Guo               : DLPNO-NEVPT2, CIM, IAO-localization
   Andreas Hansen         : Spin unrestricted coupled pair/coupled cluster methods
   Benjamin Helmich-Paris : CASSCF linear response (MC-RPA)
   Lee Huntington         : MR-EOM, pCC
   Robert Izsak           : Overlap fitted RIJCOSX, COSX-SCS-MP3, EOM
   Christian Kollmar      : KDIIS, OOCD, Brueckner-CCSD(T), CCSD density
   Simone Kossmann        : Meta GGA functionals, TD-DFT gradient, OOMP2, MP2 Hessian
   Martin Krupicka        : AUTO-CI
   Lucas Lang             : DCDCAS
   Dagmar Lenk            : GEPOL surface, SMD
   Dimitrios Liakos       : Extrapolation schemes; Compound Job, initial MDCI parallelization
   Dimitrios Manganas     : Further ROCIS development; embedding schemes
   Dimitrios Pantazis     : SARC Basis sets
   Taras Petrenko         : DFT Hessian,TD-DFT gradient, ASA, ECA, R-Raman, ABS, FL, XAS/XES, NRVS
   Peter Pinski           : DLPNO-MP2, DLPNO-MP2 Gradient
   Christoph Reimann      : Effective Core Potentials
   Marius Retegan         : Local ZFS, SOC
   Christoph Riplinger    : Optimizer, TS searches, QM/MM, DLPNO-CCSD(T), (RO)-DLPNO pert. Triples
   Tobias Risthaus        : Range-separated hybrids, TD-DFT gradient, RPA, STAB
   Michael Roemelt        : Original ROCIS implementation
   Masaaki Saitow         : Open-shell DLPNO-CCSD energy and density
   Barbara Sandhoefer     : DKH picture change effects
   Avijit Sen             : IP-ROCIS
   Kantharuban Sivalingam : CASSCF convergence, NEVPT2, FIC-MRCI
   Bernardo de Souza      : ESD, SOC TD-DFT
   Georgi Stoychev        : AutoAux, RI-MP2 NMR
   Willem Van den Heuvel  : Paramagnetic NMR
   Boris Wezisla          : Elementary symmetry handling
   Frank Wennmohs         : Technical directorship


 We gratefully acknowledge several colleagues who have allowed us to
 interface, adapt or use parts of their codes:
   Stefan Grimme, W. Hujo, H. Kruse,             : VdW corrections, initial TS optimization,
                  C. Bannwarth                     DFT functionals, gCP, sTDA/sTD-DF
   Ed Valeev, F. Pavosevic, A. Kumar             : LibInt (2-el integral package), F12 methods
   Garnet Chan, S. Sharma, J. Yang, R. Olivares  : DMRG
   Ulf Ekstrom                                   : XCFun DFT Library
   Mihaly Kallay                                 : mrcc  (arbitrary order and MRCC methods)
   Andreas Klamt, Michael Diedenhofen            : otool_cosmo (COSMO solvation model)
   Jiri Pittner, Ondrej Demel                    : Mk-CCSD
   Frank Weinhold                                : gennbo (NPA and NBO analysis)
   Christopher J. Cramer and Donald G. Truhlar   : smd solvation model
   Lars Goerigk                                  : TD-DFT with DH, B97 family of functionals
   V. Asgeirsson, H. Jonsson                     : NEB implementation
   FAccTs GmbH                                   : IRC, NEB, NEB-TS, Multilevel, MM, QM/MM, CI optimization
   S Lehtola, MJT Oliveira, MAL Marques          : LibXC Library


 Your calculation uses the libint2 library for the computation of 2-el integrals
 For citations please refer to: http://libint.valeyev.net

 Your ORCA version has been built with support for libXC version: 4.2.3
 For citations please refer to: https://tddft.org/programs/libxc/

 This ORCA versions uses:
   CBLAS   interface :  Fast vector & matrix operations
   LAPACKE interface :  Fast linear algebra routines
   SCALAPACK package :  Parallel linear algebra routines


Your calculation utilizes the atom-pairwise dispersion correction
with the Becke-Johnson damping scheme (D3BJ)
Cite in your paper:
S.Grimme, S.Ehrlich, L.Goerigk, J Comput Chem, (2011), 32, 1456–1465 
S.Grimme, J.Antony, S.Ehrlich and H.Krieg, J.Chem.Phys., 132, (2010), 154104 
   

----- Orbital basis set information -----
Your calculation utilizes the basis: def2-TZVPPD
   F. Weigend and R. Ahlrichs, Phys. Chem. Chem. Phys. 7, 3297 (2005).
   D. Rappoport and F. Furche, J. Chem. Phys. 133 134105 (2010).

----- AuxJK basis set information -----
Your calculation utilizes the auxiliary basis: def2/JK
   H-Ba, Hf-Rn: F. Weigend, J. Comput. Chem. 29, 167 (2008).

cite the ECPs for W  [Def2-ECP] as follows:
Ce-Yb(ecp-28): M. Dolg, H. Stoll, H.Preuss, J. Chem. Phys., 1989, 90, 1730-1734.
Y-Cd(ecp-28), Hf-Hg(ecp-46): D. Andrae,U. Haeussermann, M. Dolg, H. Stoll, H. Preuss, Theor. Chim. Acta, 1990, 77, 123-141.
In-Sb(ecp-28), Tl-Bi(ecp-46): B. Metz, H. Stoll, M. Dolg, J. Chem. Phys., 2000, 113, 2563-2569.
Te-Xe(ecp-28), Po-Rn(ecp-46): K. A. Peterson, D. Figgen, E. Goll, H. Stoll, M. Dolg, J. Chem. Phys., 2003, 119, 11113-11123.
Rb(ecp-28), Cs(ecp-46): T. Leininger, A. Nicklass, W. Kuechle, H. Stoll, M. Dolg, A. Bergner, Chem. Phys. Lett., 1996, 255, 274-280.
Sr(ecp-28), Ba(ecp-46): M. Kaupp, P. V. Schleyer, H. Stoll and H. Preuss, J. Chem. Phys., 1991, 94, 1360-1366.
La(ecp-46): M. Dolg, H. Stoll, A. Savin, H. Preuss, Theor. Chim. Acta, 1989, 75, 173-194.
Lu(ecp-28): X. Cao, M. Dolg, J. Chem. Phys., 2001, 115, 7348-7355.

ECP parameters for W  [Def2-ECP] have been obtained from:
TURBOMOLE (7.0.2)

================================================================================
                                        WARNINGS
                       Please study these warnings very carefully!
================================================================================


INFO   : the flag for use of LIBINT has been found!

================================================================================
                                       INPUT FILE
================================================================================
NAME = MOR09_ed07.in
|  1> #
|  2> # MOR09_ed07 TPSSh-D3BJ/Def2-TZVPPD
|  3> #
|  4> ! tpssh d3bj def2-tzvppd def2/jk grid4 nofinalgrid
|  5> 
|  6> *xyz 0 1
|  7> W        0.102077    0.091078   -0.092267 
|  8> C        0.117393   -1.847063   -0.698289 
|  9> O        0.106421   -2.944423   -1.101491 
| 10> C        0.053830    0.623127   -1.953542 
| 11> O        0.062184    0.954188   -3.084324 
| 12> C       -0.079789    2.065684    0.368043 
| 13> O       -0.241835    3.206144    0.563164 
| 14> P       -2.374272   -0.093775    0.152024 
| 15> C       -2.924700   -0.636961    1.860300 
| 16> H       -4.020662   -0.654132    1.869520 
| 17> C       -3.301587    1.526034   -0.042070 
| 18> H       -2.720709    2.174283    0.626552 
| 19> C       -3.158465   -1.412689   -0.926528 
| 20> H       -2.602719   -2.298136   -0.589541 
| 21> C        3.533012   -1.160075   -0.926747 
| 22> P        2.541683   -0.047968    0.198665 
| 23> H        3.436930   -0.493420    2.480788 
| 24> H        3.117150   -2.146572   -0.686664 
| 25> C        3.597094    1.476716    0.423185 
| 26> H        4.630625    1.133957    0.560412 
| 27> C       -3.162167    2.103519   -1.458162 
| 28> H       -3.455722    3.159421   -1.453162 
| 29> H       -3.815975    1.580772   -2.162650 
| 30> H       -2.136423    2.033109   -1.825887 
| 31> C       -4.764402    1.570333    0.422322 
| 32> H       -5.415801    0.983387   -0.229568 
| 33> H       -5.116762    2.608723    0.390691 
| 34> H       -4.893747    1.210688    1.447022 
| 35> C       -4.655036   -1.682881   -0.716884 
| 36> H       -4.925909   -1.790522    0.337405 
| 37> H       -4.929224   -2.613829   -1.227923 
| 38> H       -5.265149   -0.883893   -1.147063 
| 39> C       -2.846467   -1.236186   -2.419424 
| 40> H       -3.119249   -2.151958   -2.956758 
| 41> H       -1.787229   -1.039228   -2.589757 
| 42> H       -3.419310   -0.412085   -2.852792 
| 43> C       -2.418211   -2.050160    2.179041 
| 44> H       -2.879973   -2.804800    1.536232 
| 45> H       -2.649558   -2.306479    3.219697 
| 46> H       -1.332968   -2.120913    2.045449 
| 47> C       -2.447309    0.375917    2.910548 
| 48> H       -1.357998    0.484909    2.881372 
| 49> H       -2.729985    0.039964    3.915237 
| 50> H       -2.881675    1.366975    2.750689 
| 51> C        5.039293   -1.175311   -0.637409 
| 52> H        5.257150   -1.324613    0.425881 
| 53> H        5.510398   -0.237807   -0.951034 
| 54> H        5.518847   -1.987312   -1.196567 
| 55> C        3.236493   -0.904929   -2.411567 
| 56> H        3.640990    0.053418   -2.749243 
| 57> C        1.267139   -0.464900    2.531536 
| 58> H        2.161630   -0.902783   -2.603826 
| 59> H        3.697388   -1.694627   -3.016368 
| 60> C        2.697601   -2.411104    1.824913 
| 61> H        0.411078   -0.840608    1.910182 
| 62> H        1.101298   -0.955345    3.499474 
| 63> H        1.182937    0.613220    2.672323 
| 64> C        2.601288   -0.882352    1.885247 
| 65> H        2.586441   -2.826896    2.833616 
| 66> H        3.659680   -2.747270    1.429848 
| 67> H        1.903309   -2.831808    1.199333 
| 68> C        3.181998    2.276906    1.664687 
| 69> H        2.135318    2.587016    1.600131 
| 70> H        3.793597    3.184158    1.733044 
| 71> H        3.324478    1.710719    2.590306 
| 72> C        3.508784    2.354763   -0.833649 
| 73> H        2.465553    2.610163   -1.046808 
| 74> H        3.919372    1.854332   -1.714343 
| 75> H        4.068793    3.284623   -0.679973 
| 76> *
| 77> 
| 78> %maxcore 5000
| 79> 
| 80> %pal
| 81> nprocs = 24
| 82> end
| 83> 
| 84> 
| 85>                          ****END OF INPUT****
================================================================================

                       ****************************
                       * Single Point Calculation *
                       ****************************

---------------------------------
CARTESIAN COORDINATES (ANGSTROEM)
---------------------------------
  W      0.102077    0.091078   -0.092267
  C      0.117393   -1.847063   -0.698289
  O      0.106421   -2.944423   -1.101491
  C      0.053830    0.623127   -1.953542
  O      0.062184    0.954188   -3.084324
  C     -0.079789    2.065684    0.368043
  O     -0.241835    3.206144    0.563164
  P     -2.374272   -0.093775    0.152024
  C     -2.924700   -0.636961    1.860300
  H     -4.020662   -0.654132    1.869520
  C     -3.301587    1.526034   -0.042070
  H     -2.720709    2.174283    0.626552
  C     -3.158465   -1.412689   -0.926528
  H     -2.602719   -2.298136   -0.589541
  C      3.533012   -1.160075   -0.926747
  P      2.541683   -0.047968    0.198665
  H      3.436930   -0.493420    2.480788
  H      3.117150   -2.146572   -0.686664
  C      3.597094    1.476716    0.423185
  H      4.630625    1.133957    0.560412
  C     -3.162167    2.103519   -1.458162
  H     -3.455722    3.159421   -1.453162
  H     -3.815975    1.580772   -2.162650
  H     -2.136423    2.033109   -1.825887
  C     -4.764402    1.570333    0.422322
  H     -5.415801    0.983387   -0.229568
  H     -5.116762    2.608723    0.390691
  H     -4.893747    1.210688    1.447022
  C     -4.655036   -1.682881   -0.716884
  H     -4.925909   -1.790522    0.337405
  H     -4.929224   -2.613829   -1.227923
  H     -5.265149   -0.883893   -1.147063
  C     -2.846467   -1.236186   -2.419424
  H     -3.119249   -2.151958   -2.956758
  H     -1.787229   -1.039228   -2.589757
  H     -3.419310   -0.412085   -2.852792
  C     -2.418211   -2.050160    2.179041
  H     -2.879973   -2.804800    1.536232
  H     -2.649558   -2.306479    3.219697
  H     -1.332968   -2.120913    2.045449
  C     -2.447309    0.375917    2.910548
  H     -1.357998    0.484909    2.881372
  H     -2.729985    0.039964    3.915237
  H     -2.881675    1.366975    2.750689
  C      5.039293   -1.175311   -0.637409
  H      5.257150   -1.324613    0.425881
  H      5.510398   -0.237807   -0.951034
  H      5.518847   -1.987312   -1.196567
  C      3.236493   -0.904929   -2.411567
  H      3.640990    0.053418   -2.749243
  C      1.267139   -0.464900    2.531536
  H      2.161630   -0.902783   -2.603826
  H      3.697388   -1.694627   -3.016368
  C      2.697601   -2.411104    1.824913
  H      0.411078   -0.840608    1.910182
  H      1.101298   -0.955345    3.499474
  H      1.182937    0.613220    2.672323
  C      2.601288   -0.882352    1.885247
  H      2.586441   -2.826896    2.833616
  H      3.659680   -2.747270    1.429848
  H      1.903309   -2.831808    1.199333
  C      3.181998    2.276906    1.664687
  H      2.135318    2.587016    1.600131
  H      3.793597    3.184158    1.733044
  H      3.324478    1.710719    2.590306
  C      3.508784    2.354763   -0.833649
  H      2.465553    2.610163   -1.046808
  H      3.919372    1.854332   -1.714343
  H      4.068793    3.284623   -0.679973

----------------------------
CARTESIAN COORDINATES (A.U.)
----------------------------
  NO LB      ZA    FRAG     MASS         X           Y           Z
   0 W    14.0000*   0   183.850    0.192898    0.172112   -0.174359
   1 C     6.0000    0    12.011    0.221841   -3.490443   -1.319575
   2 O     8.0000    0    15.999    0.201107   -5.564153   -2.081516
   3 C     6.0000    0    12.011    0.101724    1.177539   -3.691659
   4 O     8.0000    0    15.999    0.117511    1.803154   -5.828528
   5 C     6.0000    0    12.011   -0.150779    3.903577    0.695500
   6 O     8.0000    0    15.999   -0.457002    6.058734    1.064226
   7 P    15.0000    0    30.974   -4.486724   -0.177209    0.287284
   8 C     6.0000    0    12.011   -5.526882   -1.203682    3.515458
   9 H     1.0000    0     1.008   -7.597950   -1.236130    3.532881
  10 C     6.0000    0    12.011   -6.239095    2.883786   -0.079501
  11 H     1.0000    0     1.008   -5.141395    4.108799    1.184012
  12 C     6.0000    0    12.011   -5.968634   -2.669595   -1.750884
  13 H     1.0000    0     1.008   -4.918426   -4.342848   -1.114071
  14 C     6.0000    0    12.011    6.676425   -2.192224   -1.751298
  15 P    15.0000    0    30.974    4.803085   -0.090646    0.375422
  16 H     1.0000    0     1.008    6.494856   -0.932429    4.688010
  17 H     1.0000    0     1.008    5.890560   -4.056433   -1.297607
  18 C     6.0000    0    12.011    6.797523    2.790589    0.799704
  19 H     1.0000    0     1.008    8.750613    2.142868    1.059025
  20 C     6.0000    0    12.011   -5.975630    3.975075   -2.755527
  21 H     1.0000    0     1.008   -6.530368    5.970440   -2.746078
  22 H     1.0000    0     1.008   -7.211148    2.987226   -4.086816
  23 H     1.0000    0     1.008   -4.037254    3.842019   -3.450426
  24 C     6.0000    0    12.011   -9.003415    2.967499    0.798073
  25 H     1.0000    0     1.008  -10.234381    1.858332   -0.433821
  26 H     1.0000    0     1.008   -9.669279    4.929772    0.738299
  27 H     1.0000    0     1.008   -9.247842    2.287869    2.734475
  28 C     6.0000    0    12.011   -8.796743   -3.180184   -1.354714
  29 H     1.0000    0     1.008   -9.308619   -3.383596    0.637603
  30 H     1.0000    0     1.008   -9.314883   -4.939421   -2.320438
  31 H     1.0000    0     1.008   -9.949690   -1.670316   -2.167635
  32 C     6.0000    0    12.011   -5.379043   -2.336053   -4.572049
  33 H     1.0000    0     1.008   -5.894526   -4.066611   -5.587463
  34 H     1.0000    0     1.008   -3.377373   -1.963856   -4.893931
  35 H     1.0000    0     1.008   -6.461559   -0.778728   -5.390996
  36 C     6.0000    0    12.011   -4.569757   -3.874241    4.117791
  37 H     1.0000    0     1.008   -5.442360   -5.300304    2.903058
  38 H     1.0000    0     1.008   -5.006939   -4.358614    6.084346
  39 H     1.0000    0     1.008   -2.518944   -4.007945    3.865338
  40 C     6.0000    0    12.011   -4.624744    0.710380    5.500139
  41 H     1.0000    0     1.008   -2.566244    0.916345    5.445004
  42 H     1.0000    0     1.008   -5.158924    0.075521    7.398726
  43 H     1.0000    0     1.008   -5.445577    2.583208    5.198049
  44 C     6.0000    0    12.011    9.522884   -2.221016   -1.204528
  45 H     1.0000    0     1.008    9.934574   -2.503156    0.804798
  46 H     1.0000    0     1.008   10.413143   -0.449390   -1.797194
  47 H     1.0000    0     1.008   10.429109   -3.755475   -2.261184
  48 C     6.0000    0    12.011    6.116085   -1.710068   -4.557201
  49 H     1.0000    0     1.008    6.880474    0.100945   -5.195316
  50 C     6.0000    0    12.011    2.394546   -0.878534    4.783910
  51 H     1.0000    0     1.008    4.084889   -1.706013   -4.920518
  52 H     1.0000    0     1.008    6.987051   -3.202381   -5.700109
  53 C     6.0000    0    12.011    5.097727   -4.556326    3.448586
  54 H     1.0000    0     1.008    0.776825   -1.588519    3.609721
  55 H     1.0000    0     1.008    2.081152   -1.805340    6.613047
  56 H     1.0000    0     1.008    2.235427    1.158818    5.049959
  57 C     6.0000    0    12.011    4.915722   -1.667404    3.562601
  58 H     1.0000    0     1.008    4.887665   -5.342059    5.354758
  59 H     1.0000    0     1.008    6.915793   -5.191588    2.702021
  60 H     1.0000    0     1.008    3.596733   -5.351342    2.266411
  61 C     6.0000    0    12.011    6.013105    4.302729    3.145803
  62 H     1.0000    0     1.008    4.035166    4.888752    3.023809
  63 H     1.0000    0     1.008    7.168859    6.017187    3.274979
  64 H     1.0000    0     1.008    6.282353    3.232790    4.894969
  65 C     6.0000    0    12.011    6.630641    4.449857   -1.575368
  66 H     1.0000    0     1.008    4.659220    4.932493   -1.978180
  67 H     1.0000    0     1.008    7.406540    3.504180   -3.239639
  68 H     1.0000    0     1.008    7.688904    6.207038   -1.284963
* core charge reduced due to ECP

--------------------------------
INTERNAL COORDINATES (ANGSTROEM)
--------------------------------
 W      0   0   0     0.000000000000     0.00000000     0.00000000
 C      1   0   0     2.030735773118     0.00000000     0.00000000
 O      2   1   0     1.169141226366   177.02617244     0.00000000
 C      1   2   3     1.936426744557    88.60040407   342.40756214
 O      4   1   2     1.178278026003   178.12993917   259.18367697
 C      1   2   3     2.035688923508   173.67819466    28.98073318
 O      6   1   4     1.168323637678   175.57246662    39.02775979
 P      1   2   3     2.495226060719    88.05140084    77.60807931
 C      8   1   2     1.875161034673   113.70112360    90.70634755
 H      9   8   1     1.096135282292   107.79971223   178.18283519
 C      8   1   2     1.876530518415   114.60449240   206.83083617
 H     11   8   1     1.097588901078   100.67727431   311.02701173
 C      8   1   2     1.875571170963   114.25143188   334.96772670
 H     13   8   1     1.098376185327   100.30596366    57.20509265
 C      2   1   4     3.491503791072    80.74182143    84.38674459
 P     15   2   1     1.867101319006    63.79084529    21.58361074
 H     16  15   2     2.491581839403   104.76320312   115.16646325
 H     15   2   1     1.097158776541    55.80371237   148.97493831
 C     16  15   2     1.867876577608   104.98970107   198.94221713
 H     19  16  15     1.097497749233   106.98982538   317.97256238
 C     11   8   1     1.535657323132   112.03168389    64.38066257
 H     21  11   8     1.095960114068   109.49842263   196.38522736
 H     21  11   8     1.094089881599   111.09048760    77.61454556
 H     21  11   8     1.091938641711   111.81307116   316.51555276
 C     11   8   1     1.535398988957   117.67298147   194.47891938
 H     25  11   8     1.092605526353   111.84198957   289.92688754
 H     25  11   8     1.097001313518   108.94180691   171.30473056
 H     25  11   8     1.093656593749   112.74162456    52.08801184
 C     13   8   1     1.535147902204   116.92594793   173.63799588
 H     29  13   8     1.093839139239   112.97672982   312.85391659
 H     29  13   8     1.096815434596   109.23615066   193.03411878
 H     29  13   8     1.093468641047   111.19914904    74.79194453
 C     13   8   1     1.535328801211   113.16330501   303.85259903
 H     33  13   8     1.096255537301   109.26923148   166.39411718
 H     33  13   8     1.090775378021   111.71173933    46.43097491
 H     33  13   8     1.093206011818   111.44706236   285.37467398
 C      9   8   1     1.534685096625   111.04344904   296.64993234
 H     37   9   8     1.093576282079   111.96278242   293.55773212
 H     37   9   8     1.096442326119   110.04492507   173.55368166
 H     37   9   8     1.095721305133   111.16226151    53.90750942
 C      9   8   1     1.535201899188   109.92741424    60.22279228
 H     41   9   8     1.095138781051   110.90043083   302.09643030
 H     41   9   8     1.096435190016   110.15369964   182.41577594
 H     41   9   8     1.093811995363   111.98230407    62.19772200
 C     15   2   1     1.533894085294   161.14833142   110.72327899
 H     45  15   2     1.095599554469   112.31437114   328.58765185
 H     45  15   2     1.095086440271   111.09581930   207.49527653
 H     45  15   2     1.096346355802   109.91883790    88.70489954
 C     15   2   1     1.535484754427    84.66691937   263.36304826
 H     49  15   2     1.093650710416   111.88577048   129.61316010
 C     17  16  15     2.170571752692    70.11617992   225.32498055
 H     49  15   2     1.091924263475   111.14221369     8.86829085
 H     49  15   2     1.096280703939   109.42648825   248.99648629
 C     17  16  15     2.157380659439    75.95569309   299.99072980
 H     51  17  16     1.122531839326   138.15932952    41.77891909
 H     51  17  16     1.097699187915    99.54207447   163.59843073
 H     51  17  16     1.090529087449    95.34729759   273.33995721
 C     17  16  15     1.097376296203    44.98281221   266.11331848
 H     54  17  16     1.096686498081    95.28570784   201.91658085
 H     54  17  16     1.093014151794    94.68209580    93.55788205
 H     54  17  16     1.095099070075   139.79323023   327.78227357
 C     19  16  15     1.534254197100   111.72286908   199.42029634
 H     62  19  16     1.093560566058   111.04402897   301.21476812
 H     62  19  16     1.096281080633   109.33791888   182.59138281
 H     62  19  16     1.094366850069   112.29398383    63.20476084
 C     19  16  15     1.535707294332   109.62353127    76.71532905
 H     66  19  16     1.094987140857   110.33220720    56.45815197
 H     66  19  16     1.092993876077   112.08989654   296.14773922
 H     66  19  16     1.096296498515   109.92900704   175.99336297

---------------------------
INTERNAL COORDINATES (A.U.)
---------------------------
 W      0   0   0     0.000000000000     0.00000000     0.00000000
 C      1   0   0     3.837534461550     0.00000000     0.00000000
 O      2   1   0     2.209356729708   177.02617244     0.00000000
 C      1   2   3     3.659316225613    88.60040407   342.40756214
 O      4   1   2     2.226622778763   178.12993917   259.18367697
 C      1   2   3     3.846894559287   173.67819466    28.98073318
 O      6   1   4     2.207811710998   175.57246662    39.02775979
 P      1   2   3     4.715293896982    88.05140084    77.60807931
 C      8   1   2     3.543540812532   113.70112360    90.70634755
 H      9   8   1     2.071395489260   107.79971223   178.18283519
 C      8   1   2     3.546128761749   114.60449240   206.83083617
 H     11   8   1     2.074142430668   100.67727431   311.02701173
 C      8   1   2     3.544315857799   114.25143188   334.96772670
 H     13   8   1     2.075630182290   100.30596366    57.20509265
 C      2   1   4     6.597985960674    80.74182143    84.38674459
 P     15   2   1     3.528310157205    63.79084529    21.58361074
 H     16  15   2     4.708407316723   104.76320312   115.16646325
 H     15   2   1     2.073329613092    55.80371237   148.97493831
 C     16  15   2     3.529775183645   104.98970107   198.94221713
 H     19  16  15     2.073970178645   106.98982538   317.97256238
 C     11   8   1     2.901971776270   112.03168389    64.38066257
 H     21  11   8     2.071064469291   109.49842263   196.38522736
 H     21  11   8     2.067530242116   111.09048760    77.61454556
 H     21  11   8     2.063464987879   111.81307116   316.51555276
 C     11   8   1     2.901483595428   117.67298147   194.47891938
 H     25  11   8     2.064725217216   111.84198957   289.92688754
 H     25  11   8     2.073032051102   108.94180691   171.30473056
 H     25  11   8     2.066711446742   112.74162456    52.08801184
 C     13   8   1     2.901009110229   116.92594793   173.63799588
 H     29  13   8     2.067056407726   112.97672982   312.85391659
 H     29  13   8     2.072680790845   109.23615066   193.03411878
 H     29  13   8     2.066356267611   111.19914904    74.79194453
 C     13   8   1     2.901350959811   113.16330501   303.85259903
 H     33  13   8     2.071622738294   109.26923148   166.39411718
 H     33  13   8     2.061266738084   111.71173933    46.43097491
 H     33  13   8     2.065859970291   111.44706236   285.37467398
 C      9   8   1     2.900134534432   111.04344904   296.64993234
 H     37   9   8     2.066559679680   111.96278242   293.55773212
 H     37   9   8     2.071975718005   110.04492507   173.55368166
 H     37   9   8     2.070613185804   111.16226151    53.90750942
 C      9   8   1     2.901111149740   109.92741424    60.22279228
 H     41   9   8     2.069512374822   110.90043083   302.09643030
 H     41   9   8     2.071962232725   110.15369964   182.41577594
 H     41   9   8     2.067005113235   111.98230407    62.19772200
 C     15   2   1     2.898639739648   161.14833142   110.72327899
 H     45  15   2     2.070383110393   112.31437114   328.58765185
 H     45  15   2     2.069413465083   111.09581930   207.49527653
 H     45  15   2     2.071794360389   109.91883790    88.70489954
 C     15   2   1     2.901645668678    84.66691937   263.36304826
 H     49  15   2     2.066700328855   111.88577048   129.61316010
 C     17  16  15     4.101786166614    70.11617992   225.32498055
 H     49  15   2     2.063437816952   111.14221369     8.86829085
 H     49  15   2     2.071670296348   109.42648825   248.99648629
 C     17  16  15     4.076858612958    75.95569309   299.99072980
 H     51  17  16     2.121277752933   138.15932952    41.77891909
 H     51  17  16     2.074350842588    99.54207447   163.59843073
 H     51  17  16     2.060801316354    95.34729759   273.33995721
 C     17  16  15     2.073740665681    44.98281221   266.11331848
 H     54  17  16     2.072437136142    95.28570784   201.91658085
 H     54  17  16     2.065497407391    94.68209580    93.55788205
 H     54  17  16     2.069437331954   139.79323023   327.78227357
 C     19  16  15     2.899320252339   111.72286908   199.42029634
 H     62  19  16     2.066529980705   111.04402897   301.21476812
 H     62  19  16     2.071671008196   109.33791888   182.59138281
 H     62  19  16     2.068053636673   112.29398383    63.20476084
 C     19  16  15     2.902066208153   109.62353127    76.71532905
 H     66  19  16     2.069225816385   110.33220720    56.45815197
 H     66  19  16     2.065459091838   112.08989654   296.14773922
 H     66  19  16     2.071700143771   109.92900704   175.99336297

---------------------
BASIS SET INFORMATION
---------------------
There are 5 groups of distinct atoms

 Group   1 Type W   : 8s8p6d2f1g contracted to 6s5p3d2f1g pattern {311111/41111/411/11/1}
 Group   2 Type C   : 12s6p3d1f contracted to 6s3p3d1f pattern {621111/411/111/1}
 Group   3 Type O   : 12s7p3d1f contracted to 6s4p3d1f pattern {621111/4111/111/1}
 Group   4 Type P   : 15s9p4d1f contracted to 6s5p4d1f pattern {732111/51111/1111/1}
 Group   5 Type H   : 5s3p1d contracted to 3s3p1d pattern {311/111/1}

Atom   0W    basis set group =>   1
Atom   1C    basis set group =>   2
Atom   2O    basis set group =>   3
Atom   3C    basis set group =>   2
Atom   4O    basis set group =>   3
Atom   5C    basis set group =>   2
Atom   6O    basis set group =>   3
Atom   7P    basis set group =>   4
Atom   8C    basis set group =>   2
Atom   9H    basis set group =>   5
Atom  10C    basis set group =>   2
Atom  11H    basis set group =>   5
Atom  12C    basis set group =>   2
Atom  13H    basis set group =>   5
Atom  14C    basis set group =>   2
Atom  15P    basis set group =>   4
Atom  16H    basis set group =>   5
Atom  17H    basis set group =>   5
Atom  18C    basis set group =>   2
Atom  19H    basis set group =>   5
Atom  20C    basis set group =>   2
Atom  21H    basis set group =>   5
Atom  22H    basis set group =>   5
Atom  23H    basis set group =>   5
Atom  24C    basis set group =>   2
Atom  25H    basis set group =>   5
Atom  26H    basis set group =>   5
Atom  27H    basis set group =>   5
Atom  28C    basis set group =>   2
Atom  29H    basis set group =>   5
Atom  30H    basis set group =>   5
Atom  31H    basis set group =>   5
Atom  32C    basis set group =>   2
Atom  33H    basis set group =>   5
Atom  34H    basis set group =>   5
Atom  35H    basis set group =>   5
Atom  36C    basis set group =>   2
Atom  37H    basis set group =>   5
Atom  38H    basis set group =>   5
Atom  39H    basis set group =>   5
Atom  40C    basis set group =>   2
Atom  41H    basis set group =>   5
Atom  42H    basis set group =>   5
Atom  43H    basis set group =>   5
Atom  44C    basis set group =>   2
Atom  45H    basis set group =>   5
Atom  46H    basis set group =>   5
Atom  47H    basis set group =>   5
Atom  48C    basis set group =>   2
Atom  49H    basis set group =>   5
Atom  50C    basis set group =>   2
Atom  51H    basis set group =>   5
Atom  52H    basis set group =>   5
Atom  53C    basis set group =>   2
Atom  54H    basis set group =>   5
Atom  55H    basis set group =>   5
Atom  56H    basis set group =>   5
Atom  57C    basis set group =>   2
Atom  58H    basis set group =>   5
Atom  59H    basis set group =>   5
Atom  60H    basis set group =>   5
Atom  61C    basis set group =>   2
Atom  62H    basis set group =>   5
Atom  63H    basis set group =>   5
Atom  64H    basis set group =>   5
Atom  65C    basis set group =>   2
Atom  66H    basis set group =>   5
Atom  67H    basis set group =>   5
Atom  68H    basis set group =>   5
----------------------------------
AUXILIARY/JK BASIS SET INFORMATION
----------------------------------
There are 5 groups of distinct atoms

 Group   1 Type W   : 13s12p11d9f5g3h2i contracted to 11s9p9d7f4g3h2i pattern {31111111111/411111111/311111111/3111111/2111/111/11}
 Group   2 Type C   : 14s10p6d2f1g contracted to 10s8p5d1f1g pattern {5111111111/31111111/21111/2/1}
 Group   3 Type O   : 14s10p6d2f1g contracted to 10s8p4d2f1g pattern {5111111111/31111111/3111/11/1}
 Group   4 Type P   : 16s12p10d4f1g contracted to 13s11p9d4f1g pattern {4111111111111/21111111111/211111111/1111/1}
 Group   5 Type H   : 4s2p2d contracted to 2s2p2d pattern {31/11/11}

Atom   0W    basis set group =>   1
Atom   1C    basis set group =>   2
Atom   2O    basis set group =>   3
Atom   3C    basis set group =>   2
Atom   4O    basis set group =>   3
Atom   5C    basis set group =>   2
Atom   6O    basis set group =>   3
Atom   7P    basis set group =>   4
Atom   8C    basis set group =>   2
Atom   9H    basis set group =>   5
Atom  10C    basis set group =>   2
Atom  11H    basis set group =>   5
Atom  12C    basis set group =>   2
Atom  13H    basis set group =>   5
Atom  14C    basis set group =>   2
Atom  15P    basis set group =>   4
Atom  16H    basis set group =>   5
Atom  17H    basis set group =>   5
Atom  18C    basis set group =>   2
Atom  19H    basis set group =>   5
Atom  20C    basis set group =>   2
Atom  21H    basis set group =>   5
Atom  22H    basis set group =>   5
Atom  23H    basis set group =>   5
Atom  24C    basis set group =>   2
Atom  25H    basis set group =>   5
Atom  26H    basis set group =>   5
Atom  27H    basis set group =>   5
Atom  28C    basis set group =>   2
Atom  29H    basis set group =>   5
Atom  30H    basis set group =>   5
Atom  31H    basis set group =>   5
Atom  32C    basis set group =>   2
Atom  33H    basis set group =>   5
Atom  34H    basis set group =>   5
Atom  35H    basis set group =>   5
Atom  36C    basis set group =>   2
Atom  37H    basis set group =>   5
Atom  38H    basis set group =>   5
Atom  39H    basis set group =>   5
Atom  40C    basis set group =>   2
Atom  41H    basis set group =>   5
Atom  42H    basis set group =>   5
Atom  43H    basis set group =>   5
Atom  44C    basis set group =>   2
Atom  45H    basis set group =>   5
Atom  46H    basis set group =>   5
Atom  47H    basis set group =>   5
Atom  48C    basis set group =>   2
Atom  49H    basis set group =>   5
Atom  50C    basis set group =>   2
Atom  51H    basis set group =>   5
Atom  52H    basis set group =>   5
Atom  53C    basis set group =>   2
Atom  54H    basis set group =>   5
Atom  55H    basis set group =>   5
Atom  56H    basis set group =>   5
Atom  57C    basis set group =>   2
Atom  58H    basis set group =>   5
Atom  59H    basis set group =>   5
Atom  60H    basis set group =>   5
Atom  61C    basis set group =>   2
Atom  62H    basis set group =>   5
Atom  63H    basis set group =>   5
Atom  64H    basis set group =>   5
Atom  65C    basis set group =>   2
Atom  66H    basis set group =>   5
Atom  67H    basis set group =>   5
Atom  68H    basis set group =>   5
-------------------------
ECP PARAMETER INFORMATION
-------------------------

 Group 1, Type W  ECP Def2-ECP (replacing 60 core electrons, lmax=3)

Atom   0W    ECP group =>   1



           ************************************************************
           *        Program running with 24 parallel MPI-processes    *
           *              working on a common directory               *
           ************************************************************
------------------------------------------------------------------------------
                           ORCA GTO INTEGRAL CALCULATION
------------------------------------------------------------------------------

                         BASIS SET STATISTICS AND STARTUP INFO

 # of primitive gaussian shells          ...  992
 # of primitive gaussian functions       ... 2278
 # of contracted shells                  ...  658
 # of contracted basis functions         ... 1766
 Highest angular momentum                ...    4
 Maximum contraction depth               ...    7
 Integral package used                   ... LIBINT
 Integral threshhold            Thresh   ...  1.000e-10
 Primitive cut-off              TCut     ...  1.000e-11


------------------------------ INTEGRAL EVALUATION ----------------------------


 * One electron integrals 

   ECP integrals                         ... done
 Pre-screening matrix                    ... done
 Shell pair data                         ... done (   0.052 sec)



           ************************************************************
           *        Program running with 24 parallel MPI-processes    *
           *              working on a common directory               *
           ************************************************************
-------------------------------------------------------------------------------
                                 ORCA SCF
-------------------------------------------------------------------------------

------------
SCF SETTINGS
------------
Hamiltonian:
 Density Functional     Method          .... DFT(GTOs)
 Exchange Functional    Exchange        .... TPSS
 Correlation Functional Correlation     .... TPSS
 LDA part of GGA corr.  LDAOpt          .... PW91-LDA
 Gradients option       PostSCFGGA      .... off
 Hybrid DFT is turned on
   Fraction HF Exchange ScalHFX         ....  0.100000
   Scaling of DF-GGA-X  ScalDFX         ....  0.900000
   Scaling of DF-GGA-C  ScalDFC         ....  1.000000
   Scaling of DF-LDA-C  ScalLDAC        ....  1.000000
   Perturbative correction              ....  0.000000
   Density functional embedding theory  .... OFF
   NL short-range parameter             ....  5.200000


General Settings:
 Integral files         IntName         .... MOR09_ed07
 Hartree-Fock type      HFTyp           .... RHF
 Total Charge           Charge          ....    0
 Multiplicity           Mult            ....    1
 Number of Electrons    NEL             ....  236
 Basis Dimension        Dim             .... 1766
 Nuclear Repulsion      ENuc            ....   3558.2821903299 Eh

Convergence Acceleration:
 DIIS                   CNVDIIS         .... on
   Start iteration      DIISMaxIt       ....    12
   Startup error        DIISStart       ....  0.200000
   # of expansion vecs  DIISMaxEq       ....     5
   Bias factor          DIISBfac        ....   1.050
   Max. coefficient     DIISMaxC        ....  10.000
 Newton-Raphson         CNVNR           .... off
 SOSCF                  CNVSOSCF        .... off
 Level Shifting         CNVShift        .... on
   Level shift para.    LevelShift      ....    0.2500
   Turn off err/grad.   ShiftErr        ....    0.0010
 Zerner damping         CNVZerner       .... off
 Static damping         CNVDamp         .... on
   Fraction old density DampFac         ....    0.7000
   Max. Damping (<1)    DampMax         ....    0.9800
   Min. Damping (>=0)   DampMin         ....    0.0000
   Turn off err/grad.   DampErr         ....    0.1000
 Fernandez-Rico         CNVRico         .... off

SCF Procedure:
 Maximum # iterations   MaxIter         ....   125
 SCF integral mode      SCFMode         .... Direct
   Integral package                     .... LIBINT
 Reset frequency        DirectResetFreq ....    20
 Integral Threshold     Thresh          ....  1.000e-10 Eh
 Primitive CutOff       TCut            ....  1.000e-11 Eh

Convergence Tolerance:
 Convergence Check Mode ConvCheckMode   .... Total+1el-Energy
 Convergence forced     ConvForced      .... 0
 Energy Change          TolE            ....  1.000e-06 Eh
 1-El. energy change                    ....  1.000e-03 Eh
 DIIS Error             TolErr          ....  1.000e-06


Diagonalization of the overlap matrix:
Smallest eigenvalue                        ... 2.214e-07
Time for diagonalization                   ...    0.394 sec
Threshold for overlap eigenvalues          ... 1.000e-08
Number of eigenvalues below threshold      ... 0
Time for construction of square roots      ...    0.408 sec
Total time needed                          ...    0.811 sec

-------------------
DFT GRID GENERATION
-------------------

General Integration Accuracy     IntAcc      ...  4.670
Radial Grid Type                 RadialGrid  ... Gauss-Chebyshev
Angular Grid (max. acc.)         AngularGrid ... Lebedev-302
Angular grid pruning method      GridPruning ... 3 (G Style)
Weight generation scheme         WeightScheme... Becke
Basis function cutoff            BFCut       ...    1.0000e-10
Integration weight cutoff        WCut        ...    1.0000e-14
Grids for H and He will be reduced by one unit

# of grid points (after initial pruning)     ... 316980 (   0.0 sec)
# of grid points (after weights+screening)   ... 264848 (   0.3 sec)
nearest neighbour list constructed           ...    0.0 sec
Grid point re-assignment to atoms done       ...    0.0 sec
Grid point division into batches done        ...    0.7 sec
Reduced shell lists constructed in    1.4 sec

Total number of grid points                  ...   264848
Total number of batches                      ...     4176
Average number of points per batch           ...       63
Average number of grid points per atom       ...     3838
Average number of shells per batch           ...   354.95 (53.94%)
Average number of basis functions per batch  ...   922.77 (52.25%)
Average number of large shells per batch     ...   254.91 (71.82%)
Average number of large basis fcns per batch ...   668.45 (72.44%)
Maximum spatial batch extension              ...   3.10,  4.47,  3.27 au
Average spatial batch extension              ...   0.05,  0.05,  0.05 au

Time for grid setup =    1.795 sec

------------------------------
INITIAL GUESS: MODEL POTENTIAL
------------------------------
Loading Hartree-Fock densities                     ... done
  calling /sw/apps/orca/orca_4_2_0_linux_x86-64_openmpi314/orca MOR09_ed07_atom74.inp > MOR09_ed07_atom74.out in order to generate an atomic fitting density for atom 0 (W  with ECP) on-the-fly... 
    atom 0 (W ), assumed electronic state with S=5: 1s2 2s2 2p6 3s2 3p6 4s2 3d10 4p6 5s2 4d10 5p6 6s2 4f14 5d4           ... done
Calculating cut-offs                               ... done
Setting up the integral package                    ... done
Initializing the effective Hamiltonian             ... done
Starting the Coulomb interaction                   ... done (   0.6 sec)
Reading the grid                                   ... done
Mapping shells                                     ... done
Starting the XC term evaluation                    ... done (   1.9 sec)
  promolecular density results
     # of electrons  =    295.980285154
     EX              =   -514.213277202
     EC              =    -11.984345982
     EX+EC           =   -526.197623184
Transforming the Hamiltonian                       ... done (   0.2 sec)
Diagonalizing the Hamiltonian                      ... done (   0.4 sec)
Back transforming the eigenvectors                 ... done (   0.1 sec)
Now organizing SCF variables                       ... done
                      ------------------
                      INITIAL GUESS DONE (   7.4 sec)
                      ------------------
--------------
SCF ITERATIONS
--------------
ITER       Energy         Delta-E        Max-DP      RMS-DP      [F,P]     Damp
               ***  Starting incremental Fock matrix formation  ***
  0  -1800.5871352704   0.000000000000 7.19869160  0.01335036  0.4051871 0.7000
  1  -1801.1248662665  -0.537730996159 5.40059304  0.00957699  0.2671613 0.7000
                               ***Turning on DIIS***
  2  -1801.3081612123  -0.183294945823 3.87774229  0.00653490  0.1765223 0.7000
  3  -1801.4160306543  -0.107869441998 2.97390402  0.00458824  0.1213557 0.7000
  4  -1801.4962325531  -0.080201898778 7.10569962  0.01096081  0.0860863 0.0000
  5  -1801.6798408408  -0.183608287653 0.38405143  0.00054458  0.0093228 0.0000
  6  -1801.6802141963  -0.000373355557 0.29726638  0.00031482  0.0063728 0.0000
  7  -1801.6804831716  -0.000268975255 0.35986052  0.00048773  0.0013482 0.0000
  8  -1801.6804903616  -0.000007189991 0.68433544  0.00059613  0.0011057 0.0000
  9  -1801.6804974403  -0.000007078745 0.31494950  0.00045555  0.0001785 0.0000
                 **** Energy Check signals convergence ****

               *****************************************************
               *                     SUCCESS                       *
               *           SCF CONVERGED AFTER  10 CYCLES          *
               *****************************************************


----------------
TOTAL SCF ENERGY
----------------

Total Energy       :        -1801.68049721 Eh          -49026.21877 eV

Components:
Nuclear Repulsion  :         3558.28219033 Eh           96825.78093 eV
Electronic Energy  :        -5359.96268754 Eh         -145851.99970 eV
One Electron Energy:        -9570.98277424 Eh         -260439.68178 eV
Two Electron Energy:         4211.02008669 Eh          114587.68208 eV

Virial components:
Potential Energy   :        -3552.31307238 Eh          -96663.35297 eV
Kinetic Energy     :         1750.63257517 Eh           47637.13420 eV
Virial Ratio       :            2.02915970


DFT components:
N(Alpha)           :      117.999914469822 electrons
N(Beta)            :      117.999914469822 electrons
N(Total)           :      235.999828939643 electrons
E(X)               :     -181.841514253788 Eh       
E(C)               :       -8.061986526859 Eh       
E(XC)              :     -189.903500780647 Eh       
DFET-embed. en.    :        0.000000000000 Eh       

---------------
SCF CONVERGENCE
---------------

  Last Energy change         ...    2.2630e-07  Tolerance :   1.0000e-06
  Last MAX-Density change    ...    2.2582e-01  Tolerance :   1.0000e-05
  Last RMS-Density change    ...    4.5273e-04  Tolerance :   1.0000e-06
  Last DIIS Error            ...    1.1043e-04  Tolerance :   1.0000e-06

             **** THE GBW FILE WAS UPDATED (MOR09_ed07.gbw) ****
             **** DENSITY FILE WAS UPDATED (MOR09_ed07.scfp) ****
             **** ENERGY FILE WAS UPDATED (MOR09_ed07.en.tmp) ****
             **** THE GBW FILE WAS UPDATED (MOR09_ed07.gbw) ****
             **** DENSITY FILE WAS UPDATED (MOR09_ed07.scfp) ****
----------------
ORBITAL ENERGIES
----------------

  NO   OCC          E(Eh)            E(eV) 
   0   2.0000     -76.932643     -2093.4436 
   1   2.0000     -76.930174     -2093.3764 
   2   2.0000     -19.091078      -519.4946 
   3   2.0000     -19.090022      -519.4659 
   4   2.0000     -19.055586      -518.5289 
   5   2.0000     -10.184004      -277.1208 
   6   2.0000     -10.183843      -277.1165 
   7   2.0000     -10.160200      -276.4731 
   8   2.0000     -10.142425      -275.9894 
   9   2.0000     -10.139540      -275.9109 
  10   2.0000     -10.129219      -275.6301 
  11   2.0000     -10.128706      -275.6161 
  12   2.0000     -10.127182      -275.5746 
  13   2.0000     -10.123121      -275.4641 
  14   2.0000     -10.122722      -275.4533 
  15   2.0000     -10.120272      -275.3866 
  16   2.0000     -10.116367      -275.2803 
  17   2.0000     -10.113813      -275.2108 
  18   2.0000     -10.113476      -275.2017 
  19   2.0000     -10.112017      -275.1620 
  20   2.0000     -10.109329      -275.0888 
  21   2.0000     -10.108419      -275.0641 
  22   2.0000     -10.106358      -275.0080 
  23   2.0000     -10.102072      -274.8913 
  24   2.0000     -10.098165      -274.7850 
  25   2.0000     -10.096211      -274.7319 
  26   2.0000      -6.487300      -176.5284 
  27   2.0000      -6.483751      -176.4318 
  28   2.0000      -4.636948      -126.1778 
  29   2.0000      -4.636292      -126.1599 
  30   2.0000      -4.633123      -126.0737 
  31   2.0000      -4.633113      -126.0734 
  32   2.0000      -4.633084      -126.0726 
  33   2.0000      -4.629773      -125.9825 
  34   2.0000      -2.857269       -77.7502 
  35   2.0000      -1.523890       -41.4671 
  36   2.0000      -1.521664       -41.4066 
  37   2.0000      -1.512599       -41.1599 
  38   2.0000      -1.062619       -28.9153 
  39   2.0000      -1.061377       -28.8815 
  40   2.0000      -1.026518       -27.9330 
  41   2.0000      -0.806364       -21.9423 
  42   2.0000      -0.795797       -21.6547 
  43   2.0000      -0.777975       -21.1698 
  44   2.0000      -0.767860       -20.8945 
  45   2.0000      -0.765791       -20.8382 
  46   2.0000      -0.761690       -20.7266 
  47   2.0000      -0.691773       -18.8241 
  48   2.0000      -0.676929       -18.4202 
  49   2.0000      -0.673546       -18.3281 
  50   2.0000      -0.670759       -18.2523 
  51   2.0000      -0.670581       -18.2474 
  52   2.0000      -0.661317       -17.9953 
  53   2.0000      -0.639370       -17.3981 
  54   2.0000      -0.633271       -17.2322 
  55   2.0000      -0.581993       -15.8368 
  56   2.0000      -0.571517       -15.5518 
  57   2.0000      -0.568854       -15.4793 
  58   2.0000      -0.568218       -15.4620 
  59   2.0000      -0.538400       -14.6506 
  60   2.0000      -0.512586       -13.9482 
  61   2.0000      -0.509229       -13.8568 
  62   2.0000      -0.503376       -13.6976 
  63   2.0000      -0.491872       -13.3845 
  64   2.0000      -0.472058       -12.8454 
  65   2.0000      -0.461851       -12.5676 
  66   2.0000      -0.458475       -12.4757 
  67   2.0000      -0.452629       -12.3166 
  68   2.0000      -0.450309       -12.2535 
  69   2.0000      -0.437305       -11.8997 
  70   2.0000      -0.434528       -11.8241 
  71   2.0000      -0.430040       -11.7020 
  72   2.0000      -0.421515       -11.4700 
  73   2.0000      -0.420317       -11.4374 
  74   2.0000      -0.417933       -11.3725 
  75   2.0000      -0.416180       -11.3248 
  76   2.0000      -0.408038       -11.1033 
  77   2.0000      -0.403958       -10.9923 
  78   2.0000      -0.402729       -10.9588 
  79   2.0000      -0.400734       -10.9045 
  80   2.0000      -0.396541       -10.7904 
  81   2.0000      -0.396151       -10.7798 
  82   2.0000      -0.393981       -10.7208 
  83   2.0000      -0.391364       -10.6495 
  84   2.0000      -0.391006       -10.6398 
  85   2.0000      -0.387798       -10.5525 
  86   2.0000      -0.385293       -10.4843 
  87   2.0000      -0.382667       -10.4129 
  88   2.0000      -0.381287       -10.3753 
  89   2.0000      -0.378411       -10.2971 
  90   2.0000      -0.376726       -10.2512 
  91   2.0000      -0.371567       -10.1108 
  92   2.0000      -0.370278       -10.0758 
  93   2.0000      -0.369181       -10.0459 
  94   2.0000      -0.366024        -9.9600 
  95   2.0000      -0.355048        -9.6614 
  96   2.0000      -0.352454        -9.5907 
  97   2.0000      -0.351620        -9.5681 
  98   2.0000      -0.346943        -9.4408 
  99   2.0000      -0.341595        -9.2953 
 100   2.0000      -0.340409        -9.2630 
 101   2.0000      -0.339087        -9.2270 
 102   2.0000      -0.334597        -9.1049 
 103   2.0000      -0.330709        -8.9990 
 104   2.0000      -0.329278        -8.9601 
 105   2.0000      -0.327240        -8.9047 
 106   2.0000      -0.325763        -8.8645 
 107   2.0000      -0.325195        -8.8490 
 108   2.0000      -0.322426        -8.7736 
 109   2.0000      -0.293066        -7.9747 
 110   2.0000      -0.287702        -7.8288 
 111   2.0000      -0.286943        -7.8081 
 112   2.0000      -0.284620        -7.7449 
 113   2.0000      -0.275065        -7.4849 
 114   2.0000      -0.240344        -6.5401 
 115   2.0000      -0.187042        -5.0897 
 116   2.0000      -0.178290        -4.8515 
 117   2.0000      -0.164152        -4.4668 
 118   0.0000      -0.070209        -1.9105 
 119   0.0000      -0.038839        -1.0569 
 120   0.0000      -0.008286        -0.2255 
 121   0.0000      -0.004070        -0.1108 
 122   0.0000       0.001864         0.0507 
 123   0.0000       0.004269         0.1162 
 124   0.0000       0.008704         0.2369 
 125   0.0000       0.009648         0.2625 
 126   0.0000       0.016564         0.4507 
 127   0.0000       0.017787         0.4840 
 128   0.0000       0.021833         0.5941 
 129   0.0000       0.026644         0.7250 
 130   0.0000       0.027758         0.7553 
 131   0.0000       0.029641         0.8066 
 132   0.0000       0.032369         0.8808 
 133   0.0000       0.034986         0.9520 
 134   0.0000       0.039423         1.0728 
 135   0.0000       0.040280         1.0961 
 136   0.0000       0.041505         1.1294 
 137   0.0000       0.044005         1.1974 
 138   0.0000       0.046235         1.2581 
 139   0.0000       0.055572         1.5122 
 140   0.0000       0.057642         1.5685 
 141   0.0000       0.058916         1.6032 
 142   0.0000       0.061418         1.6713 
 143   0.0000       0.062924         1.7123 
 144   0.0000       0.065463         1.7813 
 145   0.0000       0.067387         1.8337 
 146   0.0000       0.070517         1.9189 
 147   0.0000       0.071856         1.9553 
 148   0.0000       0.072437         1.9711 
 149   0.0000       0.074467         2.0263 
 150   0.0000       0.077723         2.1150 
 151   0.0000       0.080113         2.1800 
 152   0.0000       0.082136         2.2350 
 153   0.0000       0.085548         2.3279 
 154   0.0000       0.085957         2.3390 
 155   0.0000       0.088662         2.4126 
 156   0.0000       0.092578         2.5192 
 157   0.0000       0.094678         2.5763 
 158   0.0000       0.097028         2.6403 
 159   0.0000       0.098508         2.6805 
 160   0.0000       0.099832         2.7166 
 161   0.0000       0.102485         2.7888 
 162   0.0000       0.103545         2.8176 
 163   0.0000       0.107886         2.9357 
 164   0.0000       0.108720         2.9584 
 165   0.0000       0.109588         2.9821 
 166   0.0000       0.112019         3.0482 
 167   0.0000       0.114579         3.1178 
 168   0.0000       0.116122         3.1599 
 169   0.0000       0.117992         3.2107 
 170   0.0000       0.119217         3.2441 
 171   0.0000       0.122224         3.3259 
 172   0.0000       0.124200         3.3796 
 173   0.0000       0.127191         3.4610 
 174   0.0000       0.129136         3.5140 
 175   0.0000       0.133871         3.6428 
 176   0.0000       0.134504         3.6600 
 177   0.0000       0.136236         3.7072 
 178   0.0000       0.140231         3.8159 
 179   0.0000       0.143419         3.9026 
 180   0.0000       0.143671         3.9095 
 181   0.0000       0.146515         3.9869 
 182   0.0000       0.149319         4.0632 
 183   0.0000       0.151002         4.1090 
 184   0.0000       0.152243         4.1427 
 185   0.0000       0.152577         4.1518 
 186   0.0000       0.156392         4.2557 
 187   0.0000       0.158393         4.3101 
 188   0.0000       0.161266         4.3883 
 189   0.0000       0.162153         4.4124 
 190   0.0000       0.163002         4.4355 
 191   0.0000       0.167591         4.5604 
 192   0.0000       0.168132         4.5751 
 193   0.0000       0.170295         4.6340 
 194   0.0000       0.171633         4.6704 
 195   0.0000       0.171896         4.6775 
 196   0.0000       0.175775         4.7831 
 197   0.0000       0.178818         4.8659 
 198   0.0000       0.180106         4.9009 
 199   0.0000       0.182718         4.9720 
 200   0.0000       0.184888         5.0310 
 201   0.0000       0.186644         5.0788 
 202   0.0000       0.188367         5.1257 
 203   0.0000       0.190127         5.1736 
 204   0.0000       0.191444         5.2095 
 205   0.0000       0.194015         5.2794 
 206   0.0000       0.196944         5.3591 
 207   0.0000       0.198049         5.3892 
 208   0.0000       0.201580         5.4853 
 209   0.0000       0.203790         5.5454 
 210   0.0000       0.206897         5.6300 
 211   0.0000       0.207831         5.6554 
 212   0.0000       0.210372         5.7245 
 213   0.0000       0.212706         5.7880 
 214   0.0000       0.216154         5.8818 
 215   0.0000       0.217004         5.9050 
 216   0.0000       0.217586         5.9208 
 217   0.0000       0.220093         5.9890 
 218   0.0000       0.221360         6.0235 
 219   0.0000       0.224180         6.1002 
 220   0.0000       0.226007         6.1500 
 221   0.0000       0.228145         6.2081 
 222   0.0000       0.229796         6.2531 
 223   0.0000       0.231231         6.2921 
 224   0.0000       0.231946         6.3116 
 225   0.0000       0.235419         6.4061 
 226   0.0000       0.235455         6.4071 
 227   0.0000       0.239891         6.5278 
 228   0.0000       0.241442         6.5700 
 229   0.0000       0.242814         6.6073 
 230   0.0000       0.246233         6.7003 
 231   0.0000       0.246632         6.7112 
 232   0.0000       0.249841         6.7985 
 233   0.0000       0.252378         6.8675 
 234   0.0000       0.253444         6.8966 
 235   0.0000       0.254014         6.9121 
 236   0.0000       0.255137         6.9426 
 237   0.0000       0.257581         7.0091 
 238   0.0000       0.259618         7.0646 
 239   0.0000       0.260278         7.0825 
 240   0.0000       0.261877         7.1260 
 241   0.0000       0.264056         7.1853 
 242   0.0000       0.265885         7.2351 
 243   0.0000       0.266581         7.2541 
 244   0.0000       0.267394         7.2762 
 245   0.0000       0.270010         7.3473 
 246   0.0000       0.273683         7.4473 
 247   0.0000       0.275059         7.4847 
 248   0.0000       0.276483         7.5235 
 249   0.0000       0.277478         7.5506 
 250   0.0000       0.279018         7.5925 
 251   0.0000       0.281974         7.6729 
 252   0.0000       0.283180         7.7057 
 253   0.0000       0.285603         7.7716 
 254   0.0000       0.286790         7.8040 
 255   0.0000       0.289509         7.8779 
 256   0.0000       0.289802         7.8859 
 257   0.0000       0.290695         7.9102 
 258   0.0000       0.292714         7.9652 
 259   0.0000       0.295294         8.0354 
 260   0.0000       0.296913         8.0794 
 261   0.0000       0.300138         8.1672 
 262   0.0000       0.301143         8.1945 
 263   0.0000       0.303577         8.2608 
 264   0.0000       0.305139         8.3033 
 265   0.0000       0.306887         8.3508 
 266   0.0000       0.308838         8.4039 
 267   0.0000       0.310219         8.4415 
 268   0.0000       0.312693         8.5088 
 269   0.0000       0.313795         8.5388 
 270   0.0000       0.315676         8.5900 
 271   0.0000       0.315819         8.5939 
 272   0.0000       0.319242         8.6870 
 273   0.0000       0.321395         8.7456 
 274   0.0000       0.323382         8.7997 
 275   0.0000       0.324863         8.8400 
 276   0.0000       0.325530         8.8581 
 277   0.0000       0.327402         8.9091 
 278   0.0000       0.327971         8.9245 
 279   0.0000       0.330826         9.0022 
 280   0.0000       0.331596         9.0232 
 281   0.0000       0.334185         9.0936 
 282   0.0000       0.335894         9.1401 
 283   0.0000       0.336271         9.1504 
 284   0.0000       0.339448         9.2369 
 285   0.0000       0.342402         9.3172 
 286   0.0000       0.344290         9.3686 
 287   0.0000       0.345569         9.4034 
 288   0.0000       0.346517         9.4292 
 289   0.0000       0.348268         9.4769 
 290   0.0000       0.348927         9.4948 
 291   0.0000       0.353228         9.6118 
 292   0.0000       0.355255         9.6670 
 293   0.0000       0.356766         9.7081 
 294   0.0000       0.357730         9.7343 
 295   0.0000       0.363236         9.8842 
 296   0.0000       0.365207         9.9378 
 297   0.0000       0.365487         9.9454 
 298   0.0000       0.368420        10.0252 
 299   0.0000       0.369456        10.0534 
 300   0.0000       0.371411        10.1066 
 301   0.0000       0.373337        10.1590 
 302   0.0000       0.376761        10.2522 
 303   0.0000       0.378675        10.3043 
 304   0.0000       0.380949        10.3661 
 305   0.0000       0.383497        10.4355 
 306   0.0000       0.383704        10.4411 
 307   0.0000       0.386170        10.5082 
 308   0.0000       0.387244        10.5374 
 309   0.0000       0.391445        10.6518 
 310   0.0000       0.394504        10.7350 
 311   0.0000       0.395907        10.7732 
 312   0.0000       0.397152        10.8071 
 313   0.0000       0.399030        10.8582 
 314   0.0000       0.401191        10.9170 
 315   0.0000       0.402749        10.9593 
 316   0.0000       0.404702        11.0125 
 317   0.0000       0.405455        11.0330 
 318   0.0000       0.407250        11.0818 
 319   0.0000       0.410608        11.1732 
 320   0.0000       0.412318        11.2197 
 321   0.0000       0.413428        11.2499 
 322   0.0000       0.415555        11.3078 
 323   0.0000       0.419444        11.4136 
 324   0.0000       0.420495        11.4422 
 325   0.0000       0.423331        11.5194 
 326   0.0000       0.425156        11.5691 
 327   0.0000       0.425863        11.5883 
 328   0.0000       0.428188        11.6516 
 329   0.0000       0.429408        11.6848 
 330   0.0000       0.432417        11.7667 
 331   0.0000       0.432891        11.7796 
 332   0.0000       0.434059        11.8113 
 333   0.0000       0.434997        11.8369 
 334   0.0000       0.438438        11.9305 
 335   0.0000       0.439200        11.9512 
 336   0.0000       0.440996        12.0001 
 337   0.0000       0.443526        12.0689 
 338   0.0000       0.445465        12.1217 
 339   0.0000       0.447316        12.1721 
 340   0.0000       0.448778        12.2119 
 341   0.0000       0.450073        12.2471 
 342   0.0000       0.452848        12.3226 
 343   0.0000       0.453907        12.3514 
 344   0.0000       0.456469        12.4212 
 345   0.0000       0.458991        12.4898 
 346   0.0000       0.460618        12.5340 
 347   0.0000       0.464229        12.6323 
 348   0.0000       0.465715        12.6727 
 349   0.0000       0.468772        12.7559 
 350   0.0000       0.469459        12.7746 
 351   0.0000       0.470852        12.8125 
 352   0.0000       0.475350        12.9349 
 353   0.0000       0.475665        12.9435 
 354   0.0000       0.477825        13.0023 
 355   0.0000       0.478628        13.0241 
 356   0.0000       0.479432        13.0460 
 357   0.0000       0.483015        13.1435 
 358   0.0000       0.483773        13.1641 
 359   0.0000       0.487072        13.2539 
 360   0.0000       0.488103        13.2820 
 361   0.0000       0.489382        13.3168 
 362   0.0000       0.492505        13.4017 
 363   0.0000       0.494473        13.4553 
 364   0.0000       0.497184        13.5291 
 365   0.0000       0.498469        13.5640 
 366   0.0000       0.499415        13.5898 
 367   0.0000       0.503413        13.6986 
 368   0.0000       0.504125        13.7179 
 369   0.0000       0.508201        13.8289 
 370   0.0000       0.509167        13.8551 
 371   0.0000       0.510063        13.8795 
 372   0.0000       0.513464        13.9721 
 373   0.0000       0.514796        14.0083 
 374   0.0000       0.515839        14.0367 
 375   0.0000       0.516838        14.0639 
 376   0.0000       0.518544        14.1103 
 377   0.0000       0.521394        14.1879 
 378   0.0000       0.522652        14.2221 
 379   0.0000       0.524022        14.2594 
 380   0.0000       0.526912        14.3380 
 381   0.0000       0.531295        14.4573 
 382   0.0000       0.531662        14.4673 
 383   0.0000       0.532820        14.4988 
 384   0.0000       0.537259        14.6196 
 385   0.0000       0.537488        14.6258 
 386   0.0000       0.540922        14.7192 
 387   0.0000       0.542958        14.7746 
 388   0.0000       0.545565        14.8456 
 389   0.0000       0.548073        14.9138 
 390   0.0000       0.548354        14.9215 
 391   0.0000       0.550656        14.9841 
 392   0.0000       0.553506        15.0617 
 393   0.0000       0.555179        15.1072 
 394   0.0000       0.558571        15.1995 
 395   0.0000       0.560451        15.2506 
 396   0.0000       0.560681        15.2569 
 397   0.0000       0.562012        15.2931 
 398   0.0000       0.566867        15.4252 
 399   0.0000       0.567511        15.4428 
 400   0.0000       0.570800        15.5323 
 401   0.0000       0.572602        15.5813 
 402   0.0000       0.573764        15.6129 
 403   0.0000       0.576286        15.6815 
 404   0.0000       0.577556        15.7161 
 405   0.0000       0.579027        15.7561 
 406   0.0000       0.580567        15.7980 
 407   0.0000       0.583169        15.8688 
 408   0.0000       0.584997        15.9186 
 409   0.0000       0.588048        16.0016 
 410   0.0000       0.590605        16.0712 
 411   0.0000       0.591652        16.0997 
 412   0.0000       0.593246        16.1431 
 413   0.0000       0.596538        16.2326 
 414   0.0000       0.598191        16.2776 
 415   0.0000       0.598661        16.2904 
 416   0.0000       0.602133        16.3849 
 417   0.0000       0.603807        16.4304 
 418   0.0000       0.604637        16.4530 
 419   0.0000       0.606263        16.4973 
 420   0.0000       0.608097        16.5472 
 421   0.0000       0.608896        16.5689 
 422   0.0000       0.612118        16.6566 
 423   0.0000       0.614196        16.7131 
 424   0.0000       0.615146        16.7390 
 425   0.0000       0.616352        16.7718 
 426   0.0000       0.620144        16.8750 
 427   0.0000       0.622004        16.9256 
 428   0.0000       0.623299        16.9608 
 429   0.0000       0.625069        17.0090 
 430   0.0000       0.625288        17.0149 
 431   0.0000       0.626610        17.0509 
 432   0.0000       0.631143        17.1743 
 433   0.0000       0.634956        17.2780 
 434   0.0000       0.636665        17.3245 
 435   0.0000       0.638283        17.3686 
 436   0.0000       0.640458        17.4278 
 437   0.0000       0.641889        17.4667 
 438   0.0000       0.643746        17.5172 
 439   0.0000       0.644624        17.5411 
 440   0.0000       0.646162        17.5830 
 441   0.0000       0.648519        17.6471 
 442   0.0000       0.649827        17.6827 
 443   0.0000       0.652131        17.7454 
 444   0.0000       0.653649        17.7867 
 445   0.0000       0.655196        17.8288 
 446   0.0000       0.656501        17.8643 
 447   0.0000       0.657496        17.8914 
 448   0.0000       0.659864        17.9558 
 449   0.0000       0.661480        17.9998 
 450   0.0000       0.663411        18.0523 
 451   0.0000       0.664930        18.0937 
 452   0.0000       0.666013        18.1231 
 453   0.0000       0.667964        18.1762 
 454   0.0000       0.669477        18.2174 
 455   0.0000       0.670766        18.2525 
 456   0.0000       0.671977        18.2854 
 457   0.0000       0.674997        18.3676 
 458   0.0000       0.677254        18.4290 
 459   0.0000       0.677796        18.4438 
 460   0.0000       0.678948        18.4751 
 461   0.0000       0.681395        18.5417 
 462   0.0000       0.683631        18.6026 
 463   0.0000       0.683943        18.6110 
 464   0.0000       0.686784        18.6883 
 465   0.0000       0.687243        18.7008 
 466   0.0000       0.690412        18.7871 
 467   0.0000       0.691811        18.8251 
 468   0.0000       0.694900        18.9092 
 469   0.0000       0.696854        18.9624 
 470   0.0000       0.697600        18.9826 
 471   0.0000       0.699159        19.0251 
 472   0.0000       0.702187        19.1075 
 473   0.0000       0.704216        19.1627 
 474   0.0000       0.705082        19.1863 
 475   0.0000       0.708623        19.2826 
 476   0.0000       0.710178        19.3249 
 477   0.0000       0.711611        19.3639 
 478   0.0000       0.712990        19.4014 
 479   0.0000       0.716065        19.4851 
 480   0.0000       0.718387        19.5483 
 481   0.0000       0.721213        19.6252 
 482   0.0000       0.723673        19.6921 
 483   0.0000       0.724541        19.7158 
 484   0.0000       0.726866        19.7790 
 485   0.0000       0.728540        19.8246 
 486   0.0000       0.729505        19.8508 
 487   0.0000       0.730685        19.8829 
 488   0.0000       0.732411        19.9299 
 489   0.0000       0.733368        19.9560 
 490   0.0000       0.736144        20.0315 
 491   0.0000       0.738467        20.0947 
 492   0.0000       0.740182        20.1414 
 493   0.0000       0.741720        20.1832 
 494   0.0000       0.744550        20.2602 
 495   0.0000       0.747280        20.3345 
 496   0.0000       0.748193        20.3594 
 497   0.0000       0.749829        20.4039 
 498   0.0000       0.750158        20.4128 
 499   0.0000       0.752966        20.4892 
 500   0.0000       0.755261        20.5517 
 501   0.0000       0.756904        20.5964 
 502   0.0000       0.758865        20.6498 
 503   0.0000       0.761329        20.7168 
 504   0.0000       0.762904        20.7597 
 505   0.0000       0.763803        20.7841 
 506   0.0000       0.766949        20.8697 
 507   0.0000       0.768089        20.9008 
 508   0.0000       0.769575        20.9412 
 509   0.0000       0.770721        20.9724 
 510   0.0000       0.771722        20.9996 
 511   0.0000       0.775087        21.0912 
 512   0.0000       0.777894        21.1676 
 513   0.0000       0.779659        21.2156 
 514   0.0000       0.782535        21.2939 
 515   0.0000       0.786273        21.3956 
 516   0.0000       0.787448        21.4276 
 517   0.0000       0.789113        21.4729 
 518   0.0000       0.791921        21.5493 
 519   0.0000       0.794852        21.6290 
 520   0.0000       0.796854        21.6835 
 521   0.0000       0.797981        21.7142 
 522   0.0000       0.799888        21.7661 
 523   0.0000       0.801111        21.7993 
 524   0.0000       0.803542        21.8655 
 525   0.0000       0.806674        21.9507 
 526   0.0000       0.806845        21.9554 
 527   0.0000       0.809859        22.0374 
 528   0.0000       0.812117        22.0988 
 529   0.0000       0.813841        22.1457 
 530   0.0000       0.814907        22.1747 
 531   0.0000       0.818371        22.2690 
 532   0.0000       0.819290        22.2940 
 533   0.0000       0.822256        22.3747 
 534   0.0000       0.824374        22.4323 
 535   0.0000       0.827108        22.5067 
 536   0.0000       0.829161        22.5626 
 537   0.0000       0.829721        22.5779 
 538   0.0000       0.834269        22.7016 
 539   0.0000       0.834890        22.7185 
 540   0.0000       0.837850        22.7991 
 541   0.0000       0.839996        22.8575 
 542   0.0000       0.842206        22.9176 
 543   0.0000       0.844548        22.9813 
 544   0.0000       0.849141        23.1063 
 545   0.0000       0.849537        23.1171 
 546   0.0000       0.853089        23.2137 
 547   0.0000       0.855929        23.2910 
 548   0.0000       0.859132        23.3782 
 549   0.0000       0.859437        23.3865 
 550   0.0000       0.861428        23.4406 
 551   0.0000       0.865024        23.5385 
 552   0.0000       0.865537        23.5525 
 553   0.0000       0.868142        23.6233 
 554   0.0000       0.876456        23.8496 
 555   0.0000       0.878330        23.9006 
 556   0.0000       0.879728        23.9386 
 557   0.0000       0.881253        23.9801 
 558   0.0000       0.882680        24.0189 
 559   0.0000       0.883393        24.0383 
 560   0.0000       0.888184        24.1687 
 561   0.0000       0.889622        24.2078 
 562   0.0000       0.890705        24.2373 
 563   0.0000       0.892366        24.2825 
 564   0.0000       0.895347        24.3636 
 565   0.0000       0.897534        24.4231 
 566   0.0000       0.901018        24.5179 
 567   0.0000       0.904229        24.6053 
 568   0.0000       0.905905        24.6509 
 569   0.0000       0.909697        24.7541 
 570   0.0000       0.911217        24.7955 
 571   0.0000       0.915388        24.9090 
 572   0.0000       0.917260        24.9599 
 573   0.0000       0.919826        25.0297 
 574   0.0000       0.922863        25.1124 
 575   0.0000       0.925321        25.1793 
 576   0.0000       0.928784        25.2735 
 577   0.0000       0.930176        25.3114 
 578   0.0000       0.933151        25.3923 
 579   0.0000       0.934480        25.4285 
 580   0.0000       0.936542        25.4846 
 581   0.0000       0.938613        25.5410 
 582   0.0000       0.940586        25.5947 
 583   0.0000       0.945207        25.7204 
 584   0.0000       0.947297        25.7773 
 585   0.0000       0.951062        25.8797 
 586   0.0000       0.953146        25.9364 
 587   0.0000       0.953425        25.9440 
 588   0.0000       0.958594        26.0847 
 589   0.0000       0.960786        26.1443 
 590   0.0000       0.967225        26.3195 
 591   0.0000       0.969505        26.3816 
 592   0.0000       0.971227        26.4284 
 593   0.0000       0.973744        26.4969 
 594   0.0000       0.979923        26.6651 
 595   0.0000       0.980729        26.6870 
 596   0.0000       0.984141        26.7798 
 597   0.0000       0.989380        26.9224 
 598   0.0000       0.990858        26.9626 
 599   0.0000       0.994193        27.0534 
 600   0.0000       0.998891        27.1812 
 601   0.0000       1.001160        27.2430 
 602   0.0000       1.005889        27.3716 
 603   0.0000       1.006209        27.3803 
 604   0.0000       1.010612        27.5002 
 605   0.0000       1.011619        27.5276 
 606   0.0000       1.013101        27.5679 
 607   0.0000       1.014755        27.6129 
 608   0.0000       1.015686        27.6382 
 609   0.0000       1.022733        27.8300 
 610   0.0000       1.027380        27.9564 
 611   0.0000       1.031236        28.0614 
 612   0.0000       1.033917        28.1343 
 613   0.0000       1.035646        28.1814 
 614   0.0000       1.037318        28.2268 
 615   0.0000       1.040725        28.3196 
 616   0.0000       1.043933        28.4069 
 617   0.0000       1.044514        28.4227 
 618   0.0000       1.049090        28.5472 
 619   0.0000       1.052709        28.6457 
 620   0.0000       1.055628        28.7251 
 621   0.0000       1.058259        28.7967 
 622   0.0000       1.059304        28.8251 
 623   0.0000       1.061810        28.8933 
 624   0.0000       1.066597        29.0236 
 625   0.0000       1.069394        29.0997 
 626   0.0000       1.075377        29.2625 
 627   0.0000       1.076904        29.3040 
 628   0.0000       1.079246        29.3678 
 629   0.0000       1.081434        29.4273 
 630   0.0000       1.084392        29.5078 
 631   0.0000       1.091213        29.6934 
 632   0.0000       1.091972        29.7141 
 633   0.0000       1.093507        29.7558 
 634   0.0000       1.095127        29.7999 
 635   0.0000       1.099554        29.9204 
 636   0.0000       1.102093        29.9895 
 637   0.0000       1.104862        30.0648 
 638   0.0000       1.106576        30.1115 
 639   0.0000       1.109900        30.2019 
 640   0.0000       1.113996        30.3134 
 641   0.0000       1.117208        30.4008 
 642   0.0000       1.120784        30.4981 
 643   0.0000       1.126094        30.6426 
 644   0.0000       1.128431        30.7062 
 645   0.0000       1.134435        30.8695 
 646   0.0000       1.139091        30.9962 
 647   0.0000       1.139788        31.0152 
 648   0.0000       1.142197        31.0808 
 649   0.0000       1.143710        31.1219 
 650   0.0000       1.148837        31.2614 
 651   0.0000       1.150647        31.3107 
 652   0.0000       1.156607        31.4729 
 653   0.0000       1.158231        31.5171 
 654   0.0000       1.158781        31.5320 
 655   0.0000       1.163925        31.6720 
 656   0.0000       1.168188        31.7880 
 657   0.0000       1.172255        31.8987 
 658   0.0000       1.173908        31.9437 
 659   0.0000       1.179264        32.0894 
 660   0.0000       1.183520        32.2052 
 661   0.0000       1.187670        32.3182 
 662   0.0000       1.189739        32.3744 
 663   0.0000       1.192175        32.4407 
 664   0.0000       1.194475        32.5033 
 665   0.0000       1.198136        32.6029 
 666   0.0000       1.200869        32.6773 
 667   0.0000       1.202570        32.7236 
 668   0.0000       1.204054        32.7640 
 669   0.0000       1.209358        32.9083 
 670   0.0000       1.210319        32.9344 
 671   0.0000       1.215115        33.0650 
 672   0.0000       1.216078        33.0912 
 673   0.0000       1.222328        33.2612 
 674   0.0000       1.223862        33.3030 
 675   0.0000       1.227319        33.3970 
 676   0.0000       1.228841        33.4385 
 677   0.0000       1.231991        33.5242 
 678   0.0000       1.235071        33.6080 
 679   0.0000       1.239854        33.7381 
 680   0.0000       1.240098        33.7448 
 681   0.0000       1.242577        33.8122 
 682   0.0000       1.249281        33.9947 
 683   0.0000       1.253912        34.1207 
 684   0.0000       1.257017        34.2052 
 685   0.0000       1.258342        34.2412 
 686   0.0000       1.265563        34.4377 
 687   0.0000       1.267269        34.4841 
 688   0.0000       1.271581        34.6015 
 689   0.0000       1.275732        34.7144 
 690   0.0000       1.277276        34.7564 
 691   0.0000       1.281137        34.8615 
 692   0.0000       1.284768        34.9603 
 693   0.0000       1.286005        34.9940 
 694   0.0000       1.291430        35.1416 
 695   0.0000       1.292515        35.1711 
 696   0.0000       1.296311        35.2744 
 697   0.0000       1.298828        35.3429 
 698   0.0000       1.304262        35.4908 
 699   0.0000       1.305474        35.5237 
 700   0.0000       1.308602        35.6089 
 701   0.0000       1.312155        35.7056 
 702   0.0000       1.312545        35.7162 
 703   0.0000       1.315695        35.8019 
 704   0.0000       1.318198        35.8700 
 705   0.0000       1.321366        35.9562 
 706   0.0000       1.327707        36.1287 
 707   0.0000       1.328321        36.1455 
 708   0.0000       1.332998        36.2727 
 709   0.0000       1.335321        36.3359 
 710   0.0000       1.337174        36.3863 
 711   0.0000       1.339225        36.4422 
 712   0.0000       1.339977        36.4626 
 713   0.0000       1.347773        36.6748 
 714   0.0000       1.349364        36.7181 
 715   0.0000       1.354413        36.8554 
 716   0.0000       1.358297        36.9611 
 717   0.0000       1.358926        36.9782 
 718   0.0000       1.362323        37.0707 
 719   0.0000       1.365170        37.1482 
 720   0.0000       1.367894        37.2223 
 721   0.0000       1.372642        37.3515 
 722   0.0000       1.376346        37.4523 
 723   0.0000       1.378076        37.4993 
 724   0.0000       1.379377        37.5347 
 725   0.0000       1.385720        37.7073 
 726   0.0000       1.386269        37.7223 
 727   0.0000       1.387701        37.7613 
 728   0.0000       1.397019        38.0148 
 729   0.0000       1.397931        38.0396 
 730   0.0000       1.399913        38.0936 
 731   0.0000       1.402305        38.1586 
 732   0.0000       1.406126        38.2626 
 733   0.0000       1.408071        38.3156 
 734   0.0000       1.410582        38.3839 
 735   0.0000       1.412893        38.4468 
 736   0.0000       1.418091        38.5882 
 737   0.0000       1.418778        38.6069 
 738   0.0000       1.421494        38.6808 
 739   0.0000       1.423044        38.7230 
 740   0.0000       1.427284        38.8384 
 741   0.0000       1.429399        38.8959 
 742   0.0000       1.432897        38.9911 
 743   0.0000       1.433600        39.0102 
 744   0.0000       1.435646        39.0659 
 745   0.0000       1.442118        39.2420 
[...]
      f+2     :     0.003965
      f-2     :     0.005179
      f+3     :     0.003682
      f-3     :     0.005877
 51 H s       :     0.679635  s :     0.679635
      pz      :     0.085423  p :     0.332751
      px      :     0.159412
      py      :     0.087916
      dz2     :     0.003081  d :     0.029270
      dxz     :     0.009045
      dyz     :     0.000208
      dx2y2   :     0.007576
      dxy     :     0.009360
 52 H s       :     0.699262  s :     0.699262
      pz      :     0.086547  p :     0.277469
      px      :     0.087306
      py      :     0.103617
      dz2     :     0.006175  d :     0.029012
      dxz     :     0.003904
      dyz     :     0.006678
      dx2y2   :     0.006664
      dxy     :     0.005591
 53 C s       :     2.626707  s :     2.626707
      pz      :     0.903562  p :     2.664944
      px      :     0.902921
      py      :     0.858461
      dz2     :     0.096221  d :     0.553230
      dxz     :     0.071598
      dyz     :     0.144308
      dx2y2   :     0.113386
      dxy     :     0.127718
      f0      :     0.004915  f :     0.031847
      f+1     :     0.001083
      f-1     :     0.005518
      f+2     :     0.005038
      f-2     :     0.004146
      f+3     :     0.005218
      f-3     :     0.005929
 54 H s       :     0.648296  s :     0.648296
      pz      :     0.150452  p :     0.402153
      px      :     0.143330
      py      :     0.108371
      dz2     :     0.006294  d :     0.027882
      dxz     :     0.006915
      dyz     :     0.003215
      dx2y2   :     0.006121
      dxy     :     0.005337
 55 H s       :     0.688049  s :     0.688049
      pz      :     0.115404  p :     0.274570
      px      :     0.069660
      py      :     0.089505
      dz2     :     0.009681  d :     0.029027
      dxz     :     0.007397
      dyz     :     0.007909
      dx2y2   :     0.002350
      dxy     :     0.001690
 56 H s       :     0.676226  s :     0.676226
      pz      :     0.094259  p :     0.328221
      px      :     0.088678
      py      :     0.145284
      dz2     :     0.002833  d :     0.029473
      dxz     :     0.000343
      dyz     :     0.009421
      dx2y2   :     0.008065
      dxy     :     0.008812
 57 C s       :     2.647880  s :     2.647880
      pz      :     0.897975  p :     2.662693
      px      :     0.882877
      py      :     0.881841
      dz2     :     0.168536  d :     0.983385
      dxz     :     0.195223
      dyz     :     0.212494
      dx2y2   :     0.208879
      dxy     :     0.198253
      f0      :     0.004541  f :     0.042121
      f+1     :     0.005015
      f-1     :     0.004694
      f+2     :     0.007698
      f-2     :     0.005097
      f+3     :     0.007990
      f-3     :     0.007087
 58 H s       :     0.696744  s :     0.696744
      pz      :     0.122969  p :     0.280342
      px      :     0.078249
      py      :     0.079124
      dz2     :     0.009357  d :     0.029049
      dxz     :     0.008254
      dyz     :     0.008549
      dx2y2   :     0.001734
      dxy     :     0.001155
 59 H s       :     0.689578  s :     0.689578
      pz      :     0.097239  p :     0.303679
      px      :     0.126631
      py      :     0.079809
      dz2     :     0.004501  d :     0.029209
      dxz     :     0.007817
      dyz     :     0.001854
      dx2y2   :     0.007466
      dxy     :     0.007571
 60 H s       :     0.678859  s :     0.678859
      pz      :     0.113568  p :     0.315138
      px      :     0.119773
      py      :     0.081796
      dz2     :     0.006514  d :     0.028997
      dxz     :     0.006565
      dyz     :     0.004000
      dx2y2   :     0.006201
      dxy     :     0.005718
 61 C s       :     2.627309  s :     2.627309
      pz      :     0.871689  p :     2.662915
      px      :     0.906208
      py      :     0.885017
      dz2     :     0.156009  d :     0.558039
      dxz     :     0.070935
      dyz     :     0.131085
      dx2y2   :     0.090796
      dxy     :     0.109215
      f0      :     0.004007  f :     0.031835
      f+1     :     0.005361
      f-1     :     0.006867
      f+2     :     0.004744
      f-2     :     0.003705
      f+3     :     0.004511
      f-3     :     0.002640
 62 H s       :     0.676068  s :     0.676068
      pz      :     0.083564  p :     0.334447
      px      :     0.162505
      py      :     0.088378
      dz2     :     0.002765  d :     0.029035
      dxz     :     0.008103
      dyz     :     0.001026
      dx2y2   :     0.007895
      dxy     :     0.009245
 63 H s       :     0.695503  s :     0.695503
      pz      :     0.076931  p :     0.281102
      px      :     0.091334
      py      :     0.112837
      dz2     :     0.002665  d :     0.029154
      dxz     :     0.002558
      dyz     :     0.006813
      dx2y2   :     0.009406
      dxy     :     0.007711
 64 H s       :     0.690375  s :     0.690375
      pz      :     0.111192  p :     0.306024
      px      :     0.082340
      py      :     0.112492
      dz2     :     0.009396  d :     0.029084
      dxz     :     0.006611
      dyz     :     0.007784
      dx2y2   :     0.002472
      dxy     :     0.002821
 65 C s       :     2.631864  s :     2.631864
      pz      :     0.872166  p :     2.667120
      px      :     0.912198
      py      :     0.882756
      dz2     :     0.141664  d :     0.540265
      dxz     :     0.089739
      dyz     :     0.121752
      dx2y2   :     0.083962
      dxy     :     0.103148
      f0      :     0.004524  f :     0.031619
      f+1     :     0.005246
      f-1     :     0.006284
      f+2     :     0.003783
      f-2     :     0.004836
      f+3     :     0.004951
      f-3     :     0.001995
 66 H s       :     0.682890  s :     0.682890
      pz      :     0.076753  p :     0.307803
      px      :     0.146742
      py      :     0.084307
      dz2     :     0.002943  d :     0.029072
      dxz     :     0.008656
      dyz     :     0.001059
      dx2y2   :     0.007428
      dxy     :     0.008987
 67 H s       :     0.691284  s :     0.691284
      pz      :     0.114962  p :     0.312616
      px      :     0.087298
      py      :     0.110356
      dz2     :     0.008932  d :     0.029161
      dxz     :     0.006739
      dyz     :     0.007098
      dx2y2   :     0.003360
      dxy     :     0.003031
 68 H s       :     0.698265  s :     0.698265
      pz      :     0.077937  p :     0.280975
      px      :     0.089347
      py      :     0.113692
      dz2     :     0.002965  d :     0.029016
      dxz     :     0.002185
      dyz     :     0.006963
      dx2y2   :     0.009070
      dxy     :     0.007833


                      *****************************
                      * MAYER POPULATION ANALYSIS *
                      *****************************

  NA   - Mulliken gross atomic population
  ZA   - Total nuclear charge
  QA   - Mulliken gross atomic charge
  VA   - Mayer's total valence
  BVA  - Mayer's bonded valence
  FA   - Mayer's free valence

  ATOM       NA         ZA         QA         VA         BVA        FA
  0 W     17.5170    14.0000    -3.5170     6.7706     6.7706     0.0000
  1 C      4.8713     6.0000     1.1287     3.6129     3.6129    -0.0000
  2 O      8.5509     8.0000    -0.5509     1.7588     1.7588     0.0000
  3 C      4.3683     6.0000     1.6317     2.7252     2.7252    -0.0000
  4 O      8.6468     8.0000    -0.6468     1.7339     1.7339    -0.0000
  5 C      4.8874     6.0000     1.1126     3.4586     3.4586    -0.0000
  6 O      8.5616     8.0000    -0.5616     1.8352     1.8352     0.0000
  7 P     14.7140    15.0000     0.2860     3.0691     3.0691    -0.0000
  8 C      5.6217     6.0000     0.3783     4.2383     4.2383     0.0000
  9 H      0.7726     1.0000     0.2274     0.6172     0.6172    -0.0000
 10 C      5.4232     6.0000     0.5768     3.8626     3.8626     0.0000
 11 H      0.8660     1.0000     0.1340     0.8289     0.8289     0.0000
 12 C      5.4364     6.0000     0.5636     4.0035     4.0035     0.0000
 13 H      0.8116     1.0000     0.1884     0.7402     0.7402     0.0000
 14 C      5.1512     6.0000     0.8488     3.0496     3.0496     0.0000
 15 P     15.1440    15.0000    -0.1440     4.1308     4.1308    -0.0000
 16 H      0.8962     1.0000     0.1038     0.7550     0.7550    -0.0000
 17 H      0.7467     1.0000     0.2533     0.7880     0.7880     0.0000
 18 C      5.3100     6.0000     0.6900     3.3171     3.3171     0.0000
 19 H      0.7791     1.0000     0.2209     0.6332     0.6332     0.0000
 20 C      6.5178     6.0000    -0.5178     4.1041     4.1041    -0.0000
 21 H      0.9409     1.0000     0.0591     0.9741     0.9741     0.0000
 22 H      0.9000     1.0000     0.1000     1.0018     1.0018     0.0000
 23 H      0.9572     1.0000     0.0428     1.1857     1.1857    -0.0000
 24 C      6.5478     6.0000    -0.5478     4.0914     4.0914     0.0000
 25 H      0.9409     1.0000     0.0591     1.0342     1.0342    -0.0000
 26 H      0.9194     1.0000     0.0806     0.9956     0.9956     0.0000
 27 H      0.8983     1.0000     0.1017     1.0229     1.0229     0.0000
 28 C      6.6064     6.0000    -0.6064     4.1104     4.1104     0.0000
 29 H      0.8851     1.0000     0.1149     1.0064     1.0064     0.0000
 30 H      0.9333     1.0000     0.0667     0.9882     0.9882     0.0000
 31 H      0.9091     1.0000     0.0909     1.0206     1.0206     0.0000
 32 C      6.4531     6.0000    -0.4531     4.0250     4.0250    -0.0000
 33 H      0.9405     1.0000     0.0595     0.9538     0.9538    -0.0000
 34 H      0.9453     1.0000     0.0547     1.1578     1.1578    -0.0000
 35 H      0.9097     1.0000     0.0903     1.0045     1.0045    -0.0000
 36 C      6.6131     6.0000    -0.6131     4.0756     4.0756    -0.0000
 37 H      0.8836     1.0000     0.1164     1.0005     1.0005     0.0000
 38 H      0.9317     1.0000     0.0683     0.9860     0.9860    -0.0000
 39 H      0.9512     1.0000     0.0488     1.1075     1.1075    -0.0000
 40 C      6.5471     6.0000    -0.5471     4.1172     4.1172     0.0000
 41 H      1.0007     1.0000    -0.0007     1.1346     1.1346    -0.0000
 42 H      0.9250     1.0000     0.0750     1.0068     1.0068    -0.0000
 43 H      0.8548     1.0000     0.1452     1.0135     1.0135    -0.0000
 44 C      6.6703     6.0000    -0.6703     4.0752     4.0752    -0.0000
 45 H      0.8810     1.0000     0.1190     1.0052     1.0052     0.0000
 46 H      0.8836     1.0000     0.1164     0.9660     0.9660    -0.0000
 47 H      0.9326     1.0000     0.0674     0.9793     0.9793    -0.0000
 48 C      6.4213     6.0000    -0.4213     4.0442     4.0442    -0.0000
 49 H      0.9524     1.0000     0.0476     1.0212     1.0212    -0.0000
 50 C      6.7590     6.0000    -0.7590     5.0876     5.0876    -0.0000
 51 H      0.9120     1.0000     0.0880     1.0859     1.0859    -0.0000
 52 H      0.9448     1.0000     0.0552     0.9916     0.9916     0.0000
 53 C      6.6411     6.0000    -0.6411     3.9343     3.9343     0.0000
 54 H      0.9024     1.0000     0.0976     1.2776     1.2776    -0.0000
 55 H      0.9218     1.0000     0.0782     0.8616     0.8616     0.0000
 56 H      0.8132     1.0000     0.1868     1.0008     1.0008    -0.0000
 57 C      5.0443     6.0000     0.9557     3.2090     3.2090    -0.0000
 58 H      0.9307     1.0000     0.0693     0.9776     0.9776     0.0000
 59 H      0.9102     1.0000     0.0898     0.9559     0.9559    -0.0000
 60 H      0.8694     1.0000     0.1306     1.0169     1.0169     0.0000
 61 C      6.5441     6.0000    -0.5441     4.1213     4.1213    -0.0000
 62 H      0.9199     1.0000     0.0801     1.0495     1.0495    -0.0000
 63 H      0.9147     1.0000     0.0853     0.9644     0.9644    -0.0000
 64 H      0.9126     1.0000     0.0874     0.9717     0.9717    -0.0000
 65 C      6.5817     6.0000    -0.5817     4.2553     4.2553    -0.0000
 66 H      0.8962     1.0000     0.1038     1.0301     1.0301     0.0000
 67 H      0.9299     1.0000     0.0701     1.0534     1.0534    -0.0000
 68 H      0.9229     1.0000     0.0771     0.9928     0.9928    -0.0000

  Mayer bond orders larger than 0.100000
B(  0-W ,  1-C ) :   1.5740 B(  0-W ,  2-O ) :   0.1336 B(  0-W ,  3-C ) :   1.4520 
B(  0-W ,  4-O ) :   0.2778 B(  0-W ,  5-C ) :   1.1361 B(  0-W ,  6-O ) :   0.1958 
B(  0-W , 10-C ) :   0.1508 B(  0-W , 15-P ) :   0.3008 B(  0-W , 18-C ) :   0.2914 
B(  0-W , 19-H ) :  -0.1327 B(  0-W , 50-C ) :   0.4775 B(  1-C ,  2-O ) :   1.5098 
B(  1-C ,  5-C ) :   0.3858 B(  1-C ,  7-P ) :   0.1341 B(  1-C , 15-P ) :   0.1044 
B(  1-C , 54-H ) :  -0.1098 B(  3-C ,  4-O ) :   1.3540 B(  3-C ,  5-C ) :   0.1572 
B(  3-C , 15-P ) :   0.1724 B(  5-C ,  6-O ) :   1.5722 B(  5-C ,  7-P ) :   0.1931 
B(  5-C , 14-C ) :  -0.1085 B(  7-P ,  8-C ) :   0.8097 B(  7-P , 10-C ) :   0.6051 
B(  7-P , 12-C ) :   0.7134 B(  7-P , 15-P ) :  -0.1530 B(  7-P , 20-C ) :   0.1066 
B(  7-P , 24-C ) :   0.1257 B(  7-P , 28-C ) :   0.1400 B(  7-P , 36-C ) :   0.1172 
B(  7-P , 40-C ) :   0.1403 B(  8-C ,  9-H ) :   0.7415 B(  8-C , 10-C ) :   0.4033 
B(  8-C , 12-C ) :   0.4176 B(  8-C , 36-C ) :   0.7644 B(  8-C , 40-C ) :   0.8345 
B( 10-C , 11-H ) :   0.7749 B( 10-C , 12-C ) :   0.3222 B( 10-C , 20-C ) :   0.7692 
B( 10-C , 24-C ) :   0.6691 B( 10-C , 40-C ) :   0.1567 B( 12-C , 13-H ) :   0.7207 
B( 12-C , 28-C ) :   0.7234 B( 12-C , 32-C ) :   0.8079 B( 12-C , 36-C ) :   0.1982 
B( 14-C , 15-P ) :   0.3868 B( 14-C , 17-H ) :   0.7409 B( 14-C , 18-C ) :   0.2220 
B( 14-C , 44-C ) :   0.6657 B( 14-C , 48-C ) :   0.7186 B( 14-C , 57-C ) :   0.2518 
B( 14-C , 61-C ) :   0.1106 B( 15-P , 16-H ) :  -0.1259 B( 15-P , 18-C ) :   0.8680 
B( 15-P , 19-H ) :   0.1085 B( 15-P , 44-C ) :   0.1452 B( 15-P , 48-C ) :   0.1693 
B( 15-P , 50-C ) :   0.3354 B( 15-P , 53-C ) :   0.1138 B( 15-P , 57-C ) :   0.7991 
B( 15-P , 61-C ) :   0.3416 B( 15-P , 62-H ) :   0.1092 B( 15-P , 65-C ) :   0.3589 
B( 16-H , 57-C ) :   0.7942 B( 18-C , 19-H ) :   0.6979 B( 18-C , 57-C ) :   0.2625 
B( 18-C , 61-C ) :   0.5120 B( 18-C , 65-C ) :   0.6648 B( 20-C , 21-H ) :   0.9137 
B( 20-C , 22-H ) :   0.9870 B( 20-C , 23-H ) :   0.9809 B( 20-C , 24-C ) :   0.2207 
B( 24-C , 25-H ) :   0.9771 B( 24-C , 26-H ) :   0.9908 B( 24-C , 27-H ) :   0.9348 
B( 28-C , 29-H ) :   0.9113 B( 28-C , 30-H ) :   0.9852 B( 28-C , 31-H ) :   0.9766 
B( 28-C , 32-C ) :   0.2171 B( 32-C , 33-H ) :   0.9127 B( 32-C , 34-H ) :   0.9805 
B( 32-C , 35-H ) :   0.9647 B( 36-C , 37-H ) :   0.8854 B( 36-C , 38-H ) :   0.9447 
B( 36-C , 39-H ) :   0.9997 B( 36-C , 40-C ) :   0.1468 B( 40-C , 41-H ) :   0.9949 
B( 40-C , 42-H ) :   0.9338 B( 40-C , 43-H ) :   0.8762 B( 44-C , 45-H ) :   0.9721 
B( 44-C , 46-H ) :   0.9913 B( 44-C , 47-H ) :   0.9748 B( 44-C , 48-C ) :   0.1857 
B( 48-C , 49-H ) :   0.9587 B( 48-C , 51-H ) :   1.0264 B( 48-C , 52-H ) :   0.9400 
B( 50-C , 53-C ) :   0.2421 B( 50-C , 54-H ) :   1.3362 B( 50-C , 55-H ) :   0.7209 
B( 50-C , 56-H ) :   1.0024 B( 50-C , 57-C ) :   0.6321 B( 53-C , 57-C ) :   0.5407 
B( 53-C , 58-H ) :   0.9652 B( 53-C , 59-H ) :   1.0082 B( 53-C , 60-H ) :   0.9967 
B( 61-C , 62-H ) :   0.9958 B( 61-C , 63-H ) :   0.9343 B( 61-C , 64-H ) :   0.9942 
B( 61-C , 65-C ) :   0.2008 B( 65-C , 66-H ) :   1.0236 B( 65-C , 67-H ) :   0.9571 
B( 65-C , 68-H ) :   0.9380 

-------
TIMINGS
-------

Total SCF time: 0 days 1 hours 15 min 8 sec 

Total time                  ....    4508.405 sec
Sum of individual times     ....    4505.028 sec  ( 99.9%)

Fock matrix formation       ....    4483.245 sec  ( 99.4%)
  XC integration            ....      44.089 sec  (  1.0% of F)
    Basis function eval.    ....       3.581 sec  (  8.1% of XC)
    Density eval.           ....      18.879 sec  ( 42.8% of XC)
    XC-Functional eval.     ....       0.210 sec  (  0.5% of XC)
    XC-Potential eval.      ....      18.918 sec  ( 42.9% of XC)
Diagonalization             ....       5.753 sec  (  0.1%)
Density matrix formation    ....       0.406 sec  (  0.0%)
Population analysis         ....       0.967 sec  (  0.0%)
Initial guess               ....       5.561 sec  (  0.1%)
Orbital Transformation      ....       0.000 sec  (  0.0%)
Orbital Orthonormalization  ....       0.000 sec  (  0.0%)
DIIS solution               ....       7.300 sec  (  0.2%)
Grid generation             ....       1.795 sec  (  0.0%)


-------------------------------------------------------------------------------
                          DFT DISPERSION CORRECTION                            
                                                                               
                              DFTD3 V3.1  Rev 1                                
                          USING Becke-Johnson damping                          
-------------------------------------------------------------------------------
The TPSSH functional is recognized
Active option DFTDOPT                   ...         4   

molecular C6(AA) [au] = 50197.659412 


            DFT-D V3
 parameters
 s6 scaling factor         :     1.0000 
 a1 scaling factor         :     0.4529 
 s8 scaling factor         :     2.2382 
 a2 scaling factor         :     4.6550 
 ad hoc parameters k1-k3   :    16.0000     1.3333    -4.0000 

 Edisp/kcal,au: -89.494909594595  -0.142619201378 
 E6   /kcal   : -40.866848876 
 E8   /kcal   : -48.628060719 
 % E8         :  54.336119159 

-------------------------   ----------------
Dispersion correction           -0.142619201
-------------------------   ----------------


-------------------------   --------------------
FINAL SINGLE POINT ENERGY     -1801.823116415383
-------------------------   --------------------


                            ***************************************
                            *     ORCA property calculations      *
                            ***************************************

                                    ---------------------
                                    Active property flags
                                    ---------------------
   (+) Dipole Moment


------------------------------------------------------------------------------
                       ORCA ELECTRIC PROPERTIES CALCULATION
------------------------------------------------------------------------------

Dipole Moment Calculation                       ... on
Quadrupole Moment Calculation                   ... off
Polarizability Calculation                      ... off
GBWName                                         ... MOR09_ed07.gbw
Electron density file                           ... MOR09_ed07.scfp
The origin for moment calculation is the CENTER OF MASS  = ( 0.024778,  0.027164 -0.048519)

-------------
DIPOLE MOMENT
-------------
                                X             Y             Z
Electronic contribution:     17.80988      16.09752     -20.04444
Nuclear contribution   :    -17.42159     -16.73751      21.91193
                        -----------------------------------------
Total Dipole Moment    :      0.38828      -0.63999       1.86749
                        -----------------------------------------
Magnitude (a.u.)       :      2.01193
Magnitude (Debye)      :      5.11393



--------------------
Rotational spectrum 
--------------------
 
Rotational constants in cm-1:     0.007992     0.003859     0.003786 
Rotational constants in MHz :   239.602072   115.683770   113.510152 

 Dipole components along the rotational axes: 
x,y,z [a.u.] :     0.389346    -0.483626     1.913738 
x,y,z [Debye]:     0.989640    -1.229280     4.864335 

 

Timings for individual modules:

Sum of individual times         ...     4522.931 sec (=  75.382 min)
GTO integral calculation        ...       14.078 sec (=   0.235 min)   0.3 %
SCF iterations                  ...     4508.854 sec (=  75.148 min)  99.7 %
                             ****ORCA TERMINATED NORMALLY****
TOTAL RUN TIME: 0 days 1 hours 15 minutes 23 seconds 928 msec
