
                                 *****************
                                 * O   R   C   A *
                                 *****************

           --- An Ab Initio, DFT and Semiempirical electronic structure package ---

                  #######################################################
                  #                        -***-                        #
                  #          Department of theory and spectroscopy      #
                  #               Directorship: Frank Neese             #
                  #        Max Planck Institute fuer Kohlenforschung    #
                  #                Kaiser Wilhelm Platz 1               #
                  #                 D-45470 Muelheim/Ruhr               #
                  #                      Germany                        #
                  #                                                     #
                  #                  All rights reserved                #
                  #                        -***-                        #
                  #######################################################


                         Program Version 4.2.0 -  RELEASE  -


 With contributions from (in alphabetic order):
   Daniel Aravena         : Magnetic Suceptibility
   Michael Atanasov       : Ab Initio Ligand Field Theory (pilot matlab implementation)
   Alexander A. Auer      : GIAO ZORA, VPT2
   Ute Becker             : Parallelization
   Giovanni Bistoni       : ED, misc. LED, open-shell LED, HFLED
   Martin Brehm           : Molecular dynamics
   Dmytro Bykov           : SCF Hessian
   Vijay G. Chilkuri      : MRCI spin determinant printing, contributions to CSF-ICE
   Dipayan Datta          : RHF DLPNO-CCSD density
   Achintya Kumar Dutta   : EOM-CC, STEOM-CC
   Dmitry Ganyushin       : Spin-Orbit,Spin-Spin,Magnetic field MRCI
   Miquel Garcia          : C-PCM Hessian, Gaussian charge scheme
   Yang Guo               : DLPNO-NEVPT2, CIM, IAO-localization
   Andreas Hansen         : Spin unrestricted coupled pair/coupled cluster methods
   Benjamin Helmich-Paris : CASSCF linear response (MC-RPA)
   Lee Huntington         : MR-EOM, pCC
   Robert Izsak           : Overlap fitted RIJCOSX, COSX-SCS-MP3, EOM
   Christian Kollmar      : KDIIS, OOCD, Brueckner-CCSD(T), CCSD density
   Simone Kossmann        : Meta GGA functionals, TD-DFT gradient, OOMP2, MP2 Hessian
   Martin Krupicka        : AUTO-CI
   Lucas Lang             : DCDCAS
   Dagmar Lenk            : GEPOL surface, SMD
   Dimitrios Liakos       : Extrapolation schemes; Compound Job, initial MDCI parallelization
   Dimitrios Manganas     : Further ROCIS development; embedding schemes
   Dimitrios Pantazis     : SARC Basis sets
   Taras Petrenko         : DFT Hessian,TD-DFT gradient, ASA, ECA, R-Raman, ABS, FL, XAS/XES, NRVS
   Peter Pinski           : DLPNO-MP2, DLPNO-MP2 Gradient
   Christoph Reimann      : Effective Core Potentials
   Marius Retegan         : Local ZFS, SOC
   Christoph Riplinger    : Optimizer, TS searches, QM/MM, DLPNO-CCSD(T), (RO)-DLPNO pert. Triples
   Tobias Risthaus        : Range-separated hybrids, TD-DFT gradient, RPA, STAB
   Michael Roemelt        : Original ROCIS implementation
   Masaaki Saitow         : Open-shell DLPNO-CCSD energy and density
   Barbara Sandhoefer     : DKH picture change effects
   Avijit Sen             : IP-ROCIS
   Kantharuban Sivalingam : CASSCF convergence, NEVPT2, FIC-MRCI
   Bernardo de Souza      : ESD, SOC TD-DFT
   Georgi Stoychev        : AutoAux, RI-MP2 NMR
   Willem Van den Heuvel  : Paramagnetic NMR
   Boris Wezisla          : Elementary symmetry handling
   Frank Wennmohs         : Technical directorship


 We gratefully acknowledge several colleagues who have allowed us to
 interface, adapt or use parts of their codes:
   Stefan Grimme, W. Hujo, H. Kruse,             : VdW corrections, initial TS optimization,
                  C. Bannwarth                     DFT functionals, gCP, sTDA/sTD-DF
   Ed Valeev, F. Pavosevic, A. Kumar             : LibInt (2-el integral package), F12 methods
   Garnet Chan, S. Sharma, J. Yang, R. Olivares  : DMRG
   Ulf Ekstrom                                   : XCFun DFT Library
   Mihaly Kallay                                 : mrcc  (arbitrary order and MRCC methods)
   Andreas Klamt, Michael Diedenhofen            : otool_cosmo (COSMO solvation model)
   Jiri Pittner, Ondrej Demel                    : Mk-CCSD
   Frank Weinhold                                : gennbo (NPA and NBO analysis)
   Christopher J. Cramer and Donald G. Truhlar   : smd solvation model
   Lars Goerigk                                  : TD-DFT with DH, B97 family of functionals
   V. Asgeirsson, H. Jonsson                     : NEB implementation
   FAccTs GmbH                                   : IRC, NEB, NEB-TS, Multilevel, MM, QM/MM, CI optimization
   S Lehtola, MJT Oliveira, MAL Marques          : LibXC Library


 Your calculation uses the libint2 library for the computation of 2-el integrals
 For citations please refer to: http://libint.valeyev.net

 Your ORCA version has been built with support for libXC version: 4.2.3
 For citations please refer to: https://tddft.org/programs/libxc/

 This ORCA versions uses:
   CBLAS   interface :  Fast vector & matrix operations
   LAPACKE interface :  Fast linear algebra routines
   SCALAPACK package :  Parallel linear algebra routines


Your calculation utilizes the atom-pairwise dispersion correction
with the Becke-Johnson damping scheme (D3BJ)
Cite in your paper:
S.Grimme, S.Ehrlich, L.Goerigk, J Comput Chem, (2011), 32, 1456–1465 
S.Grimme, J.Antony, S.Ehrlich and H.Krieg, J.Chem.Phys., 132, (2010), 154104 
   

----- Orbital basis set information -----
Your calculation utilizes the basis: def2-TZVPPD
   F. Weigend and R. Ahlrichs, Phys. Chem. Chem. Phys. 7, 3297 (2005).
   D. Rappoport and F. Furche, J. Chem. Phys. 133 134105 (2010).

----- AuxJK basis set information -----
Your calculation utilizes the auxiliary basis: def2/JK
   H-Ba, Hf-Rn: F. Weigend, J. Comput. Chem. 29, 167 (2008).

cite the ECPs for Ru [Def2-ECP] as follows:
Ce-Yb(ecp-28): M. Dolg, H. Stoll, H.Preuss, J. Chem. Phys., 1989, 90, 1730-1734.
Y-Cd(ecp-28), Hf-Hg(ecp-46): D. Andrae,U. Haeussermann, M. Dolg, H. Stoll, H. Preuss, Theor. Chim. Acta, 1990, 77, 123-141.
In-Sb(ecp-28), Tl-Bi(ecp-46): B. Metz, H. Stoll, M. Dolg, J. Chem. Phys., 2000, 113, 2563-2569.
Te-Xe(ecp-28), Po-Rn(ecp-46): K. A. Peterson, D. Figgen, E. Goll, H. Stoll, M. Dolg, J. Chem. Phys., 2003, 119, 11113-11123.
Rb(ecp-28), Cs(ecp-46): T. Leininger, A. Nicklass, W. Kuechle, H. Stoll, M. Dolg, A. Bergner, Chem. Phys. Lett., 1996, 255, 274-280.
Sr(ecp-28), Ba(ecp-46): M. Kaupp, P. V. Schleyer, H. Stoll and H. Preuss, J. Chem. Phys., 1991, 94, 1360-1366.
La(ecp-46): M. Dolg, H. Stoll, A. Savin, H. Preuss, Theor. Chim. Acta, 1989, 75, 173-194.
Lu(ecp-28): X. Cao, M. Dolg, J. Chem. Phys., 2001, 115, 7348-7355.

ECP parameters for Ru [Def2-ECP] have been obtained from:
TURBOMOLE (7.0.2)

================================================================================
                                        WARNINGS
                       Please study these warnings very carefully!
================================================================================


INFO   : the flag for use of LIBINT has been found!

================================================================================
                                       INPUT FILE
================================================================================
NAME = MOR13_ed24.in
|  1> #
|  2> # MOR13_ed24 TPSSh-D3BJ/Def2-TZVPPD
|  3> #
|  4> ! tpssh d3bj def2-tzvppd def2/jk grid4 nofinalgrid
|  5> 
|  6> *xyz 0 1
|  7> Ru       0.947158   -0.829727   -0.745491 
|  8> Cl       0.759536   -0.029843   -2.889353 
|  9> Cl       0.924249   -2.813196    0.406526 
| 10> P       -0.892858    0.059346    0.070519 
| 11> C        2.105770    0.298407    0.120511 
| 12> C       -1.060848    0.304387    1.904454 
| 13> C       -0.839571   -1.004781    2.681683 
| 14> C       -1.204393   -0.821649    4.161076 
| 15> C       -0.398097    0.318884    4.794081 
| 16> C       -0.569062    1.619286    3.999752 
| 17> C       -0.203235    1.422010    2.520494 
| 18> C       -1.361193    1.675223   -0.723442 
| 19> C       -0.190670    2.668218   -0.863157 
| 20> C       -0.617010    3.874515   -1.709852 
| 21> C       -1.846047    4.572418   -1.115292 
| 22> C       -3.005112    3.584426   -0.940399 
| 23> C       -2.585621    2.369196   -0.098214 
| 24> C       -2.266825   -1.149912   -0.318948 
| 25> C       -3.572387   -1.071522    0.495585 
| 26> C       -4.464103   -2.278800    0.161919 
| 27> C       -4.771803   -2.353480   -1.338652 
| 28> C       -3.481398   -2.368379   -2.166970 
| 29> C       -2.587234   -1.168835   -1.825450 
| 30> H        1.784946    1.202955    0.645761 
| 31> H       -2.115821    0.600966    2.014947 
| 32> H        0.212402   -1.294098    2.586311 
| 33> H       -1.418447   -1.824644    2.245913 
| 34> H       -1.028300   -1.758851    4.701667 
| 35> H       -2.278352   -0.600113    4.247046 
| 36> H        0.665500    0.042496    4.804792 
| 37> H       -0.699682    0.468438    5.837587 
| 38> H        0.050942    2.415093    4.429614 
| 39> H       -1.613622    1.955784    4.068877 
| 40> H       -0.334942    2.362910    1.978268 
| 41> H        0.854749    1.145201    2.447640 
| 42> H       -1.618911    1.357234   -1.743817 
| 43> H        0.662106    2.166051   -1.325328 
| 44> H        0.125060    3.019280    0.127484 
| 45> H       -0.846735    3.527698   -2.726710 
| 46> H        0.219033    4.578695   -1.795316 
| 47> H       -2.156025    5.410629   -1.750528 
| 48> H       -1.583038    4.996180   -0.135073 
| 49> H       -3.336384    3.234608   -1.928191 
| 50> H       -3.864727    4.078543   -0.471441 
| 51> H       -2.338056    2.702879    0.918040 
| 52> H       -3.425897    1.674720   -0.010060 
| 53> H       -1.782812   -2.105972   -0.070582 
| 54> H       -4.113822   -0.149509    0.251918 
| 55> H       -3.369403   -1.053503    1.570362 
| 56> H       -5.393534   -2.221008    0.741223 
| 57> H       -3.947864   -3.196972    0.475160 
| 58> H       -5.374229   -1.479434   -1.625752 
| 59> H       -5.376744   -3.241409   -1.557196 
| 60> H       -3.714322   -2.363052   -3.238224 
| 61> H       -2.925851   -3.294401   -1.964642 
| 62> H       -1.666731   -1.193589   -2.417765 
| 63> H       -3.111760   -0.241279   -2.093787 
| 64> C        3.546496    0.126586    0.028364 
| 65> C        4.389877    1.228237    0.286046 
| 66> C        5.770146    1.113346    0.161104 
| 67> C        6.339467   -0.106460   -0.212258 
| 68> C        5.519417   -1.212931   -0.453677 
| 69> C        4.139965   -1.102236   -0.332827 
| 70> H        3.943201    2.177101    0.573360 
| 71> H        6.405205    1.972855    0.357301 
| 72> H        5.961339   -2.166857   -0.726887 
| 73> H        3.508028   -1.975261   -0.480581 
| 74> H        7.417884   -0.197821   -0.305099 
| 75> *
| 76> 
| 77> %maxcore 5000
| 78> 
| 79> %pal
| 80> nprocs = 24
| 81> end
| 82> 
| 83> 
| 84>                          ****END OF INPUT****
================================================================================

                       ****************************
                       * Single Point Calculation *
                       ****************************

---------------------------------
CARTESIAN COORDINATES (ANGSTROEM)
---------------------------------
  Ru     0.947158   -0.829727   -0.745491
  Cl     0.759536   -0.029843   -2.889353
  Cl     0.924249   -2.813196    0.406526
  P     -0.892858    0.059346    0.070519
  C      2.105770    0.298407    0.120511
  C     -1.060848    0.304387    1.904454
  C     -0.839571   -1.004781    2.681683
  C     -1.204393   -0.821649    4.161076
  C     -0.398097    0.318884    4.794081
  C     -0.569062    1.619286    3.999752
  C     -0.203235    1.422010    2.520494
  C     -1.361193    1.675223   -0.723442
  C     -0.190670    2.668218   -0.863157
  C     -0.617010    3.874515   -1.709852
  C     -1.846047    4.572418   -1.115292
  C     -3.005112    3.584426   -0.940399
  C     -2.585621    2.369196   -0.098214
  C     -2.266825   -1.149912   -0.318948
  C     -3.572387   -1.071522    0.495585
  C     -4.464103   -2.278800    0.161919
  C     -4.771803   -2.353480   -1.338652
  C     -3.481398   -2.368379   -2.166970
  C     -2.587234   -1.168835   -1.825450
  H      1.784946    1.202955    0.645761
  H     -2.115821    0.600966    2.014947
  H      0.212402   -1.294098    2.586311
  H     -1.418447   -1.824644    2.245913
  H     -1.028300   -1.758851    4.701667
  H     -2.278352   -0.600113    4.247046
  H      0.665500    0.042496    4.804792
  H     -0.699682    0.468438    5.837587
  H      0.050942    2.415093    4.429614
  H     -1.613622    1.955784    4.068877
  H     -0.334942    2.362910    1.978268
  H      0.854749    1.145201    2.447640
  H     -1.618911    1.357234   -1.743817
  H      0.662106    2.166051   -1.325328
  H      0.125060    3.019280    0.127484
  H     -0.846735    3.527698   -2.726710
  H      0.219033    4.578695   -1.795316
  H     -2.156025    5.410629   -1.750528
  H     -1.583038    4.996180   -0.135073
  H     -3.336384    3.234608   -1.928191
  H     -3.864727    4.078543   -0.471441
  H     -2.338056    2.702879    0.918040
  H     -3.425897    1.674720   -0.010060
  H     -1.782812   -2.105972   -0.070582
  H     -4.113822   -0.149509    0.251918
  H     -3.369403   -1.053503    1.570362
  H     -5.393534   -2.221008    0.741223
  H     -3.947864   -3.196972    0.475160
  H     -5.374229   -1.479434   -1.625752
  H     -5.376744   -3.241409   -1.557196
  H     -3.714322   -2.363052   -3.238224
  H     -2.925851   -3.294401   -1.964642
  H     -1.666731   -1.193589   -2.417765
  H     -3.111760   -0.241279   -2.093787
  C      3.546496    0.126586    0.028364
  C      4.389877    1.228237    0.286046
  C      5.770146    1.113346    0.161104
  C      6.339467   -0.106460   -0.212258
  C      5.519417   -1.212931   -0.453677
  C      4.139965   -1.102236   -0.332827
  H      3.943201    2.177101    0.573360
  H      6.405205    1.972855    0.357301
  H      5.961339   -2.166857   -0.726887
  H      3.508028   -1.975261   -0.480581
  H      7.417884   -0.197821   -0.305099

----------------------------
CARTESIAN COORDINATES (A.U.)
----------------------------
  NO LB      ZA    FRAG     MASS         X           Y           Z
   0 Ru   16.0000*   0   101.070    1.789869   -1.567957   -1.408774
   1 Cl   17.0000    0    35.453    1.435315   -0.056395   -5.460086
   2 Cl   17.0000    0    35.453    1.746577   -5.316170    0.768223
   3 P    15.0000    0    30.974   -1.687257    0.112148    0.133262
   4 C     6.0000    0    12.011    3.979329    0.563908    0.227733
   5 C     6.0000    0    12.011   -2.004712    0.575208    3.598896
   6 C     6.0000    0    12.011   -1.586559   -1.898761    5.067646
   7 C     6.0000    0    12.011   -2.275973   -1.552692    7.863294
   8 C     6.0000    0    12.011   -0.752294    0.602603    9.059500
   9 C     6.0000    0    12.011   -1.075371    3.060007    7.558436
  10 C     6.0000    0    12.011   -0.384058    2.687209    4.763043
  11 C     6.0000    0    12.011   -2.572282    3.165713   -1.367107
  12 C     6.0000    0    12.011   -0.360314    5.042201   -1.631130
  13 C     6.0000    0    12.011   -1.165980    7.321772   -3.231152
  14 C     6.0000    0    12.011   -3.488523    8.640618   -2.107596
  15 C     6.0000    0    12.011   -5.678839    6.773583   -1.777097
  16 C     6.0000    0    12.011   -4.886116    4.477132   -0.185598
  17 C     6.0000    0    12.011   -4.283678   -2.173019   -0.602724
  18 C     6.0000    0    12.011   -6.750833   -2.024883    0.936520
  19 C     6.0000    0    12.011   -8.435932   -4.306308    0.305983
  20 C     6.0000    0    12.011   -9.017401   -4.447433   -2.529686
  21 C     6.0000    0    12.011   -6.578889   -4.475588   -4.094980
  22 C     6.0000    0    12.011   -4.889164   -2.208778   -3.449601
  23 H     1.0000    0     1.008    3.373059    2.273256    1.220311
  24 H     1.0000    0     1.008   -3.998322    1.135661    3.807698
  25 H     1.0000    0     1.008    0.401382   -2.445491    4.887419
  26 H     1.0000    0     1.008   -2.680476   -3.448077    4.244160
  27 H     1.0000    0     1.008   -1.943205   -3.323747    8.884863
  28 H     1.0000    0     1.008   -4.305461   -1.134049    8.025754
  29 H     1.0000    0     1.008    1.257613    0.080306    9.079741
  30 H     1.0000    0     1.008   -1.322207    0.885220   11.031441
  31 H     1.0000    0     1.008    0.096266    4.563864    8.370757
  32 H     1.0000    0     1.008   -3.049304    3.695896    7.689063
  33 H     1.0000    0     1.008   -0.632949    4.465253    3.738385
  34 H     1.0000    0     1.008    1.615242    2.164116    4.625369
  35 H     1.0000    0     1.008   -3.059298    2.564801   -3.295337
  36 H     1.0000    0     1.008    1.251199    4.093243   -2.504507
  37 H     1.0000    0     1.008    0.236329    5.705612    0.240910
  38 H     1.0000    0     1.008   -1.600097    6.666383   -5.152735
  39 H     1.0000    0     1.008    0.413912    8.652480   -3.392656
  40 H     1.0000    0     1.008   -4.074297   10.224607   -3.308019
  41 H     1.0000    0     1.008   -2.991508    9.441412   -0.255251
  42 H     1.0000    0     1.008   -6.304852    6.112523   -3.643753
  43 H     1.0000    0     1.008   -7.303276    7.707329   -0.890894
  44 H     1.0000    0     1.008   -4.418286    5.107701    1.734844
  45 H     1.0000    0     1.008   -6.474007    3.164762   -0.019011
  46 H     1.0000    0     1.008   -3.369026   -3.979710   -0.133381
  47 H     1.0000    0     1.008   -7.773997   -0.282531    0.476056
  48 H     1.0000    0     1.008   -6.367249   -1.990832    2.967554
  49 H     1.0000    0     1.008  -10.192302   -4.197097    1.400708
  50 H     1.0000    0     1.008   -7.460382   -6.041402    0.897922
  51 H     1.0000    0     1.008  -10.155821   -2.795725   -3.072226
  52 H     1.0000    0     1.008  -10.160574   -6.125375   -2.942674
  53 H     1.0000    0     1.008   -7.019051   -4.465521   -6.119357
  54 H     1.0000    0     1.008   -5.529057   -6.225516   -3.712635
  55 H     1.0000    0     1.008   -3.149665   -2.255556   -4.568914
  56 H     1.0000    0     1.008   -5.880374   -0.455951   -3.956684
  57 C     6.0000    0    12.011    6.701906    0.239213    0.053600
  58 C     6.0000    0    12.011    8.295665    2.321032    0.540549
  59 C     6.0000    0    12.011   10.903996    2.103919    0.304442
  60 C     6.0000    0    12.011   11.979856   -0.201180   -0.401109
  61 C     6.0000    0    12.011   10.430187   -2.292107   -0.857325
  62 C     6.0000    0    12.011    7.823400   -2.082924   -0.628952
  63 H     1.0000    0     1.008    7.451570    4.114125    1.083493
  64 H     1.0000    0     1.008   12.104083    3.728156    0.675201
  65 H     1.0000    0     1.008   11.265298   -4.094766   -1.373617
  66 H     1.0000    0     1.008    6.629212   -3.732702   -0.908166
  67 H     1.0000    0     1.008   14.017769   -0.373828   -0.576554
* core charge reduced due to ECP

--------------------------------
INTERNAL COORDINATES (ANGSTROEM)
--------------------------------
 Ru     0   0   0     0.000000000000     0.00000000     0.00000000
 Cl     1   0   0     2.295900847899     0.00000000     0.00000000
 Cl     1   2   0     2.293865136518   140.29965372     0.00000000
 P      1   2   3     2.200450408368    97.88463508   245.70575770
 C      1   2   3     1.834401142745   106.15174997   147.07638687
 C      4   1   2     1.857843727552   119.66760336   201.55202124
 C      6   4   1     1.538495785303   111.92830520   304.93531584
 C      7   6   4     1.534677839013   110.56418153   189.09172846
 C      8   7   6     1.533500601151   111.20310342   303.02765009
 C      9   8   7     1.533373063892   110.99509733    54.83916019
 C     10   9   8     1.536538787232   111.30219877   304.91591605
 C      4   1   2     1.860314548907   113.77815153   329.00465759
 C     12   4   1     1.541325223559   114.02259580   313.22869322
 C     13  12   4     1.534213372003   110.21466333   171.53061300
 C     14  13  12     1.533330407439   111.50724957    56.85839270
 C     15  14  13     1.533019056548   110.91143908   304.35472021
 C     16  15  14     1.536890440534   111.45310168    55.15610293
 C      4   1   2     1.871302960972   106.00288258    85.96343543
 C     18   4   1     1.540811843164   118.63502093   160.04180791
 C     19  18   4     1.537533932470   109.67879145   188.65236698
 C     20  19  18     1.533613288427   111.52681273   302.70640496
 C     21  20  19     1.533452885924   111.11023644    55.19416831
 C     22  21  20     1.534624050780   111.25414405   305.36994244
 H      5   1   2     1.094085319242   123.35891616    88.80852432
 H      6   4   1     1.101424458154   102.77665300   188.77919001
 H      7   6   4     1.095192831241   108.59948900    68.18161816
 H      7   6   4     1.094151842774   111.12019359   311.97117441
 H      8   7   6     1.096172870826   109.58378276   180.74942481
 H      8   7   6     1.099934986205   109.35878047    63.88919413
 H      9   8   7     1.098973898905   109.01625047   294.71507312
 H      9   8   7     1.096460069121   110.46735465   177.49383577
 H     10   9   8     1.096583366785   110.44742320   182.89603360
 H     10   9   8     1.099597546027   109.44335461    65.49257885
 H     11  10   9     1.093914338020   109.76117855   179.94201006
 H     11  10   9     1.096020561875   109.04082875   297.44393107
 H     12   4   1     1.099409256042   101.76452229    67.19578351
 H     13  12   4     1.092245684499   109.57768061    50.12568195
 H     13  12   4     1.097405828135   110.04511934   291.85119040
 H     14  13  12     1.098660911873   108.70453267   295.95941390
 H     14  13  12     1.096422120146   109.63960483   179.47554812
 H     15  14  13     1.096452833779   110.48185524   181.87458688
 H     15  14  13     1.099807826252   109.22538520    64.65208319
 H     16  15  14     1.099020839826   109.29884830   294.79558208
 H     16  15  14     1.096818655785   110.54837093   177.34121982
 H     17  16  15     1.097909361573   109.17501416    64.32425897
 H     17  16  15     1.093678105508   109.66708234   181.20712713
 H     18   4   1     1.100002262600   101.04555854    43.15949200
 H     19  18   4     1.096646450905   110.09956968    68.71171871
 H     19  18   4     1.093925403465   111.28444480   309.96713563
 H     20  19  18     1.096711002699   109.60269819   180.08040961
 H     20  19  18     1.098936963973   108.76831050    63.47048767
 H     21  20  19     1.099681729225   109.06613910   294.85716105
 H     21  20  19     1.096418260728   110.19197978   177.89902617
 H     22  21  20     1.096296994076   110.42552651   183.28147898
 H     22  21  20     1.098674580245   109.52522575    65.76064239
 H     23  22  21     1.094886109488   110.59715164   179.63190621
 H     23  22  21     1.098859592205   109.10683448   296.76897607
 C      5   1   2     1.453858635744   121.55350982   275.79171145
 C     58   5   1     1.411143667415   119.23695835   157.74616389
 C     59  58   5     1.390666371782   120.81629153   182.30044999
 C     60  59  58     1.396943900706   120.04319208   359.43801459
 C     61  60  59     1.398228597155   119.87548172   359.69021481
 C     62  61  60     1.389152952640   120.28607460     0.44379187
 H     59  58   5     1.087387545481   118.94509438     1.55003577
 H     60  59  58     1.086530679443   119.90320828   179.62755910
 H     62  61  60     1.086238266524   119.98461143   181.08623699
 H     63  62  61     1.087818122257   120.07262893   182.56686235
 H     61  60  59     1.086254808731   120.05900449   180.30584786

---------------------------
INTERNAL COORDINATES (A.U.)
---------------------------
 Ru     0   0   0     0.000000000000     0.00000000     0.00000000
 Cl     1   0   0     4.338623833167     0.00000000     0.00000000
 Cl     1   2   0     4.334776896168   140.29965372     0.00000000
 P      1   2   3     4.158248643090    97.88463508   245.70575770
 C      1   2   3     3.466515779540   106.15174997   147.07638687
 C      4   1   2     3.510815844698   119.66760336   201.55202124
 C      6   4   1     2.907335692414   111.92830520   304.93531584
 C      7   6   4     2.900120819532   110.56418153   189.09172846
 C      8   7   6     2.897896162379   111.20310342   303.02765009
 C      9   8   7     2.897655151888   110.99509733    54.83916019
 C     10   9   8     2.903637502016   111.30219877   304.91591605
 C      4   1   2     3.515485020383   113.77815153   329.00465759
 C     12   4   1     2.912682555831   114.02259580   313.22869322
 C     13  12   4     2.899243104086   110.21466333   171.53061300
 C     14  13  12     2.897574542874   111.50724957    56.85839270
 C     15  14  13     2.896986174957   110.91143908   304.35472021
 C     16  15  14     2.904302030452   111.45310168    55.15610293
 C      4   1   2     3.536250109833   106.00288258    85.96343543
 C     18   4   1     2.911712407481   118.63502093   160.04180791
 C     19  18   4     2.905518053979   109.67879145   188.65236698
 C     20  19  18     2.898109110470   111.52681273   302.70640496
 C     21  20  19     2.897805993668   111.11023644    55.19416831
 C     22  21  20     2.900019174503   111.25414405   305.36994244
 H      5   1   2     2.067521620510   123.35891616    88.80852432
 H      6   4   1     2.081390583113   102.77665300   188.77919001
 H      7   6   4     2.069614514880   108.59948900    68.18161816
 H      7   6   4     2.067647331767   111.12019359   311.97117441
 H      8   7   6     2.071466521295   109.58378276   180.74942481
 H      8   7   6     2.078575889045   109.35878047    63.88919413
 H      9   8   7     2.076759697258   109.01625047   294.71507312
 H      9   8   7     2.072009247419   110.46735465   177.49383577
 H     10   9   8     2.072242246237   110.44742320   182.89603360
 H     10   9   8     2.077938219523   109.44335461    65.49257885
 H     11  10   9     2.067198512827   109.76117855   179.94201006
 H     11  10   9     2.071178699090   109.04082875   297.44393107
 H     12   4   1     2.077582403017   101.76452229    67.19578351
 H     13  12   4     2.064045214660   109.57768061    50.12568195
 H     13  12   4     2.073796472944   110.04511934   291.85119040
 H     14  13  12     2.076168237484   108.70453267   295.95941390
 H     14  13  12     2.071937534249   109.63960483   179.47554812
 H     15  14  13     2.071995574603   110.48185524   181.87458688
 H     15  14  13     2.078335591560   109.22538520    64.65208319
 H     16  15  14     2.076848402743   109.29884830   294.79558208
 H     16  15  14     2.072686878009   110.54837093   177.34121982
 H     17  16  15     2.074748013242   109.17501416    64.32425897
 H     17  16  15     2.066752098076   109.66708234   181.20712713
 H     18   4   1     2.078703023008   101.04555854    43.15949200
 H     19  18   4     2.072361457948   110.09956968    68.71171871
 H     19  18   4     2.067219423488   111.28444480   309.96713563
 H     20  19  18     2.072483443159   109.60269819   180.08040961
 H     20  19  18     2.076689900352   108.76831050    63.47048767
 H     21  20  19     2.078097302713   109.06613910   294.85716105
 H     21  20  19     2.071930241006   110.19197978   177.89902617
 H     22  21  20     2.071701080246   110.42552651   183.28147898
 H     22  21  20     2.076194066964   109.52522575    65.76064239
 H     23  22  21     2.069034894767   110.59715164   179.63190621
 H     23  22  21     2.076543688900   109.10683448   296.76897607
 C      5   1   2     2.747394658992   121.55350982   275.79171145
 C     58   5   1     2.666675067032   119.23695835   157.74616389
 C     59  58   5     2.627978586322   120.81629153   182.30044999
 C     60  59  58     2.639841396787   120.04319208   359.43801459
 C     61  60  59     2.642269121240   119.87548172   359.69021481
 C     62  61  60     2.625118638618   120.28607460     0.44379187
 H     59  58   5     2.054864662397   118.94509438     1.55003577
 H     60  59  58     2.053245420251   119.90320828   179.62755910
 H     62  61  60     2.052692839915   119.98461143   181.08623699
 H     63  62  61     2.055678334582   120.07262893   182.56686235
 H     61  60  59     2.052724100156   120.05900449   180.30584786

---------------------
BASIS SET INFORMATION
---------------------
There are 5 groups of distinct atoms

 Group   1 Type Ru  : 7s7p5d2f1g contracted to 6s4p3d2f1g pattern {211111/4111/311/11/1}
 Group   2 Type Cl  : 15s10p4d1f contracted to 6s6p4d1f pattern {732111/511111/1111/1}
 Group   3 Type P   : 15s9p4d1f contracted to 6s5p4d1f pattern {732111/51111/1111/1}
 Group   4 Type C   : 12s6p3d1f contracted to 6s3p3d1f pattern {621111/411/111/1}
 Group   5 Type H   : 5s3p1d contracted to 3s3p1d pattern {311/111/1}

Atom   0Ru   basis set group =>   1
Atom   1Cl   basis set group =>   2
Atom   2Cl   basis set group =>   2
Atom   3P    basis set group =>   3
Atom   4C    basis set group =>   4
Atom   5C    basis set group =>   4
Atom   6C    basis set group =>   4
Atom   7C    basis set group =>   4
Atom   8C    basis set group =>   4
Atom   9C    basis set group =>   4
Atom  10C    basis set group =>   4
Atom  11C    basis set group =>   4
Atom  12C    basis set group =>   4
Atom  13C    basis set group =>   4
Atom  14C    basis set group =>   4
Atom  15C    basis set group =>   4
Atom  16C    basis set group =>   4
Atom  17C    basis set group =>   4
Atom  18C    basis set group =>   4
Atom  19C    basis set group =>   4
Atom  20C    basis set group =>   4
Atom  21C    basis set group =>   4
Atom  22C    basis set group =>   4
Atom  23H    basis set group =>   5
Atom  24H    basis set group =>   5
Atom  25H    basis set group =>   5
Atom  26H    basis set group =>   5
Atom  27H    basis set group =>   5
Atom  28H    basis set group =>   5
Atom  29H    basis set group =>   5
Atom  30H    basis set group =>   5
Atom  31H    basis set group =>   5
Atom  32H    basis set group =>   5
Atom  33H    basis set group =>   5
Atom  34H    basis set group =>   5
Atom  35H    basis set group =>   5
Atom  36H    basis set group =>   5
Atom  37H    basis set group =>   5
Atom  38H    basis set group =>   5
Atom  39H    basis set group =>   5
Atom  40H    basis set group =>   5
Atom  41H    basis set group =>   5
Atom  42H    basis set group =>   5
Atom  43H    basis set group =>   5
Atom  44H    basis set group =>   5
Atom  45H    basis set group =>   5
Atom  46H    basis set group =>   5
Atom  47H    basis set group =>   5
Atom  48H    basis set group =>   5
Atom  49H    basis set group =>   5
Atom  50H    basis set group =>   5
Atom  51H    basis set group =>   5
Atom  52H    basis set group =>   5
Atom  53H    basis set group =>   5
Atom  54H    basis set group =>   5
Atom  55H    basis set group =>   5
Atom  56H    basis set group =>   5
Atom  57C    basis set group =>   4
Atom  58C    basis set group =>   4
Atom  59C    basis set group =>   4
Atom  60C    basis set group =>   4
Atom  61C    basis set group =>   4
Atom  62C    basis set group =>   4
Atom  63H    basis set group =>   5
Atom  64H    basis set group =>   5
Atom  65H    basis set group =>   5
Atom  66H    basis set group =>   5
Atom  67H    basis set group =>   5
----------------------------------
AUXILIARY/JK BASIS SET INFORMATION
----------------------------------
There are 5 groups of distinct atoms

 Group   1 Type Ru  : 13s12p10d9f6g3h2i contracted to 11s10p9d8f6g3h2i pattern {31111111111/3111111111/211111111/21111111/111111/111/11}
 Group   2 Type Cl  : 16s12p10d4f1g contracted to 13s11p9d4f1g pattern {4111111111111/21111111111/211111111/1111/1}
 Group   3 Type P   : 16s12p10d4f1g contracted to 13s11p9d4f1g pattern {4111111111111/21111111111/211111111/1111/1}
 Group   4 Type C   : 14s10p6d2f1g contracted to 10s8p5d1f1g pattern {5111111111/31111111/21111/2/1}
 Group   5 Type H   : 4s2p2d contracted to 2s2p2d pattern {31/11/11}

Atom   0Ru   basis set group =>   1
Atom   1Cl   basis set group =>   2
Atom   2Cl   basis set group =>   2
Atom   3P    basis set group =>   3
Atom   4C    basis set group =>   4
Atom   5C    basis set group =>   4
Atom   6C    basis set group =>   4
Atom   7C    basis set group =>   4
Atom   8C    basis set group =>   4
Atom   9C    basis set group =>   4
Atom  10C    basis set group =>   4
Atom  11C    basis set group =>   4
Atom  12C    basis set group =>   4
Atom  13C    basis set group =>   4
Atom  14C    basis set group =>   4
Atom  15C    basis set group =>   4
Atom  16C    basis set group =>   4
Atom  17C    basis set group =>   4
Atom  18C    basis set group =>   4
Atom  19C    basis set group =>   4
Atom  20C    basis set group =>   4
Atom  21C    basis set group =>   4
Atom  22C    basis set group =>   4
Atom  23H    basis set group =>   5
Atom  24H    basis set group =>   5
Atom  25H    basis set group =>   5
Atom  26H    basis set group =>   5
Atom  27H    basis set group =>   5
Atom  28H    basis set group =>   5
Atom  29H    basis set group =>   5
Atom  30H    basis set group =>   5
Atom  31H    basis set group =>   5
Atom  32H    basis set group =>   5
Atom  33H    basis set group =>   5
Atom  34H    basis set group =>   5
Atom  35H    basis set group =>   5
Atom  36H    basis set group =>   5
Atom  37H    basis set group =>   5
Atom  38H    basis set group =>   5
Atom  39H    basis set group =>   5
Atom  40H    basis set group =>   5
Atom  41H    basis set group =>   5
Atom  42H    basis set group =>   5
Atom  43H    basis set group =>   5
Atom  44H    basis set group =>   5
Atom  45H    basis set group =>   5
Atom  46H    basis set group =>   5
Atom  47H    basis set group =>   5
Atom  48H    basis set group =>   5
Atom  49H    basis set group =>   5
Atom  50H    basis set group =>   5
Atom  51H    basis set group =>   5
Atom  52H    basis set group =>   5
Atom  53H    basis set group =>   5
Atom  54H    basis set group =>   5
Atom  55H    basis set group =>   5
Atom  56H    basis set group =>   5
Atom  57C    basis set group =>   4
Atom  58C    basis set group =>   4
Atom  59C    basis set group =>   4
Atom  60C    basis set group =>   4
Atom  61C    basis set group =>   4
Atom  62C    basis set group =>   4
Atom  63H    basis set group =>   5
Atom  64H    basis set group =>   5
Atom  65H    basis set group =>   5
Atom  66H    basis set group =>   5
Atom  67H    basis set group =>   5
-------------------------
ECP PARAMETER INFORMATION
-------------------------

 Group 1, Type Ru ECP Def2-ECP (replacing 28 core electrons, lmax=3)

Atom   0Ru   ECP group =>   1



           ************************************************************
           *        Program running with 24 parallel MPI-processes    *
           *              working on a common directory               *
           ************************************************************
------------------------------------------------------------------------------
                           ORCA GTO INTEGRAL CALCULATION
------------------------------------------------------------------------------

                         BASIS SET STATISTICS AND STARTUP INFO

 # of primitive gaussian shells          ... 1012
 # of primitive gaussian functions       ... 2330
 # of contracted shells                  ...  664
 # of contracted basis functions         ... 1794
 Highest angular momentum                ...    4
 Maximum contraction depth               ...    7
 Integral package used                   ... LIBINT
 Integral threshhold            Thresh   ...  1.000e-10
 Primitive cut-off              TCut     ...  1.000e-11


------------------------------ INTEGRAL EVALUATION ----------------------------


 * One electron integrals 

   ECP integrals                         ... done
 Pre-screening matrix                    ... done
 Shell pair data                         ... done (   0.053 sec)



           ************************************************************
           *        Program running with 24 parallel MPI-processes    *
           *              working on a common directory               *
           ************************************************************
-------------------------------------------------------------------------------
                                 ORCA SCF
-------------------------------------------------------------------------------

------------
SCF SETTINGS
------------
Hamiltonian:
 Density Functional     Method          .... DFT(GTOs)
 Exchange Functional    Exchange        .... TPSS
 Correlation Functional Correlation     .... TPSS
 LDA part of GGA corr.  LDAOpt          .... PW91-LDA
 Gradients option       PostSCFGGA      .... off
 Hybrid DFT is turned on
   Fraction HF Exchange ScalHFX         ....  0.100000
   Scaling of DF-GGA-X  ScalDFX         ....  0.900000
   Scaling of DF-GGA-C  ScalDFC         ....  1.000000
   Scaling of DF-LDA-C  ScalLDAC        ....  1.000000
   Perturbative correction              ....  0.000000
   Density functional embedding theory  .... OFF
   NL short-range parameter             ....  5.200000


General Settings:
 Integral files         IntName         .... MOR13_ed24
 Hartree-Fock type      HFTyp           .... RHF
 Total Charge           Charge          ....    0
 Multiplicity           Mult            ....    1
 Number of Electrons    NEL             ....  254
 Basis Dimension        Dim             .... 1794
 Nuclear Repulsion      ENuc            ....   3925.9709139951 Eh

Convergence Acceleration:
 DIIS                   CNVDIIS         .... on
   Start iteration      DIISMaxIt       ....    12
   Startup error        DIISStart       ....  0.200000
   # of expansion vecs  DIISMaxEq       ....     5
   Bias factor          DIISBfac        ....   1.050
   Max. coefficient     DIISMaxC        ....  10.000
 Newton-Raphson         CNVNR           .... off
 SOSCF                  CNVSOSCF        .... off
 Level Shifting         CNVShift        .... on
   Level shift para.    LevelShift      ....    0.2500
   Turn off err/grad.   ShiftErr        ....    0.0010
 Zerner damping         CNVZerner       .... off
 Static damping         CNVDamp         .... on
   Fraction old density DampFac         ....    0.7000
   Max. Damping (<1)    DampMax         ....    0.9800
   Min. Damping (>=0)   DampMin         ....    0.0000
   Turn off err/grad.   DampErr         ....    0.1000
 Fernandez-Rico         CNVRico         .... off

SCF Procedure:
 Maximum # iterations   MaxIter         ....   125
 SCF integral mode      SCFMode         .... Direct
   Integral package                     .... LIBINT
 Reset frequency        DirectResetFreq ....    20
 Integral Threshold     Thresh          ....  1.000e-10 Eh
 Primitive CutOff       TCut            ....  1.000e-11 Eh

Convergence Tolerance:
 Convergence Check Mode ConvCheckMode   .... Total+1el-Energy
 Convergence forced     ConvForced      .... 0
 Energy Change          TolE            ....  1.000e-06 Eh
 1-El. energy change                    ....  1.000e-03 Eh
 DIIS Error             TolErr          ....  1.000e-06


Diagonalization of the overlap matrix:
Smallest eigenvalue                        ... 2.919e-07
Time for diagonalization                   ...    0.426 sec
Threshold for overlap eigenvalues          ... 1.000e-08
Number of eigenvalues below threshold      ... 0
Time for construction of square roots      ...    0.428 sec
Total time needed                          ...    0.863 sec

-------------------
DFT GRID GENERATION
-------------------

General Integration Accuracy     IntAcc      ...  4.670
Radial Grid Type                 RadialGrid  ... Gauss-Chebyshev
Angular Grid (max. acc.)         AngularGrid ... Lebedev-302
Angular grid pruning method      GridPruning ... 3 (G Style)
Weight generation scheme         WeightScheme... Becke
Basis function cutoff            BFCut       ...    1.0000e-10
Integration weight cutoff        WCut        ...    1.0000e-14
Grids for H and He will be reduced by one unit

# of grid points (after initial pruning)     ... 318502 (   0.0 sec)
# of grid points (after weights+screening)   ... 267529 (   0.4 sec)
nearest neighbour list constructed           ...    0.0 sec
Grid point re-assignment to atoms done       ...    0.0 sec
Grid point division into batches done        ...    0.8 sec
Reduced shell lists constructed in    1.4 sec

Total number of grid points                  ...   267529
Total number of batches                      ...     4211
Average number of points per batch           ...       63
Average number of grid points per atom       ...     3934
Average number of shells per batch           ...   287.44 (43.29%)
Average number of basis functions per batch  ...   742.69 (41.40%)
Average number of large shells per batch     ...   186.08 (64.74%)
Average number of large basis fcns per batch ...   494.31 (66.56%)
Maximum spatial batch extension              ...  16.36, 17.07, 11.26 au
Average spatial batch extension              ...   0.08,  0.10,  0.08 au

Time for grid setup =    1.882 sec

------------------------------
INITIAL GUESS: MODEL POTENTIAL
------------------------------
Loading Hartree-Fock densities                     ... done
  calling /sw/apps/orca/orca_4_2_0_linux_x86-64_openmpi314/orca MOR13_ed24_atom44.inp > MOR13_ed24_atom44.out in order to generate an atomic fitting density for atom 0 (Ru with ECP) on-the-fly... 
    atom 0 (Ru), assumed electronic state with S=5: 1s2 2s2 2p6 3s2 3p6 4s2 3d10 4p6 5s2 4d6           ... done
Calculating cut-offs                               ... done
Setting up the integral package                    ... done
Initializing the effective Hamiltonian             ... done
Starting the Coulomb interaction                   ... done (   0.7 sec)
Reading the grid                                   ... done
Mapping shells                                     ... done
Starting the XC term evaluation                    ... done (   1.9 sec)
  promolecular density results
     # of electrons  =    281.983225679
     EX              =   -345.539712644
     EC              =    -10.549271487
     EX+EC           =   -356.088984131
Transforming the Hamiltonian                       ... done (   0.2 sec)
Diagonalizing the Hamiltonian                      ... done (   0.4 sec)
Back transforming the eigenvectors                 ... done (   0.1 sec)
Now organizing SCF variables                       ... done
                      ------------------
                      INITIAL GUESS DONE (   6.7 sec)
                      ------------------
--------------
SCF ITERATIONS
--------------
ITER       Energy         Delta-E        Max-DP      RMS-DP      [F,P]     Damp
               ***  Starting incremental Fock matrix formation  ***
  0  -2332.5251357851   0.000000000000 2.03862284  0.00583790  0.4048994 0.7000
  1  -2332.9879721154  -0.462836330317 0.92223434  0.00266170  0.3201211 0.7000
  2  -2333.1251875045  -0.137215389053 0.94015517  0.00238638  0.2299819 0.7000
                               ***Turning on DIIS***
  3  -2333.2303307387  -0.105143234213 0.63314672  0.00159429  0.1506423 0.7000
  4  -2333.2994555719  -0.069124833242 1.00425895  0.00302771  0.0991697 0.0000
  5  -2333.4610154221  -0.161559850161 0.33997716  0.00097958  0.0277881 0.0000
  6  -2333.4643685641  -0.003353141950 0.31231142  0.00044390  0.0063042 0.0000
  7  -2333.4645316581  -0.000163094029 0.27014395  0.00042611  0.0016173 0.0000
  8  -2333.4645688340  -0.000037175898 0.51441717  0.00062915  0.0004365 0.0000
  9  -2333.4645733862  -0.000004552249 0.20716136  0.00039658  0.0006541 0.0000
 10  -2333.4645749499  -0.000001563653 0.41319974  0.00048174  0.0003215 0.0000
 11  -2333.4645745626   0.000000387271 0.69926799  0.00059616  0.0002423 0.0000
 12  -2333.4645737665   0.000000796090 0.69657957  0.00057249  0.0003472 0.0000
 13  -2333.4645731278   0.000000638710 0.77542729  0.00071592  0.0000175 0.0000
 14  -2333.4645715529   0.000001574952 0.20206531  0.00040407  0.0000115 0.0000
 15  -2333.4645700933   0.000001459604 0.15480538  0.00032660  0.0000033 0.0000
                            ***DIIS convergence achieved***

               *****************************************************
               *                     SUCCESS                       *
               *           SCF CONVERGED AFTER  16 CYCLES          *
               *****************************************************


----------------
TOTAL SCF ENERGY
----------------

Total Energy       :        -2333.46456820 Eh          -63496.79902 eV

Components:
Nuclear Repulsion  :         3925.97091400 Eh          106831.09976 eV
Electronic Energy  :        -6259.43548219 Eh         -170327.89877 eV
One Electron Energy:       -11048.57721067 Eh         -300647.07050 eV
Two Electron Energy:         4789.14172848 Eh          130319.17173 eV

Virial components:
Potential Energy   :        -4598.52730146 Eh         -125132.28948 eV
Kinetic Energy     :         2265.06273327 Eh           61635.49046 eV
Virial Ratio       :            2.03019865


DFT components:
N(Alpha)           :      127.000460691015 electrons
N(Beta)            :      127.000460691015 electrons
N(Total)           :      254.000921382030 electrons
E(X)               :     -208.857156260035 Eh       
E(C)               :       -8.885795732191 Eh       
E(XC)              :     -217.742951992226 Eh       
DFET-embed. en.    :        0.000000000000 Eh       

---------------
SCF CONVERGENCE
---------------

  Last Energy change         ...    1.8975e-06  Tolerance :   1.0000e-06
  Last MAX-Density change    ...    9.7270e-02  Tolerance :   1.0000e-05
  Last RMS-Density change    ...    3.0386e-04  Tolerance :   1.0000e-06
  Last DIIS Error            ...    1.9980e-06  Tolerance :   1.0000e-06

             **** THE GBW FILE WAS UPDATED (MOR13_ed24.gbw) ****
             **** DENSITY FILE WAS UPDATED (MOR13_ed24.scfp) ****
             **** ENERGY FILE WAS UPDATED (MOR13_ed24.en.tmp) ****
             **** THE GBW FILE WAS UPDATED (MOR13_ed24.gbw) ****
             **** DENSITY FILE WAS UPDATED (MOR13_ed24.scfp) ****
----------------
ORBITAL ENERGIES
----------------

  NO   OCC          E(Eh)            E(eV) 
   0   2.0000    -101.324870     -2757.1899 
   1   2.0000    -101.323763     -2757.1598 
   2   2.0000     -76.957349     -2094.1159 
   3   2.0000     -10.138098      -275.8717 
   4   2.0000     -10.133796      -275.7546 
   5   2.0000     -10.130525      -275.6656 
   6   2.0000     -10.130473      -275.6642 
   7   2.0000     -10.130164      -275.6558 
   8   2.0000     -10.125569      -275.5307 
   9   2.0000     -10.124498      -275.5016 
  10   2.0000     -10.123435      -275.4727 
  11   2.0000     -10.123138      -275.4646 
  12   2.0000     -10.122362      -275.4435 
  13   2.0000     -10.122212      -275.4394 
  14   2.0000     -10.122082      -275.4358 
  15   2.0000     -10.121540      -275.4211 
  16   2.0000     -10.116693      -275.2892 
  17   2.0000     -10.116079      -275.2725 
  18   2.0000     -10.114633      -275.2332 
  19   2.0000     -10.114321      -275.2247 
  20   2.0000     -10.112328      -275.1704 
  21   2.0000     -10.112166      -275.1660 
  22   2.0000     -10.111899      -275.1588 
  23   2.0000     -10.111820      -275.1566 
  24   2.0000     -10.111646      -275.1519 
  25   2.0000     -10.110846      -275.1301 
  26   2.0000     -10.109830      -275.1024 
  27   2.0000     -10.109390      -275.0905 
  28   2.0000      -9.325930      -253.7715 
  29   2.0000      -9.324831      -253.7415 
  30   2.0000      -7.070338      -192.3937 
  31   2.0000      -7.069212      -192.3630 
  32   2.0000      -7.066670      -192.2939 
  33   2.0000      -7.065881      -192.2724 
  34   2.0000      -7.065620      -192.2653 
  35   2.0000      -7.064756      -192.2418 
  36   2.0000      -6.510122      -177.1494 
  37   2.0000      -4.659113      -126.7809 
  38   2.0000      -4.658972      -126.7771 
  39   2.0000      -4.657377      -126.7337 
  40   2.0000      -2.978830       -81.0581 
  41   2.0000      -1.839783       -50.0630 
  42   2.0000      -1.839244       -50.0484 
  43   2.0000      -1.824095       -49.6361 
  44   2.0000      -0.842839       -22.9348 
  45   2.0000      -0.831473       -22.6255 
  46   2.0000      -0.818472       -22.2718 
  47   2.0000      -0.817563       -22.2470 
  48   2.0000      -0.757584       -20.6149 
  49   2.0000      -0.754576       -20.5330 
  50   2.0000      -0.741221       -20.1696 
  51   2.0000      -0.736674       -20.0459 
  52   2.0000      -0.733014       -19.9463 
  53   2.0000      -0.731232       -19.8978 
  54   2.0000      -0.729971       -19.8635 
  55   2.0000      -0.729012       -19.8374 
  56   2.0000      -0.725370       -19.7383 
  57   2.0000      -0.724099       -19.7037 
  58   2.0000      -0.648845       -17.6560 
  59   2.0000      -0.642657       -17.4876 
  60   2.0000      -0.606416       -16.5014 
  61   2.0000      -0.600441       -16.3388 
  62   2.0000      -0.597520       -16.2594 
  63   2.0000      -0.593883       -16.1604 
  64   2.0000      -0.593149       -16.1404 
  65   2.0000      -0.589878       -16.0514 
  66   2.0000      -0.561320       -15.2743 
  67   2.0000      -0.552208       -15.0263 
  68   2.0000      -0.549805       -14.9610 
  69   2.0000      -0.548135       -14.9155 
  70   2.0000      -0.525686       -14.3047 
  71   2.0000      -0.497334       -13.5331 
  72   2.0000      -0.474221       -12.9042 
  73   2.0000      -0.469436       -12.7740 
  74   2.0000      -0.460508       -12.5311 
  75   2.0000      -0.453793       -12.3483 
  76   2.0000      -0.440584       -11.9889 
  77   2.0000      -0.436995       -11.8913 
  78   2.0000      -0.436258       -11.8712 
  79   2.0000      -0.435222       -11.8430 
  80   2.0000      -0.432581       -11.7711 
  81   2.0000      -0.429308       -11.6821 
  82   2.0000      -0.428619       -11.6633 
  83   2.0000      -0.423609       -11.5270 
  84   2.0000      -0.420151       -11.4329 
  85   2.0000      -0.410671       -11.1749 
  86   2.0000      -0.406652       -11.0656 
  87   2.0000      -0.403631       -10.9834 
  88   2.0000      -0.382334       -10.4038 
  89   2.0000      -0.375047       -10.2056 
  90   2.0000      -0.373616       -10.1666 
  91   2.0000      -0.371819       -10.1177 
  92   2.0000      -0.371561       -10.1107 
  93   2.0000      -0.370818       -10.0905 
  94   2.0000      -0.368748       -10.0342 
  95   2.0000      -0.359302        -9.7771 
  96   2.0000      -0.355527        -9.6744 
  97   2.0000      -0.351879        -9.5751 
  98   2.0000      -0.347332        -9.4514 
  99   2.0000      -0.346417        -9.4265 
 100   2.0000      -0.342580        -9.3221 
 101   2.0000      -0.339843        -9.2476 
 102   2.0000      -0.338211        -9.2032 
 103   2.0000      -0.336005        -9.1432 
 104   2.0000      -0.334379        -9.0989 
 105   2.0000      -0.331300        -9.0151 
 106   2.0000      -0.327004        -8.8982 
 107   2.0000      -0.323654        -8.8071 
 108   2.0000      -0.320382        -8.7180 
 109   2.0000      -0.314830        -8.5670 
 110   2.0000      -0.313880        -8.5411 
 111   2.0000      -0.310580        -8.4513 
 112   2.0000      -0.306505        -8.3404 
 113   2.0000      -0.298907        -8.1337 
 114   2.0000      -0.294743        -8.0204 
 115   2.0000      -0.293422        -7.9844 
 116   2.0000      -0.287765        -7.8305 
 117   2.0000      -0.282779        -7.6948 
 118   2.0000      -0.279903        -7.6165 
 119   2.0000      -0.276590        -7.5264 
 120   2.0000      -0.273349        -7.4382 
 121   2.0000      -0.270495        -7.3605 
 122   2.0000      -0.263456        -7.1690 
 123   2.0000      -0.251612        -6.8467 
 124   2.0000      -0.214269        -5.8306 
 125   2.0000      -0.206842        -5.6285 
 126   2.0000      -0.191009        -5.1976 
 127   0.0000      -0.087247        -2.3741 
 128   0.0000      -0.079837        -2.1725 
 129   0.0000      -0.049691        -1.3522 
 130   0.0000      -0.027499        -0.7483 
 131   0.0000      -0.011081        -0.3015 
 132   0.0000      -0.002889        -0.0786 
 133   0.0000       0.001432         0.0390 
 134   0.0000       0.002715         0.0739 
 135   0.0000       0.005050         0.1374 
 136   0.0000       0.014456         0.3934 
 137   0.0000       0.015138         0.4119 
 138   0.0000       0.018160         0.4941 
 139   0.0000       0.019917         0.5420 
 140   0.0000       0.026621         0.7244 
 141   0.0000       0.029322         0.7979 
 142   0.0000       0.030643         0.8338 
 143   0.0000       0.036272         0.9870 
 144   0.0000       0.039382         1.0716 
 145   0.0000       0.042112         1.1459 
 146   0.0000       0.043159         1.1744 
 147   0.0000       0.046065         1.2535 
 148   0.0000       0.047686         1.2976 
 149   0.0000       0.050893         1.3849 
 150   0.0000       0.053937         1.4677 
 151   0.0000       0.055155         1.5009 
 152   0.0000       0.060957         1.6587 
 153   0.0000       0.062252         1.6940 
 154   0.0000       0.065815         1.7909 
 155   0.0000       0.067670         1.8414 
 156   0.0000       0.070729         1.9246 
 157   0.0000       0.075308         2.0492 
 158   0.0000       0.077249         2.1021 
 159   0.0000       0.079052         2.1511 
 160   0.0000       0.079709         2.1690 
 161   0.0000       0.081809         2.2261 
 162   0.0000       0.083053         2.2600 
 163   0.0000       0.085939         2.3385 
 164   0.0000       0.087880         2.3913 
 165   0.0000       0.090530         2.4635 
 166   0.0000       0.092448         2.5156 
 167   0.0000       0.094485         2.5711 
 168   0.0000       0.098877         2.6906 
 169   0.0000       0.101540         2.7630 
 170   0.0000       0.104695         2.8489 
 171   0.0000       0.106747         2.9047 
 172   0.0000       0.108601         2.9552 
 173   0.0000       0.111057         3.0220 
 174   0.0000       0.115438         3.1412 
 175   0.0000       0.116081         3.1587 
 176   0.0000       0.118333         3.2200 
 177   0.0000       0.120536         3.2799 
 178   0.0000       0.121780         3.3138 
 179   0.0000       0.125162         3.4058 
 180   0.0000       0.126799         3.4504 
 181   0.0000       0.130221         3.5435 
 182   0.0000       0.133879         3.6430 
 183   0.0000       0.134911         3.6711 
 184   0.0000       0.137356         3.7376 
 185   0.0000       0.138503         3.7689 
 186   0.0000       0.140516         3.8236 
 187   0.0000       0.143209         3.8969 
 188   0.0000       0.143969         3.9176 
 189   0.0000       0.145944         3.9713 
 190   0.0000       0.146946         3.9986 
 191   0.0000       0.152019         4.1366 
 192   0.0000       0.154059         4.1922 
 193   0.0000       0.155478         4.2308 
 194   0.0000       0.157200         4.2776 
 195   0.0000       0.158523         4.3136 
 196   0.0000       0.160449         4.3660 
 197   0.0000       0.161945         4.4068 
 198   0.0000       0.164836         4.4854 
 199   0.0000       0.166648         4.5347 
 200   0.0000       0.169090         4.6012 
 201   0.0000       0.171655         4.6710 
 202   0.0000       0.174135         4.7384 
 203   0.0000       0.175209         4.7677 
 204   0.0000       0.178064         4.8454 
 205   0.0000       0.178185         4.8487 
 206   0.0000       0.180115         4.9012 
 207   0.0000       0.183480         4.9927 
 208   0.0000       0.185173         5.0388 
 209   0.0000       0.188268         5.1230 
 210   0.0000       0.189559         5.1582 
 211   0.0000       0.190971         5.1966 
 212   0.0000       0.192933         5.2500 
 213   0.0000       0.195579         5.3220 
 214   0.0000       0.196839         5.3563 
 215   0.0000       0.198606         5.4043 
 216   0.0000       0.200292         5.4502 
 217   0.0000       0.202293         5.5047 
 218   0.0000       0.203477         5.5369 
 219   0.0000       0.204758         5.5717 
 220   0.0000       0.205737         5.5984 
 221   0.0000       0.208145         5.6639 
 222   0.0000       0.209689         5.7059 
 223   0.0000       0.210749         5.7348 
 224   0.0000       0.213303         5.8043 
 225   0.0000       0.215535         5.8650 
 226   0.0000       0.216525         5.8919 
 227   0.0000       0.218715         5.9515 
 228   0.0000       0.220338         5.9957 
 229   0.0000       0.220505         6.0002 
 230   0.0000       0.223763         6.0889 
 231   0.0000       0.224295         6.1034 
 232   0.0000       0.226022         6.1504 
 233   0.0000       0.227761         6.1977 
 234   0.0000       0.228807         6.2261 
 235   0.0000       0.229609         6.2480 
 236   0.0000       0.232497         6.3266 
 237   0.0000       0.233070         6.3422 
 238   0.0000       0.234820         6.3898 
 239   0.0000       0.237042         6.4502 
 240   0.0000       0.239665         6.5216 
 241   0.0000       0.241181         6.5629 
 242   0.0000       0.242462         6.5977 
 243   0.0000       0.243250         6.6192 
 244   0.0000       0.245094         6.6693 
 245   0.0000       0.247906         6.7459 
 246   0.0000       0.249033         6.7765 
 247   0.0000       0.250351         6.8124 
 248   0.0000       0.253022         6.8851 
 249   0.0000       0.254867         6.9353 
 250   0.0000       0.255309         6.9473 
 251   0.0000       0.256243         6.9727 
 252   0.0000       0.258829         7.0431 
 253   0.0000       0.261212         7.1079 
 254   0.0000       0.263052         7.1580 
 255   0.0000       0.264080         7.1860 
 256   0.0000       0.266341         7.2475 
 257   0.0000       0.266485         7.2514 
 258   0.0000       0.269982         7.3466 
 259   0.0000       0.272246         7.4082 
 260   0.0000       0.273145         7.4327 
 261   0.0000       0.274389         7.4665 
 262   0.0000       0.275203         7.4887 
 263   0.0000       0.277709         7.5568 
 264   0.0000       0.279955         7.6180 
 265   0.0000       0.282147         7.6776 
 266   0.0000       0.284078         7.7302 
 267   0.0000       0.284997         7.7552 
 268   0.0000       0.286975         7.8090 
 269   0.0000       0.287325         7.8185 
 270   0.0000       0.288638         7.8542 
 271   0.0000       0.291062         7.9202 
 272   0.0000       0.291521         7.9327 
 273   0.0000       0.293317         7.9816 
 274   0.0000       0.294913         8.0250 
 275   0.0000       0.296866         8.0781 
 276   0.0000       0.298629         8.1261 
 277   0.0000       0.299379         8.1465 
 278   0.0000       0.301325         8.1995 
 279   0.0000       0.303030         8.2459 
 280   0.0000       0.305323         8.3083 
 281   0.0000       0.306820         8.3490 
 282   0.0000       0.307928         8.3792 
 283   0.0000       0.309006         8.4085 
 284   0.0000       0.310031         8.4364 
 285   0.0000       0.312346         8.4994 
 286   0.0000       0.315432         8.5833 
 287   0.0000       0.316376         8.6090 
 288   0.0000       0.317755         8.6466 
 289   0.0000       0.319278         8.6880 
 290   0.0000       0.321182         8.7398 
 291   0.0000       0.322156         8.7663 
 292   0.0000       0.322510         8.7759 
 293   0.0000       0.323929         8.8146 
 294   0.0000       0.328103         8.9281 
 295   0.0000       0.329096         8.9552 
 296   0.0000       0.331470         9.0198 
 297   0.0000       0.333306         9.0697 
 298   0.0000       0.334096         9.0912 
 299   0.0000       0.334975         9.1151 
 300   0.0000       0.337620         9.1871 
 301   0.0000       0.337636         9.1875 
 302   0.0000       0.339432         9.2364 
 303   0.0000       0.342502         9.3200 
 304   0.0000       0.344712         9.3801 
 305   0.0000       0.344868         9.3843 
 306   0.0000       0.346381         9.4255 
 307   0.0000       0.348498         9.4831 
 308   0.0000       0.350638         9.5414 
 309   0.0000       0.352462         9.5910 
 310   0.0000       0.353392         9.6163 
 311   0.0000       0.353914         9.6305 
 312   0.0000       0.356407         9.6983 
 313   0.0000       0.358525         9.7559 
 314   0.0000       0.359344         9.7783 
 315   0.0000       0.361099         9.8260 
 316   0.0000       0.362946         9.8763 
 317   0.0000       0.364973         9.9314 
 318   0.0000       0.367419         9.9980 
 319   0.0000       0.369423        10.0525 
 320   0.0000       0.372194        10.1279 
 321   0.0000       0.372422        10.1341 
 322   0.0000       0.372598        10.1389 
 323   0.0000       0.376274        10.2389 
 324   0.0000       0.378279        10.2935 
 325   0.0000       0.379353        10.3227 
 326   0.0000       0.380510        10.3542 
 327   0.0000       0.383019        10.4225 
 328   0.0000       0.384202        10.4547 
 329   0.0000       0.384868        10.4728 
 330   0.0000       0.386855        10.5269 
 331   0.0000       0.388601        10.5744 
 332   0.0000       0.391018        10.6401 
 333   0.0000       0.391243        10.6463 
 334   0.0000       0.392504        10.6806 
 335   0.0000       0.396738        10.7958 
 336   0.0000       0.397457        10.8154 
 337   0.0000       0.398326        10.8390 
 338   0.0000       0.401423        10.9233 
 339   0.0000       0.404191        10.9986 
 340   0.0000       0.405774        11.0417 
 341   0.0000       0.408893        11.1266 
 342   0.0000       0.410110        11.1597 
 343   0.0000       0.411446        11.1960 
 344   0.0000       0.414407        11.2766 
 345   0.0000       0.416878        11.3438 
 346   0.0000       0.418753        11.3949 
 347   0.0000       0.420062        11.4305 
 348   0.0000       0.421428        11.4676 
 349   0.0000       0.422802        11.5050 
 350   0.0000       0.425222        11.5709 
 351   0.0000       0.427951        11.6451 
 352   0.0000       0.428368        11.6565 
 353   0.0000       0.429640        11.6911 
 354   0.0000       0.434391        11.8204 
 355   0.0000       0.435282        11.8446 
 356   0.0000       0.436655        11.8820 
 357   0.0000       0.437975        11.9179 
 358   0.0000       0.440314        11.9815 
 359   0.0000       0.441745        12.0205 
 360   0.0000       0.444148        12.0859 
 361   0.0000       0.446555        12.1514 
 362   0.0000       0.448310        12.1991 
 363   0.0000       0.448946        12.2164 
 364   0.0000       0.452287        12.3074 
 365   0.0000       0.455039        12.3823 
 366   0.0000       0.457748        12.4560 
 367   0.0000       0.459002        12.4901 
 368   0.0000       0.461917        12.5694 
 369   0.0000       0.462988        12.5986 
 370   0.0000       0.464450        12.6383 
 371   0.0000       0.467983        12.7345 
 372   0.0000       0.469798        12.7838 
 373   0.0000       0.471516        12.8306 
 374   0.0000       0.472325        12.8526 
 375   0.0000       0.475317        12.9340 
 376   0.0000       0.477221        12.9858 
 377   0.0000       0.478978        13.0337 
 378   0.0000       0.480830        13.0841 
 379   0.0000       0.483166        13.1476 
 380   0.0000       0.484095        13.1729 
 381   0.0000       0.486182        13.2297 
 382   0.0000       0.486920        13.2498 
 383   0.0000       0.489475        13.3193 
 384   0.0000       0.492146        13.3920 
 385   0.0000       0.493255        13.4221 
 386   0.0000       0.494682        13.4610 
 387   0.0000       0.496551        13.5118 
 388   0.0000       0.497718        13.5436 
 389   0.0000       0.499310        13.5869 
 390   0.0000       0.502000        13.6601 
 391   0.0000       0.504573        13.7301 
 392   0.0000       0.507530        13.8106 
 393   0.0000       0.511345        13.9144 
 394   0.0000       0.512916        13.9572 
 395   0.0000       0.516849        14.0642 
 396   0.0000       0.519000        14.1227 
 397   0.0000       0.521843        14.2001 
 398   0.0000       0.522081        14.2066 
 399   0.0000       0.524355        14.2684 
 400   0.0000       0.525043        14.2871 
 401   0.0000       0.527957        14.3664 
 402   0.0000       0.528037        14.3686 
 403   0.0000       0.530133        14.4256 
 404   0.0000       0.531923        14.4744 
 405   0.0000       0.534555        14.5460 
 406   0.0000       0.535936        14.5836 
 407   0.0000       0.537344        14.6219 
 408   0.0000       0.539836        14.6897 
 409   0.0000       0.542425        14.7601 
 410   0.0000       0.543752        14.7963 
 411   0.0000       0.545843        14.8531 
 412   0.0000       0.547178        14.8895 
 413   0.0000       0.548803        14.9337 
 414   0.0000       0.551363        15.0033 
 415   0.0000       0.552552        15.0357 
 416   0.0000       0.554707        15.0944 
 417   0.0000       0.558846        15.2070 
 418   0.0000       0.559399        15.2220 
 419   0.0000       0.560360        15.2482 
 420   0.0000       0.561996        15.2927 
 421   0.0000       0.564324        15.3560 
 422   0.0000       0.566622        15.4186 
 423   0.0000       0.568710        15.4754 
 424   0.0000       0.571166        15.5422 
 425   0.0000       0.571695        15.5566 
 426   0.0000       0.574093        15.6219 
 427   0.0000       0.575064        15.6483 
 428   0.0000       0.578862        15.7516 
 429   0.0000       0.579898        15.7798 
 430   0.0000       0.582449        15.8492 
 431   0.0000       0.583615        15.8810 
 432   0.0000       0.585869        15.9423 
 433   0.0000       0.590992        16.0817 
 434   0.0000       0.591420        16.0934 
 435   0.0000       0.594837        16.1863 
 436   0.0000       0.596231        16.2243 
 437   0.0000       0.598281        16.2800 
 438   0.0000       0.599354        16.3093 
 439   0.0000       0.600821        16.3492 
 440   0.0000       0.601705        16.3732 
 441   0.0000       0.602754        16.4018 
 442   0.0000       0.604594        16.4518 
 443   0.0000       0.606418        16.5015 
 444   0.0000       0.606629        16.5072 
 445   0.0000       0.609266        16.5790 
 446   0.0000       0.611134        16.6298 
 447   0.0000       0.613000        16.6806 
 448   0.0000       0.614975        16.7343 
 449   0.0000       0.618934        16.8420 
 450   0.0000       0.619253        16.8507 
 451   0.0000       0.620437        16.8830 
 452   0.0000       0.623545        16.9675 
 453   0.0000       0.623929        16.9780 
 454   0.0000       0.629292        17.1239 
 455   0.0000       0.630179        17.1480 
 456   0.0000       0.631375        17.1806 
 457   0.0000       0.632254        17.2045 
 458   0.0000       0.634924        17.2772 
 459   0.0000       0.637180        17.3386 
 460   0.0000       0.638430        17.3726 
 461   0.0000       0.639199        17.3935 
 462   0.0000       0.640697        17.4343 
 463   0.0000       0.641996        17.4696 
 464   0.0000       0.646041        17.5797 
 465   0.0000       0.646850        17.6017 
 466   0.0000       0.648992        17.6600 
 467   0.0000       0.650078        17.6895 
 468   0.0000       0.651126        17.7180 
 469   0.0000       0.652763        17.7626 
 470   0.0000       0.653928        17.7943 
 471   0.0000       0.655510        17.8373 
 472   0.0000       0.657002        17.8779 
 473   0.0000       0.657586        17.8938 
 474   0.0000       0.659254        17.9392 
 475   0.0000       0.662524        18.0282 
 476   0.0000       0.663448        18.0533 
 477   0.0000       0.665929        18.1208 
 478   0.0000       0.666365        18.1327 
 479   0.0000       0.670665        18.2497 
 480   0.0000       0.671631        18.2760 
 481   0.0000       0.673553        18.3283 
 482   0.0000       0.676335        18.4040 
 483   0.0000       0.677438        18.4340 
 484   0.0000       0.677929        18.4474 
 485   0.0000       0.679920        18.5016 
 486   0.0000       0.681984        18.5577 
 487   0.0000       0.683046        18.5866 
 488   0.0000       0.684446        18.6247 
 489   0.0000       0.685962        18.6660 
 490   0.0000       0.689703        18.7678 
 491   0.0000       0.691843        18.8260 
 492   0.0000       0.693526        18.8718 
 493   0.0000       0.696783        18.9604 
 494   0.0000       0.698276        19.0011 
 495   0.0000       0.699702        19.0399 
 496   0.0000       0.700893        19.0723 
 497   0.0000       0.703414        19.1409 
 498   0.0000       0.705670        19.2022 
 499   0.0000       0.706305        19.2195 
 500   0.0000       0.707892        19.2627 
 501   0.0000       0.709011        19.2932 
 502   0.0000       0.710781        19.3413 
 503   0.0000       0.713952        19.4276 
 504   0.0000       0.715091        19.4586 
 505   0.0000       0.716788        19.5048 
 506   0.0000       0.719074        19.5670 
 507   0.0000       0.720924        19.6173 
 508   0.0000       0.723079        19.6760 
 509   0.0000       0.724755        19.7216 
 510   0.0000       0.725935        19.7537 
 511   0.0000       0.727924        19.8078 
 512   0.0000       0.730086        19.8667 
 513   0.0000       0.731028        19.8923 
 514   0.0000       0.732430        19.9304 
 515   0.0000       0.734523        19.9874 
 516   0.0000       0.735051        20.0018 
 517   0.0000       0.737871        20.0785 
 518   0.0000       0.739807        20.1312 
 519   0.0000       0.741014        20.1640 
 520   0.0000       0.744244        20.2519 
 521   0.0000       0.746475        20.3126 
 522   0.0000       0.748546        20.3690 
 523   0.0000       0.749640        20.3987 
 524   0.0000       0.750323        20.4173 
 525   0.0000       0.751775        20.4568 
 526   0.0000       0.754833        20.5400 
 527   0.0000       0.755971        20.5710 
 528   0.0000       0.756732        20.5917 
 529   0.0000       0.758302        20.6344 
 530   0.0000       0.759678        20.6719 
 531   0.0000       0.761279        20.7154 
 532   0.0000       0.762759        20.7557 
 533   0.0000       0.767962        20.8973 
 534   0.0000       0.768431        20.9101 
 535   0.0000       0.770834        20.9755 
 536   0.0000       0.773079        21.0366 
 537   0.0000       0.776055        21.1175 
 538   0.0000       0.777929        21.1685 
 539   0.0000       0.781250        21.2589 
 540   0.0000       0.781685        21.2707 
 541   0.0000       0.785187        21.3660 
 542   0.0000       0.788309        21.4510 
 543   0.0000       0.789703        21.4889 
 544   0.0000       0.790457        21.5094 
 545   0.0000       0.792203        21.5569 
 546   0.0000       0.795880        21.6570 
 547   0.0000       0.797698        21.7065 
 548   0.0000       0.799598        21.7582 
 549   0.0000       0.800888        21.7933 
 550   0.0000       0.804967        21.9043 
 551   0.0000       0.806227        21.9385 
 552   0.0000       0.811102        22.0712 
 553   0.0000       0.812742        22.1158 
 554   0.0000       0.814011        22.1504 
 555   0.0000       0.814224        22.1562 
 556   0.0000       0.816953        22.2304 
 557   0.0000       0.821723        22.3602 
 558   0.0000       0.822219        22.3737 
 559   0.0000       0.825526        22.4637 
 560   0.0000       0.825898        22.4738 
 561   0.0000       0.828810        22.5531 
 562   0.0000       0.829989        22.5852 
 563   0.0000       0.831097        22.6153 
 564   0.0000       0.838246        22.8098 
 565   0.0000       0.838939        22.8287 
 566   0.0000       0.840974        22.8841 
 567   0.0000       0.841858        22.9081 
 568   0.0000       0.846733        23.0408 
 569   0.0000       0.851316        23.1655 
 570   0.0000       0.855213        23.2715 
 571   0.0000       0.856097        23.2956 
 572   0.0000       0.859005        23.3747 
 573   0.0000       0.861237        23.4355 
 574   0.0000       0.862277        23.4638 
 575   0.0000       0.863741        23.5036 
 576   0.0000       0.866976        23.5916 
 577   0.0000       0.869756        23.6673 
 578   0.0000       0.871582        23.7169 
 579   0.0000       0.874697        23.8017 
 580   0.0000       0.877181        23.8693 
 581   0.0000       0.877614        23.8811 
 582   0.0000       0.879652        23.9365 
 583   0.0000       0.881971        23.9996 
 584   0.0000       0.885925        24.1072 
 585   0.0000       0.889171        24.1956 
 586   0.0000       0.892479        24.2856 
 587   0.0000       0.894430        24.3387 
 588   0.0000       0.897498        24.4222 
 589   0.0000       0.899485        24.4762 
 590   0.0000       0.901074        24.5195 
 591   0.0000       0.907513        24.6947 
 592   0.0000       0.908378        24.7182 
 593   0.0000       0.911121        24.7929 
 594   0.0000       0.912465        24.8294 
 595   0.0000       0.914725        24.8909 
 596   0.0000       0.918086        24.9824 
 597   0.0000       0.919979        25.0339 
 598   0.0000       0.923451        25.1284 
 599   0.0000       0.924725        25.1630 
 600   0.0000       0.926383        25.2082 
 601   0.0000       0.927503        25.2386 
 602   0.0000       0.930737        25.3266 
 603   0.0000       0.933470        25.4010 
 604   0.0000       0.937074        25.4991 
 605   0.0000       0.939725        25.5712 
 606   0.0000       0.944046        25.6888 
 607   0.0000       0.944983        25.7143 
 608   0.0000       0.946757        25.7626 
 609   0.0000       0.948089        25.7988 
 610   0.0000       0.951466        25.8907 
 611   0.0000       0.955727        26.0066 
 612   0.0000       0.957801        26.0631 
 613   0.0000       0.961583        26.1660 
 614   0.0000       0.963889        26.2287 
 615   0.0000       0.965427        26.2706 
 616   0.0000       0.967191        26.3186 
 617   0.0000       0.970259        26.4021 
 618   0.0000       0.973337        26.4858 
 619   0.0000       0.974132        26.5075 
 620   0.0000       0.976393        26.5690 
 621   0.0000       0.980997        26.6943 
 622   0.0000       0.983943        26.7744 
 623   0.0000       0.987266        26.8649 
 624   0.0000       0.991503        26.9802 
 625   0.0000       0.994143        27.0520 
 626   0.0000       0.995192        27.0805 
 627   0.0000       0.998461        27.1695 
 628   0.0000       1.002975        27.2923 
 629   0.0000       1.004587        27.3362 
 630   0.0000       1.008939        27.4546 
 631   0.0000       1.011106        27.5136 
 632   0.0000       1.011313        27.5192 
 633   0.0000       1.015859        27.6429 
 634   0.0000       1.017208        27.6796 
 635   0.0000       1.019630        27.7456 
 636   0.0000       1.024351        27.8740 
 637   0.0000       1.025884        27.9157 
 638   0.0000       1.029908        28.0252 
 639   0.0000       1.031866        28.0785 
 640   0.0000       1.038579        28.2612 
 641   0.0000       1.041903        28.3516 
 642   0.0000       1.043180        28.3864 
 643   0.0000       1.045698        28.4549 
 644   0.0000       1.048044        28.5187 
 645   0.0000       1.051852        28.6224 
 646   0.0000       1.053980        28.6803 
 647   0.0000       1.057294        28.7704 
 648   0.0000       1.063227        28.9319 
 649   0.0000       1.064777        28.9741 
 650   0.0000       1.066929        29.0326 
 651   0.0000       1.071293        29.1514 
 652   0.0000       1.075448        29.2644 
 653   0.0000       1.075915        29.2771 
 654   0.0000       1.080074        29.3903 
 655   0.0000       1.080779        29.4095 
 656   0.0000       1.085183        29.5293 
 657   0.0000       1.088015        29.6064 
 658   0.0000       1.093389        29.7526 
 659   0.0000       1.098315        29.8867 
 660   0.0000       1.100313        29.9410 
 661   0.0000       1.106417        30.1071 
 662   0.0000       1.111175        30.2366 
 663   0.0000       1.114523        30.3277 
 664   0.0000       1.116680        30.3864 
 665   0.0000       1.119668        30.4677 
 666   0.0000       1.125231        30.6191 
 667   0.0000       1.126565        30.6554 
 668   0.0000       1.129274        30.7291 
 669   0.0000       1.133101        30.8333 
 670   0.0000       1.134714        30.8771 
 671   0.0000       1.139516        31.0078 
 672   0.0000       1.140875        31.0448 
 673   0.0000       1.143965        31.1289 
 674   0.0000       1.148556        31.2538 
 675   0.0000       1.151025        31.3210 
 676   0.0000       1.153526        31.3890 
 677   0.0000       1.158002        31.5108 
 678   0.0000       1.159973        31.5645 
 679   0.0000       1.164825        31.6965 
 680   0.0000       1.171859        31.8879 
 681   0.0000       1.179244        32.0889 
 682   0.0000       1.183767        32.2119 
 683   0.0000       1.185654        32.2633 
 684   0.0000       1.187132        32.3035 
 685   0.0000       1.189917        32.3793 
 686   0.0000       1.195669        32.5358 
 687   0.0000       1.195993        32.5446 
 688   0.0000       1.202806        32.7300 
 689   0.0000       1.203558        32.7505 
 690   0.0000       1.207368        32.8542 
 691   0.0000       1.209242        32.9051 
 692   0.0000       1.214765        33.0554 
 693   0.0000       1.217562        33.1315 
 694   0.0000       1.222554        33.2674 
 695   0.0000       1.225728        33.3538 
 696   0.0000       1.228401        33.4265 
 697   0.0000       1.232346        33.5338 
 698   0.0000       1.232801        33.5462 
 699   0.0000       1.235107        33.6090 
 700   0.0000       1.237168        33.6651 
 701   0.0000       1.241662        33.7873 
 702   0.0000       1.246937        33.9309 
 703   0.0000       1.252125        34.0721 
 704   0.0000       1.254921        34.1481 
 705   0.0000       1.258930        34.2572 
 706   0.0000       1.261926        34.3388 
 707   0.0000       1.264484        34.4084 
 708   0.0000       1.266978        34.4762 
 709   0.0000       1.273405        34.6511 
 710   0.0000       1.278622        34.7931 
 711   0.0000       1.281192        34.8630 
 712   0.0000       1.284206        34.9450 
 713   0.0000       1.286659        35.0118 
 714   0.0000       1.291845        35.1529 
 715   0.0000       1.294047        35.2128 
 716   0.0000       1.296408        35.2770 
 717   0.0000       1.298336        35.3295 
 718   0.0000       1.304951        35.5095 
 719   0.0000       1.308352        35.6021 
 720   0.0000       1.308891        35.6167 
 721   0.0000       1.313099        35.7312 
 722   0.0000       1.316442        35.8222 
 723   0.0000       1.316939        35.8357 
 724   0.0000       1.319938        35.9173 
 725   0.0000       1.320993        35.9461 
 726   0.0000       1.325220        36.0611 
 727   0.0000       1.328119        36.1399 
 728   0.0000       1.332330        36.2545 
 729   0.0000       1.333181        36.2777 
 730   0.0000       1.336803        36.3763 
 731   0.0000       1.339717        36.4556 
 732   0.0000       1.342158        36.5220 
 733   0.0000       1.347531        36.6682 
 734   0.0000       1.348384        36.6914 
 735   0.0000       1.352801        36.8116 
 736   0.0000       1.355787        36.8928 
 737   0.0000       1.357681        36.9444 
 738   0.0000       1.360283        37.0152 
 739   0.0000       1.362422        37.0734 
 740   0.0000       1.366469        37.1835 
 741   0.0000       1.366720        37.1904 
 742   0.0000       1.370238        37.2861 
 743   0.0000       1.372472        37.3469 
[...]
      dx2y2   :     0.000261
      dxy     :     0.000669
 54 H s       :     0.681678  s :     0.681678
      pz      :     0.077667  p :     0.266497
      px      :     0.082502
      py      :     0.106328
      dz2     :     0.003468  d :     0.029384
      dxz     :     0.002708
      dyz     :     0.006280
      dx2y2   :     0.008721
      dxy     :     0.008207
 55 H s       :     0.674824  s :     0.674824
      pz      :     0.094389  p :     0.342555
      px      :     0.165531
      py      :     0.082635
      dz2     :     0.006104  d :     0.029453
      dxz     :     0.008202
      dyz     :     0.002334
      dx2y2   :     0.005702
      dxy     :     0.007111
 56 H s       :     0.669253  s :     0.669253
      pz      :     0.072851  p :     0.284437
      px      :     0.093504
      py      :     0.118082
      dz2     :     0.003549  d :     0.029649
      dxz     :     0.002674
      dyz     :     0.006709
      dx2y2   :     0.008686
      dxy     :     0.008032
 57 C s       :     2.631163  s :     2.631163
      pz      :     0.747766  p :     2.589293
      px      :     0.915287
      py      :     0.926241
      dz2     :     0.094120  d :     0.961301
      dxz     :     0.147983
      dyz     :     0.137668
      dx2y2   :     0.304639
      dxy     :     0.276890
      f0      :     0.004249  f :     0.056644
      f+1     :     0.004872
      f-1     :     0.004339
      f+2     :     0.006331
      f-2     :     0.007220
      f+3     :     0.010861
      f-3     :     0.018770
 58 C s       :     2.643077  s :     2.643077
      pz      :     0.735102  p :     2.566590
      px      :     0.934257
      py      :     0.897231
      dz2     :     0.062229  d :     0.702238
      dxz     :     0.131105
      dyz     :     0.062074
      dx2y2   :     0.220388
      dxy     :     0.226443
      f0      :     0.003301  f :     0.043241
      f+1     :     0.004261
      f-1     :     0.002568
      f+2     :     0.005541
      f-2     :     0.004646
      f+3     :     0.009099
      f-3     :     0.013825
 59 C s       :     2.652414  s :     2.652414
      pz      :     0.747640  p :     2.601789
      px      :     0.939422
      py      :     0.914728
      dz2     :     0.066194  d :     0.684099
      dxz     :     0.110574
      dyz     :     0.072303
      dx2y2   :     0.177511
      dxy     :     0.257517
      f0      :     0.002996  f :     0.043602
      f+1     :     0.003760
      f-1     :     0.003589
      f+2     :     0.007183
      f-2     :     0.003416
      f+3     :     0.008887
      f-3     :     0.013770
 60 C s       :     2.654015  s :     2.654015
      pz      :     0.739248  p :     2.594291
      px      :     0.918492
      py      :     0.936551
      dz2     :     0.071777  d :     0.688932
      dxz     :     0.047772
      dyz     :     0.134230
      dx2y2   :     0.264800
      dxy     :     0.170353
      f0      :     0.002644  f :     0.043258
      f+1     :     0.003643
      f-1     :     0.004083
      f+2     :     0.003398
      f-2     :     0.007234
      f+3     :     0.008979
      f-3     :     0.013278
 61 C s       :     2.650800  s :     2.650800
      pz      :     0.740888  p :     2.597938
      px      :     0.946458
      py      :     0.910591
      dz2     :     0.058891  d :     0.682436
      dxz     :     0.118939
      dyz     :     0.063545
      dx2y2   :     0.211200
      dxy     :     0.229861
      f0      :     0.003264  f :     0.043619
      f+1     :     0.004172
      f-1     :     0.002712
      f+2     :     0.005620
      f-2     :     0.004547
      f+3     :     0.009131
      f-3     :     0.014173
 62 C s       :     2.641545  s :     2.641545
      pz      :     0.725682  p :     2.567382
      px      :     0.935243
      py      :     0.906457
      dz2     :     0.072517  d :     0.715320
      dxz     :     0.118926
      dyz     :     0.070775
      dx2y2   :     0.191976
      dxy     :     0.261126
      f0      :     0.002857  f :     0.043149
      f+1     :     0.003791
      f-1     :     0.003628
      f+2     :     0.006841
      f-2     :     0.003420
      f+3     :     0.008864
      f-3     :     0.013749
 63 H s       :     0.698099  s :     0.698099
      pz      :     0.075508  p :     0.266527
      px      :     0.081887
      py      :     0.109132
      dz2     :     0.003267  d :     0.028683
      dxz     :     0.002051
      dyz     :     0.006821
      dx2y2   :     0.008458
      dxy     :     0.008086
 64 H s       :     0.709914  s :     0.709914
      pz      :     0.075479  p :     0.262750
      px      :     0.085064
      py      :     0.102207
      dz2     :     0.002956  d :     0.028457
      dxz     :     0.003100
      dyz     :     0.005414
      dx2y2   :     0.008641
      dxy     :     0.008346
 65 H s       :     0.708321  s :     0.708321
      pz      :     0.076256  p :     0.261228
      px      :     0.074165
      py      :     0.110807
      dz2     :     0.003201  d :     0.028480
      dxz     :     0.001927
      dyz     :     0.006809
      dx2y2   :     0.008292
      dxy     :     0.008251
 66 H s       :     0.690544  s :     0.690544
      pz      :     0.078557  p :     0.323729
      px      :     0.131069
      py      :     0.114103
      dz2     :     0.002910  d :     0.028583
      dxz     :     0.002972
      dyz     :     0.005404
      dx2y2   :     0.008886
      dxy     :     0.008410
 67 H s       :     0.710571  s :     0.710571
      pz      :     0.073778  p :     0.263008
      px      :     0.123000
      py      :     0.066230
      dz2     :     0.002771  d :     0.028456
      dxz     :     0.008071
      dyz     :     0.000151
      dx2y2   :     0.008579
      dxy     :     0.008885


                      *****************************
                      * MAYER POPULATION ANALYSIS *
                      *****************************

  NA   - Mulliken gross atomic population
  ZA   - Total nuclear charge
  QA   - Mulliken gross atomic charge
  VA   - Mayer's total valence
  BVA  - Mayer's bonded valence
  FA   - Mayer's free valence

  ATOM       NA         ZA         QA         VA         BVA        FA
  0 Ru    18.0565    16.0000    -2.0565     5.1241     5.1241    -0.0000
  1 Cl    17.5939    17.0000    -0.5939     0.7927     0.7927     0.0000
  2 Cl    17.5932    17.0000    -0.5932     0.7893     0.7893    -0.0000
  3 P     14.6394    15.0000     0.3606     1.8783     1.8783     0.0000
  4 C      4.8733     6.0000     1.1267     1.7758     1.7758     0.0000
  5 C      6.0432     6.0000    -0.0432     5.5371     5.5371    -0.0000
  6 C      6.1505     6.0000    -0.1505     4.6136     4.6136    -0.0000
  7 C      6.1015     6.0000    -0.1015     4.2185     4.2185    -0.0000
  8 C      5.9002     6.0000     0.0998     4.1300     4.1300     0.0000
  9 C      6.1717     6.0000    -0.1717     4.1300     4.1300    -0.0000
 10 C      5.6836     6.0000     0.3164     3.4703     3.4703     0.0000
 11 C      5.9469     6.0000     0.0531     5.2838     5.2838     0.0000
 12 C      5.9672     6.0000     0.0328     3.9642     3.9642     0.0000
 13 C      6.1521     6.0000    -0.1521     4.3962     4.3962     0.0000
 14 C      5.8838     6.0000     0.1162     4.1012     4.1012     0.0000
 15 C      6.1461     6.0000    -0.1461     4.3052     4.3052     0.0000
 16 C      5.5684     6.0000     0.4316     3.6818     3.6818     0.0000
 17 C      5.8277     6.0000     0.1723     5.0843     5.0843    -0.0000
 18 C      5.5607     6.0000     0.4393     3.6116     3.6116    -0.0000
 19 C      6.0949     6.0000    -0.0949     4.2768     4.2768     0.0000
 20 C      5.9551     6.0000     0.0449     4.1885     4.1885     0.0000
 21 C      6.0836     6.0000    -0.0836     4.1556     4.1556    -0.0000
 22 C      6.1809     6.0000    -0.1809     4.7998     4.7998     0.0000
 23 H      0.6821     1.0000     0.3179     0.8420     0.8420    -0.0000
 24 H      0.3469     1.0000     0.6531    -0.0240    -0.0240     0.0000
 25 H      0.9722     1.0000     0.0278     0.8335     0.8335    -0.0000
 26 H      0.9012     1.0000     0.0988     0.8419     0.8419     0.0000
 27 H      1.0881     1.0000    -0.0881     0.9801     0.9801     0.0000
 28 H      0.9351     1.0000     0.0649     0.8987     0.8987     0.0000
 29 H      0.9390     1.0000     0.0610     0.8781     0.8781     0.0000
 30 H      1.0592     1.0000    -0.0592     1.0117     1.0117     0.0000
 31 H      1.0804     1.0000    -0.0804     0.9888     0.9888    -0.0000
 32 H      0.9231     1.0000     0.0769     0.8900     0.8900    -0.0000
 33 H      1.2602     1.0000    -0.2602     1.2412     1.2412    -0.0000
 34 H      0.8590     1.0000     0.1410     0.7403     0.7403     0.0000
 35 H      0.4073     1.0000     0.5927    -0.0974    -0.0974    -0.0000
 36 H      1.0897     1.0000    -0.0897     1.0789     1.0789    -0.0000
 37 H      0.9043     1.0000     0.0957     0.7833     0.7833    -0.0000
 38 H      0.9667     1.0000     0.0333     0.9096     0.9096     0.0000
 39 H      1.0781     1.0000    -0.0781     0.9711     0.9711     0.0000
 40 H      1.0695     1.0000    -0.0695     1.0174     1.0174     0.0000
 41 H      0.9482     1.0000     0.0518     0.8820     0.8820     0.0000
 42 H      0.9509     1.0000     0.0491     0.9004     0.9004     0.0000
 43 H      1.0760     1.0000    -0.0760     0.9764     0.9764    -0.0000
 44 H      0.8705     1.0000     0.1295     0.7815     0.7815     0.0000
 45 H      1.3351     1.0000    -0.3351     1.1166     1.1166     0.0000
 46 H      0.5946     1.0000     0.4054     0.3778     0.3778    -0.0000
 47 H      1.0034     1.0000    -0.0034     0.8998     0.8998     0.0000
 48 H      1.1822     1.0000    -0.1822     1.1659     1.1659    -0.0000
 49 H      1.0729     1.0000    -0.0729     0.9716     0.9716    -0.0000
 50 H      0.9350     1.0000     0.0650     0.8997     0.8997    -0.0000
 51 H      0.9308     1.0000     0.0692     0.8830     0.8830     0.0000
 52 H      1.0701     1.0000    -0.0701     1.0244     1.0244     0.0000
 53 H      1.0711     1.0000    -0.0711     1.0018     1.0018    -0.0000
 54 H      0.9642     1.0000     0.0358     0.9132     0.9132    -0.0000
 55 H      0.8561     1.0000     0.1439     0.5898     0.5898    -0.0000
 56 H      0.9065     1.0000     0.0935     0.8520     0.8520     0.0000
 57 C      5.7892     6.0000     0.2108     2.0493     2.0493    -0.0000
 58 C      6.2009     6.0000    -0.2009     3.1290     3.1290    -0.0000
 59 C      6.2927     6.0000    -0.2927     3.3920     3.3920    -0.0000
 60 C      6.1037     6.0000    -0.1037     3.3543     3.3543     0.0000
 61 C      6.4267     6.0000    -0.4267     3.5550     3.5550     0.0000
 62 C      5.9745     6.0000     0.0255     3.0205     3.0205    -0.0000
 63 H      0.9566     1.0000     0.0434     1.0019     1.0019    -0.0000
 64 H      0.9484     1.0000     0.0516     0.9637     0.9637    -0.0000
 65 H      0.9709     1.0000     0.0291     0.9824     0.9824     0.0000
 66 H      0.9108     1.0000     0.0892     0.8290     0.8290    -0.0000
 67 H      0.9215     1.0000     0.0785     0.9417     0.9417     0.0000

  Mayer bond orders larger than 0.100000
B(  0-Ru,  1-Cl) :   1.9266 B(  0-Ru,  2-Cl) :   1.8681 B(  0-Ru,  3-P ) :  -0.6114 
B(  0-Ru,  4-C ) :   1.3178 B(  0-Ru,  5-C ) :   0.2884 B(  0-Ru, 11-C ) :   0.3096 
B(  0-Ru, 16-C ) :  -0.1195 B(  0-Ru, 18-C ) :  -0.1039 B(  0-Ru, 22-C ) :   0.2644 
B(  0-Ru, 55-H ) :  -0.1207 B(  0-Ru, 57-C ) :  -0.1804 B(  0-Ru, 62-C ) :   0.1443 
B(  1-Cl,  3-P ) :  -0.9457 B(  1-Cl,  4-C ) :  -0.1248 B(  1-Cl, 22-C ) :   0.1047 
B(  1-Cl, 36-H ) :   0.1815 B(  1-Cl, 55-H ) :  -0.1567 B(  1-Cl, 57-C ) :  -0.2831 
B(  2-Cl,  3-P ) :  -0.7554 B(  2-Cl,  4-C ) :  -0.3244 B(  2-Cl,  6-C ) :   0.1468 
B(  2-Cl, 22-C ) :   0.1131 B(  2-Cl, 46-H ) :  -0.1235 B(  3-P ,  5-C ) :   0.9162 
B(  3-P ,  6-C ) :   0.5942 B(  3-P , 10-C ) :  -0.2434 B(  3-P , 11-C ) :   0.7215 
B(  3-P , 12-C ) :   0.8300 B(  3-P , 15-C ) :  -0.1438 B(  3-P , 16-C ) :   0.1569 
B(  3-P , 17-C ) :   0.6593 B(  3-P , 18-C ) :   0.4555 B(  3-P , 22-C ) :   0.3518 
B(  3-P , 24-H ) :   0.1861 B(  3-P , 35-H ) :  -0.4318 B(  3-P , 36-H ) :  -0.1005 
B(  3-P , 45-H ) :   0.1075 B(  3-P , 48-H ) :   0.1171 B(  3-P , 55-H ) :   0.1253 
B(  3-P , 57-C ) :  -0.1029 B(  4-C , 23-H ) :   0.7278 B(  4-C , 57-C ) :   0.7315 
B(  4-C , 58-C ) :  -0.5711 B(  4-C , 61-C ) :  -0.1876 B(  4-C , 62-C ) :   0.1890 
B(  4-C , 63-H ) :  -0.1224 B(  5-C ,  6-C ) :   1.1653 B(  5-C ,  7-C ) :   0.4334 
B(  5-C ,  9-C ) :   0.3678 B(  5-C , 10-C ) :   1.1473 B(  5-C , 11-C ) :   0.1115 
B(  5-C , 16-C ) :   0.1300 B(  5-C , 18-C ) :   0.1283 B(  5-C , 24-H ) :   0.4222 
B(  6-C ,  7-C ) :   0.8979 B(  6-C ,  8-C ) :   0.1486 B(  6-C , 11-C ) :   0.1061 
B(  6-C , 17-C ) :   0.1915 B(  6-C , 24-H ) :  -0.1098 B(  6-C , 25-H ) :   0.7272 
B(  6-C , 26-H ) :   0.8199 B(  7-C ,  8-C ) :   0.9505 B(  7-C ,  9-C ) :   0.1370 
B(  7-C , 27-H ) :   0.9467 B(  7-C , 28-H ) :   0.9116 B(  8-C ,  9-C ) :   0.9482 
B(  8-C , 10-C ) :   0.1474 B(  8-C , 29-H ) :   0.9166 B(  8-C , 30-H ) :   0.9395 
B(  9-C , 10-C ) :   0.6308 B(  9-C , 31-H ) :   0.8891 B(  9-C , 32-H ) :   0.9254 
B(  9-C , 33-H ) :   0.3536 B(  9-C , 34-H ) :  -0.1323 B( 10-C , 24-H ) :  -0.1056 
B( 10-C , 33-H ) :   0.8385 B( 10-C , 34-H ) :   0.8759 B( 11-C , 12-C ) :   0.7663 
B( 11-C , 13-C ) :   0.5087 B( 11-C , 15-C ) :   0.4525 B( 11-C , 16-C ) :   1.2264 
B( 11-C , 17-C ) :   0.2619 B( 11-C , 18-C ) :  -0.1205 B( 11-C , 22-C ) :   0.1121 
B( 11-C , 33-H ) :   0.1001 B( 11-C , 35-H ) :   0.6231 B( 12-C , 13-C ) :   0.8244 
B( 12-C , 14-C ) :   0.1365 B( 12-C , 16-C ) :  -0.1488 B( 12-C , 36-H ) :   0.6624 
B( 12-C , 37-H ) :   0.8560 B( 13-C , 14-C ) :   0.9355 B( 13-C , 15-C ) :   0.1596 
B( 13-C , 36-H ) :   0.1483 B( 13-C , 38-H ) :   0.9317 B( 13-C , 39-H ) :   0.8922 
B( 14-C , 15-C ) :   0.9530 B( 14-C , 16-C ) :   0.1119 B( 14-C , 40-H ) :   0.9435 
B( 14-C , 41-H ) :   0.9228 B( 15-C , 16-C ) :   0.7451 B( 15-C , 42-H ) :   0.8730 
B( 15-C , 43-H ) :   0.9192 B( 15-C , 45-H ) :   0.3001 B( 16-C , 17-C ) :   0.1102 
B( 16-C , 35-H ) :  -0.1620 B( 16-C , 44-H ) :   0.8724 B( 16-C , 45-H ) :   0.7146 
B( 17-C , 18-C ) :   0.8686 B( 17-C , 19-C ) :   0.4101 B( 17-C , 21-C ) :   0.3711 
B( 17-C , 22-C ) :   1.0049 B( 17-C , 46-H ) :   0.7478 B( 17-C , 50-H ) :   0.1076 
B( 17-C , 55-H ) :   0.1697 B( 18-C , 19-C ) :   0.7696 B( 18-C , 20-C ) :   0.1689 
B( 18-C , 47-H ) :   0.9151 B( 18-C , 48-H ) :   0.7842 B( 19-C , 20-C ) :   0.9635 
B( 19-C , 21-C ) :   0.1293 B( 19-C , 48-H ) :   0.2333 B( 19-C , 49-H ) :   0.9080 
B( 19-C , 50-H ) :   0.9212 B( 20-C , 21-C ) :   0.9295 B( 20-C , 22-C ) :   0.1948 
B( 20-C , 51-H ) :   0.9343 B( 20-C , 52-H ) :   0.9283 B( 21-C , 22-C ) :   0.9855 
B( 21-C , 53-H ) :   0.9403 B( 21-C , 54-H ) :   0.9120 B( 22-C , 55-H ) :   0.7124 
B( 22-C , 56-H ) :   0.9354 B( 23-H , 57-C ) :   0.1567 B( 57-C , 58-C ) :   1.4367 
B( 57-C , 62-C ) :   0.4072 B( 57-C , 66-H ) :  -0.1942 B( 58-C , 59-C ) :   1.1753 
B( 58-C , 63-H ) :   1.1314 B( 59-C , 60-C ) :   1.2425 B( 59-C , 64-H ) :   1.0744 
B( 60-C , 61-C ) :   1.1663 B( 60-C , 67-H ) :   1.0516 B( 61-C , 62-C ) :   1.3567 
B( 61-C , 65-H ) :   1.1005 B( 62-C , 66-H ) :   1.0518 

-------
TIMINGS
-------

Total SCF time: 0 days 1 hours 47 min 48 sec 

Total time                  ....    6468.288 sec
Sum of individual times     ....    6464.016 sec  ( 99.9%)

Fock matrix formation       ....    6433.981 sec  ( 99.5%)
  XC integration            ....      59.774 sec  (  0.9% of F)
    Basis function eval.    ....       5.449 sec  (  9.1% of XC)
    Density eval.           ....      27.606 sec  ( 46.2% of XC)
    XC-Functional eval.     ....       0.342 sec  (  0.6% of XC)
    XC-Potential eval.      ....      21.097 sec  ( 35.3% of XC)
Diagonalization             ....       9.222 sec  (  0.1%)
Density matrix formation    ....       0.619 sec  (  0.0%)
Population analysis         ....       1.037 sec  (  0.0%)
Initial guess               ....       4.834 sec  (  0.1%)
Orbital Transformation      ....       0.000 sec  (  0.0%)
Orbital Orthonormalization  ....       0.000 sec  (  0.0%)
DIIS solution               ....      12.441 sec  (  0.2%)
Grid generation             ....       1.882 sec  (  0.0%)


-------------------------------------------------------------------------------
                          DFT DISPERSION CORRECTION                            
                                                                               
                              DFTD3 V3.1  Rev 1                                
                          USING Becke-Johnson damping                          
-------------------------------------------------------------------------------
The TPSSH functional is recognized
Active option DFTDOPT                   ...         4   

molecular C6(AA) [au] = 53101.588890 


            DFT-D V3
 parameters
 s6 scaling factor         :     1.0000 
 a1 scaling factor         :     0.4529 
 s8 scaling factor         :     2.2382 
 a2 scaling factor         :     4.6550 
 ad hoc parameters k1-k3   :    16.0000     1.3333    -4.0000 

 Edisp/kcal,au: -85.460353217874  -0.136189727222 
 E6   /kcal   : -39.911104954 
 E8   /kcal   : -45.549248264 
 % E8         :  53.298689450 

-------------------------   ----------------
Dispersion correction           -0.136189727
-------------------------   ----------------


-------------------------   --------------------
FINAL SINGLE POINT ENERGY     -2333.600757923030
-------------------------   --------------------


                            ***************************************
                            *     ORCA property calculations      *
                            ***************************************

                                    ---------------------
                                    Active property flags
                                    ---------------------
   (+) Dipole Moment


------------------------------------------------------------------------------
                       ORCA ELECTRIC PROPERTIES CALCULATION
------------------------------------------------------------------------------

Dipole Moment Calculation                       ... on
Quadrupole Moment Calculation                   ... off
Polarizability Calculation                      ... off
GBWName                                         ... MOR13_ed24.gbw
Electron density file                           ... MOR13_ed24.scfp
The origin for moment calculation is the CENTER OF MASS  = ( 0.178495, -0.123193 -0.110374)

-------------
DIPOLE MOMENT
-------------
                                X             Y             Z
Electronic contribution:     94.51331     -73.91811     -66.33782
Nuclear contribution   :    -95.45400      75.19378      67.48059
                        -----------------------------------------
Total Dipole Moment    :     -0.94069       1.27567       1.14277
                        -----------------------------------------
Magnitude (a.u.)       :      1.95401
Magnitude (Debye)      :      4.96670



--------------------
Rotational spectrum 
--------------------
 
Rotational constants in cm-1:     0.004948     0.003136     0.003087 
Rotational constants in MHz :   148.341837    94.004802    92.554473 

 Dipole components along the rotational axes: 
x,y,z [a.u.] :    -0.976032     1.324747    -1.053834 
x,y,z [Debye]:    -2.480877     3.367239    -2.678633 

 

Timings for individual modules:

Sum of individual times         ...     6479.006 sec (= 107.983 min)
GTO integral calculation        ...       10.273 sec (=   0.171 min)   0.2 %
SCF iterations                  ...     6468.733 sec (= 107.812 min)  99.8 %
                             ****ORCA TERMINATED NORMALLY****
TOTAL RUN TIME: 0 days 1 hours 48 minutes 0 seconds 213 msec
