
                                 *****************
                                 * O   R   C   A *
                                 *****************

           --- An Ab Initio, DFT and Semiempirical electronic structure package ---

                  #######################################################
                  #                        -***-                        #
                  #          Department of theory and spectroscopy      #
                  #               Directorship: Frank Neese             #
                  #        Max Planck Institute fuer Kohlenforschung    #
                  #                Kaiser Wilhelm Platz 1               #
                  #                 D-45470 Muelheim/Ruhr               #
                  #                      Germany                        #
                  #                                                     #
                  #                  All rights reserved                #
                  #                        -***-                        #
                  #######################################################


                         Program Version 4.2.0 -  RELEASE  -


 With contributions from (in alphabetic order):
   Daniel Aravena         : Magnetic Suceptibility
   Michael Atanasov       : Ab Initio Ligand Field Theory (pilot matlab implementation)
   Alexander A. Auer      : GIAO ZORA, VPT2
   Ute Becker             : Parallelization
   Giovanni Bistoni       : ED, misc. LED, open-shell LED, HFLED
   Martin Brehm           : Molecular dynamics
   Dmytro Bykov           : SCF Hessian
   Vijay G. Chilkuri      : MRCI spin determinant printing, contributions to CSF-ICE
   Dipayan Datta          : RHF DLPNO-CCSD density
   Achintya Kumar Dutta   : EOM-CC, STEOM-CC
   Dmitry Ganyushin       : Spin-Orbit,Spin-Spin,Magnetic field MRCI
   Miquel Garcia          : C-PCM Hessian, Gaussian charge scheme
   Yang Guo               : DLPNO-NEVPT2, CIM, IAO-localization
   Andreas Hansen         : Spin unrestricted coupled pair/coupled cluster methods
   Benjamin Helmich-Paris : CASSCF linear response (MC-RPA)
   Lee Huntington         : MR-EOM, pCC
   Robert Izsak           : Overlap fitted RIJCOSX, COSX-SCS-MP3, EOM
   Christian Kollmar      : KDIIS, OOCD, Brueckner-CCSD(T), CCSD density
   Simone Kossmann        : Meta GGA functionals, TD-DFT gradient, OOMP2, MP2 Hessian
   Martin Krupicka        : AUTO-CI
   Lucas Lang             : DCDCAS
   Dagmar Lenk            : GEPOL surface, SMD
   Dimitrios Liakos       : Extrapolation schemes; Compound Job, initial MDCI parallelization
   Dimitrios Manganas     : Further ROCIS development; embedding schemes
   Dimitrios Pantazis     : SARC Basis sets
   Taras Petrenko         : DFT Hessian,TD-DFT gradient, ASA, ECA, R-Raman, ABS, FL, XAS/XES, NRVS
   Peter Pinski           : DLPNO-MP2, DLPNO-MP2 Gradient
   Christoph Reimann      : Effective Core Potentials
   Marius Retegan         : Local ZFS, SOC
   Christoph Riplinger    : Optimizer, TS searches, QM/MM, DLPNO-CCSD(T), (RO)-DLPNO pert. Triples
   Tobias Risthaus        : Range-separated hybrids, TD-DFT gradient, RPA, STAB
   Michael Roemelt        : Original ROCIS implementation
   Masaaki Saitow         : Open-shell DLPNO-CCSD energy and density
   Barbara Sandhoefer     : DKH picture change effects
   Avijit Sen             : IP-ROCIS
   Kantharuban Sivalingam : CASSCF convergence, NEVPT2, FIC-MRCI
   Bernardo de Souza      : ESD, SOC TD-DFT
   Georgi Stoychev        : AutoAux, RI-MP2 NMR
   Willem Van den Heuvel  : Paramagnetic NMR
   Boris Wezisla          : Elementary symmetry handling
   Frank Wennmohs         : Technical directorship


 We gratefully acknowledge several colleagues who have allowed us to
 interface, adapt or use parts of their codes:
   Stefan Grimme, W. Hujo, H. Kruse,             : VdW corrections, initial TS optimization,
                  C. Bannwarth                     DFT functionals, gCP, sTDA/sTD-DF
   Ed Valeev, F. Pavosevic, A. Kumar             : LibInt (2-el integral package), F12 methods
   Garnet Chan, S. Sharma, J. Yang, R. Olivares  : DMRG
   Ulf Ekstrom                                   : XCFun DFT Library
   Mihaly Kallay                                 : mrcc  (arbitrary order and MRCC methods)
   Andreas Klamt, Michael Diedenhofen            : otool_cosmo (COSMO solvation model)
   Jiri Pittner, Ondrej Demel                    : Mk-CCSD
   Frank Weinhold                                : gennbo (NPA and NBO analysis)
   Christopher J. Cramer and Donald G. Truhlar   : smd solvation model
   Lars Goerigk                                  : TD-DFT with DH, B97 family of functionals
   V. Asgeirsson, H. Jonsson                     : NEB implementation
   FAccTs GmbH                                   : IRC, NEB, NEB-TS, Multilevel, MM, QM/MM, CI optimization
   S Lehtola, MJT Oliveira, MAL Marques          : LibXC Library


 Your calculation uses the libint2 library for the computation of 2-el integrals
 For citations please refer to: http://libint.valeyev.net

 Your ORCA version has been built with support for libXC version: 4.2.3
 For citations please refer to: https://tddft.org/programs/libxc/

 This ORCA versions uses:
   CBLAS   interface :  Fast vector & matrix operations
   LAPACKE interface :  Fast linear algebra routines
   SCALAPACK package :  Parallel linear algebra routines


Your calculation utilizes the atom-pairwise dispersion correction
with the Becke-Johnson damping scheme (D3BJ)
Cite in your paper:
S.Grimme, S.Ehrlich, L.Goerigk, J Comput Chem, (2011), 32, 1456–1465 
S.Grimme, J.Antony, S.Ehrlich and H.Krieg, J.Chem.Phys., 132, (2010), 154104 
   

----- Orbital basis set information -----
Your calculation utilizes the basis: def2-TZVPPD
   F. Weigend and R. Ahlrichs, Phys. Chem. Chem. Phys. 7, 3297 (2005).
   D. Rappoport and F. Furche, J. Chem. Phys. 133 134105 (2010).

----- AuxJK basis set information -----
Your calculation utilizes the auxiliary basis: def2/JK
   H-Ba, Hf-Rn: F. Weigend, J. Comput. Chem. 29, 167 (2008).

cite the ECPs for Ru [Def2-ECP] as follows:
Ce-Yb(ecp-28): M. Dolg, H. Stoll, H.Preuss, J. Chem. Phys., 1989, 90, 1730-1734.
Y-Cd(ecp-28), Hf-Hg(ecp-46): D. Andrae,U. Haeussermann, M. Dolg, H. Stoll, H. Preuss, Theor. Chim. Acta, 1990, 77, 123-141.
In-Sb(ecp-28), Tl-Bi(ecp-46): B. Metz, H. Stoll, M. Dolg, J. Chem. Phys., 2000, 113, 2563-2569.
Te-Xe(ecp-28), Po-Rn(ecp-46): K. A. Peterson, D. Figgen, E. Goll, H. Stoll, M. Dolg, J. Chem. Phys., 2003, 119, 11113-11123.
Rb(ecp-28), Cs(ecp-46): T. Leininger, A. Nicklass, W. Kuechle, H. Stoll, M. Dolg, A. Bergner, Chem. Phys. Lett., 1996, 255, 274-280.
Sr(ecp-28), Ba(ecp-46): M. Kaupp, P. V. Schleyer, H. Stoll and H. Preuss, J. Chem. Phys., 1991, 94, 1360-1366.
La(ecp-46): M. Dolg, H. Stoll, A. Savin, H. Preuss, Theor. Chim. Acta, 1989, 75, 173-194.
Lu(ecp-28): X. Cao, M. Dolg, J. Chem. Phys., 2001, 115, 7348-7355.

ECP parameters for Ru [Def2-ECP] have been obtained from:
TURBOMOLE (7.0.2)

================================================================================
                                        WARNINGS
                       Please study these warnings very carefully!
================================================================================


INFO   : the flag for use of LIBINT has been found!

================================================================================
                                       INPUT FILE
================================================================================
NAME = MOR14_ed26.in
|  1> #
|  2> # MOR14_ed26 TPSSh-D3BJ/Def2-TZVPPD
|  3> #
|  4> ! tpssh d3bj def2-tzvppd def2/jk grid4 nofinalgrid
|  5> 
|  6> *xyz 0 1
|  7> Ru      -0.064344   -0.175682   -0.012222 
|  8> C        1.546320    1.136494   -0.983353 
|  9> C        1.182588    1.622095    0.326342 
| 10> C        2.076803   -0.497674    0.579629 
| 11> C        2.043947   -0.183601   -0.846926 
| 12> C        1.561141    0.611266    1.297590 
| 13> C        1.492783    1.931783   -2.249249 
| 14> H        0.696535    2.680581   -2.225612 
| 15> H        1.338709    1.291322   -3.121811 
| 16> H        2.442862    2.463439   -2.390633 
| 17> C        2.565540   -1.075324   -1.928175 
| 18> H        2.249514   -0.728507   -2.915600 
| 19> H        2.192282   -2.094362   -1.786204 
| 20> H        3.663236   -1.101421   -1.912436 
| 21> C        2.692583   -1.723434    1.172166 
| 22> H        3.783501   -1.598681    1.210971 
| 23> H        2.457484   -2.606090    0.574387 
| 24> H        2.333089   -1.899010    2.188816 
| 25> C        1.552612    0.773239    2.786124 
| 26> H        2.502734    1.205302    3.127194 
| 27> H        1.421923   -0.187720    3.289969 
| 28> H        0.754394    1.442873    3.118115 
| 29> C        0.799428    3.031668    0.660505 
| 30> H        1.693878    3.613580    0.920796 
| 31> H        0.118442    3.075561    1.514596 
| 32> H        0.315927    3.528553   -0.183556 
| 33> Cl      -0.006885   -2.617235   -0.279085 
| 34> C       -1.774511   -0.580489   -1.372668 
| 35> C       -1.428717    0.775607   -1.463600 
| 36> C       -2.230150    1.901113   -0.842184 
| 37> C       -2.597560    1.596364    0.619137 
| 38> C       -1.528383    0.747182    1.301561 
| 39> C       -1.615603   -0.659023    1.435525 
| 40> C       -2.738883   -1.472042    0.832207 
| 41> C       -3.001399   -1.117797   -0.653050 
| 42> H       -3.131417    2.097786   -1.444322 
| 43> H       -3.561641    1.080890    0.673312 
| 44> H       -1.631000    2.816891   -0.882167 
| 45> H       -3.816216   -0.389170   -0.734954 
| 46> H       -1.353755   -1.240657   -2.123162 
| 47> H       -0.836828    1.063474   -2.328552 
| 48> H       -3.337183   -2.018298   -1.174989 
| 49> H       -2.460187   -2.525401    0.898608 
| 50> H       -1.127422   -1.117347    2.293712 
| 51> H       -3.660878   -1.338434    1.419672 
| 52> H       -2.720080    2.533691    1.172959 
| 53> H       -0.970929    1.269583    2.073632 
| 54> *
| 55> 
| 56> %maxcore 5000
| 57> 
| 58> %pal
| 59> nprocs = 24
| 60> end
| 61> 
| 62> 
| 63>                          ****END OF INPUT****
================================================================================

                       ****************************
                       * Single Point Calculation *
                       ****************************

---------------------------------
CARTESIAN COORDINATES (ANGSTROEM)
---------------------------------
  Ru    -0.064344   -0.175682   -0.012222
  C      1.546320    1.136494   -0.983353
  C      1.182588    1.622095    0.326342
  C      2.076803   -0.497674    0.579629
  C      2.043947   -0.183601   -0.846926
  C      1.561141    0.611266    1.297590
  C      1.492783    1.931783   -2.249249
  H      0.696535    2.680581   -2.225612
  H      1.338709    1.291322   -3.121811
  H      2.442862    2.463439   -2.390633
  C      2.565540   -1.075324   -1.928175
  H      2.249514   -0.728507   -2.915600
  H      2.192282   -2.094362   -1.786204
  H      3.663236   -1.101421   -1.912436
  C      2.692583   -1.723434    1.172166
  H      3.783501   -1.598681    1.210971
  H      2.457484   -2.606090    0.574387
  H      2.333089   -1.899010    2.188816
  C      1.552612    0.773239    2.786124
  H      2.502734    1.205302    3.127194
  H      1.421923   -0.187720    3.289969
  H      0.754394    1.442873    3.118115
  C      0.799428    3.031668    0.660505
  H      1.693878    3.613580    0.920796
  H      0.118442    3.075561    1.514596
  H      0.315927    3.528553   -0.183556
  Cl    -0.006885   -2.617235   -0.279085
  C     -1.774511   -0.580489   -1.372668
  C     -1.428717    0.775607   -1.463600
  C     -2.230150    1.901113   -0.842184
  C     -2.597560    1.596364    0.619137
  C     -1.528383    0.747182    1.301561
  C     -1.615603   -0.659023    1.435525
  C     -2.738883   -1.472042    0.832207
  C     -3.001399   -1.117797   -0.653050
  H     -3.131417    2.097786   -1.444322
  H     -3.561641    1.080890    0.673312
  H     -1.631000    2.816891   -0.882167
  H     -3.816216   -0.389170   -0.734954
  H     -1.353755   -1.240657   -2.123162
  H     -0.836828    1.063474   -2.328552
  H     -3.337183   -2.018298   -1.174989
  H     -2.460187   -2.525401    0.898608
  H     -1.127422   -1.117347    2.293712
  H     -3.660878   -1.338434    1.419672
  H     -2.720080    2.533691    1.172959
  H     -0.970929    1.269583    2.073632

----------------------------
CARTESIAN COORDINATES (A.U.)
----------------------------
  NO LB      ZA    FRAG     MASS         X           Y           Z
   0 Ru   16.0000*   0   101.070   -0.121593   -0.331991   -0.023096
   1 C     6.0000    0    12.011    2.922121    2.147662   -1.858268
   2 C     6.0000    0    12.011    2.234767    3.065315    0.616697
   3 C     6.0000    0    12.011    3.924589   -0.940468    1.095340
   4 C     6.0000    0    12.011    3.862500   -0.346956   -1.600458
   5 C     6.0000    0    12.011    2.950129    1.155125    2.452090
   6 C     6.0000    0    12.011    2.820951    3.650541   -4.250465
   7 H     1.0000    0     1.008    1.316260    5.065564   -4.205797
   8 H     1.0000    0     1.008    2.529793    2.440245   -5.899368
   9 H     1.0000    0     1.008    4.616340    4.655225   -4.517642
  10 C     6.0000    0    12.011    4.848168   -2.032068   -3.643723
  11 H     1.0000    0     1.008    4.250965   -1.376679   -5.509686
  12 H     1.0000    0     1.008    4.142813   -3.957771   -3.375436
  13 H     1.0000    0     1.008    6.922513   -2.081384   -3.613980
  14 C     6.0000    0    12.011    5.088244   -3.256818    2.215073
  15 H     1.0000    0     1.008    7.149781   -3.021069    2.288404
  16 H     1.0000    0     1.008    4.643972   -4.924796    1.085434
  17 H     1.0000    0     1.008    4.408899   -3.588609    4.136263
  18 C     6.0000    0    12.011    2.934011    1.461210    5.265011
  19 H     1.0000    0     1.008    4.729482    2.277691    5.909540
  20 H     1.0000    0     1.008    2.687045   -0.354739    6.217140
  21 H     1.0000    0     1.008    1.425598    2.726635    5.892383
  22 C     6.0000    0    12.011    1.510700    5.729022    1.248174
  23 H     1.0000    0     1.008    3.200966    6.828677    1.740052
  24 H     1.0000    0     1.008    0.223823    5.811968    2.862172
  25 H     1.0000    0     1.008    0.597016    6.667999   -0.346871
  26 Cl   17.0000    0    35.453   -0.013011   -4.945857   -0.527394
  27 C     6.0000    0    12.011   -3.353340   -1.096965   -2.593967
  28 C     6.0000    0    12.011   -2.699884    1.465685   -2.765803
  29 C     6.0000    0    12.011   -4.214373    3.592583   -1.591497
  30 C     6.0000    0    12.011   -4.908677    3.016691    1.169999
  31 C     6.0000    0    12.011   -2.888225    1.411969    2.459594
  32 C     6.0000    0    12.011   -3.053047   -1.245373    2.712749
  33 C     6.0000    0    12.011   -5.175739   -2.781756    1.572643
  34 C     6.0000    0    12.011   -5.671822   -2.112330   -1.234086
  35 H     1.0000    0     1.008   -5.917521    3.964241   -2.729373
  36 H     1.0000    0     1.008   -6.730526    2.042586    1.272375
  37 H     1.0000    0     1.008   -3.082143    5.323153   -1.667054
  38 H     1.0000    0     1.008   -7.211603   -0.735425   -1.388862
  39 H     1.0000    0     1.008   -2.558226   -2.344502   -4.012195
  40 H     1.0000    0     1.008   -1.581376    2.009675   -4.400326
  41 H     1.0000    0     1.008   -6.306362   -3.814030   -2.220407
  42 H     1.0000    0     1.008   -4.649080   -4.772316    1.698123
  43 H     1.0000    0     1.008   -2.130519   -2.111480    4.334488
  44 H     1.0000    0     1.008   -6.918057   -2.529274    2.682791
  45 H     1.0000    0     1.008   -5.140206    4.787982    2.216571
  46 H     1.0000    0     1.008   -1.834790    2.399164    3.918597
* core charge reduced due to ECP

--------------------------------
INTERNAL COORDINATES (ANGSTROEM)
--------------------------------
 Ru     0   0   0     0.000000000000     0.00000000     0.00000000
 C      1   0   0     2.293281446974     0.00000000     0.00000000
 C      2   1   0     1.443402332009    68.36272180     0.00000000
 C      1   2   3     2.244655191755    61.56130184   278.88233492
 C      2   1   3     1.417355201240    70.90767887   119.69047010
 C      4   1   2     1.418140761478    71.00206706    80.81739060
 C      2   1   3     1.495942340702   129.59831823   241.21106963
 H      7   2   1     1.093283142684   111.83206440    59.23937258
 H      7   2   1     1.093294806464   111.65275576   297.56304777
 H      7   2   1     1.097860484776   109.60033498   178.40212829
 C      5   2   1     1.495435911826   127.46244564   123.03479324
 H     11   5   2     1.093234922050   111.28814169   342.33770441
 H     11   5   2     1.094493373598   110.02627288   222.29537860
 H     11   5   2     1.098118972583   110.63807912   102.44604329
 C      4   1   2     1.494246526638   127.97579921   202.39005459
 H     15   4   1     1.098713439327   109.27116241   172.11190762
 H     15   4   1     1.091646869174   110.93917151    51.95303718
 H     15   4   1     1.092538370178   111.42180116   291.60538210
 C      6   4   1     1.497344805222   126.15342628   124.57193803
 H     19   6   4     1.098061471755   110.26841167    85.90734056
 H     19   6   4     1.092877668555   111.33856197   326.25335473
 H     19   6   4     1.093517120836   111.85213757   205.14719153
 C      3   2   1     1.498456718927   125.67984263   230.59750296
 H     23   3   2     1.098368691708   110.05902698   270.90079480
 H     23   3   2     1.093224571589   111.79421720   151.49850839
 H     23   3   2     1.092294324780   111.64028998    30.33460964
 Cl     1   2   3     2.456765851533   120.41201345   218.71916022
 C      1   2   3     2.222465566450   112.67135192   131.19623551
 C     28   1   2     1.402440187771    70.96384791   316.06890727
 C     29  28   1     1.514997179727   124.14792320   254.90401730
 C     30  29  28     1.537309704042   111.65759980    47.52342252
 C     31  30  29     1.526418043076   111.58342661    31.58478783
 C     32  31  30     1.415261878142   123.49845665   262.69114951
 C     33  32  31     1.512200536267   122.83436769     4.17033904
 C     28   1   2     1.520461810547   113.30130880   195.43993823
 H     30  29  28     1.101604577542   109.95165936   283.77216171
 H     31  30  29     1.094577795253   110.54270185   269.54793262
 H     30  29  28     1.095093013434   108.47307601   168.08212482
 H     35  28   1     1.096144294258   109.24180883   114.98822098
 H     28   1   2     1.084480817625   103.64744398    69.89814302
 H     29  28   1     1.086895560905   116.22969447   101.15209273
 H     35  28   1     1.093651345438   108.23088149   230.52178431
 H     34  33  32     1.091625272746   107.75108057   168.25504834
 H     33  32  31     1.088515734708   117.73273449   209.24569279
 H     34  33  32     1.101381407104   110.10864504   285.04910266
 H     31  30  29     1.095587451102   109.73332571   152.71459867
 H     32  31  30     1.086163613807   114.18695060   111.21594198

---------------------------
INTERNAL COORDINATES (A.U.)
---------------------------
 Ru     0   0   0     0.000000000000     0.00000000     0.00000000
 C      1   0   0     4.333673882783     0.00000000     0.00000000
 C      2   1   0     2.727635108561    68.36272180     0.00000000
 C      1   2   3     4.241783577502    61.56130184   278.88233492
 C      2   1   3     2.678413164833    70.90767887   119.69047010
 C      4   1   2     2.679897658544    71.00206706    80.81739060
 C      2   1   3     2.826921336065   129.59831823   241.21106963
 H      7   2   1     2.066005726506   111.83206440    59.23937258
 H      7   2   1     2.066027767855   111.65275576   297.56304777
 H      7   2   1     2.074655649481   109.60033498   178.40212829
 C      5   2   1     2.825964324182   127.46244564   123.03479324
 H     11   5   2     2.065914602714   111.28814169   342.33770441
 H     11   5   2     2.068292731491   110.02627288   222.29537860
 H     11   5   2     2.075144120644   110.63807912   102.44604329
 C      4   1   2     2.823716711908   127.97579921   202.39005459
 H     15   4   1     2.076267499987   109.27116241   172.11190762
 H     15   4   1     2.062913617692   110.93917151    51.95303718
 H     15   4   1     2.064598310438   111.42180116   291.60538210
 C      6   4   1     2.829571609920   126.15342628   124.57193803
 H     19   6   4     2.075035459828   110.26841167    85.90734056
 H     19   6   4     2.065239491448   111.33856197   326.25335473
 H     19   6   4     2.066447881134   111.85213757   205.14719153
 C      3   2   1     2.831672822307   125.67984263   230.59750296
 H     23   3   2     2.075616021402   110.05902698   270.90079480
 H     23   3   2     2.065895043177   111.79421720   151.49850839
 H     23   3   2     2.064137131471   111.64028998    30.33460964
 Cl     1   2   3     4.642614634567   120.41201345   218.71916022
 C      1   2   3     4.199851262660   112.67135192   131.19623551
 C     28   1   2     2.650227874093    70.96384791   316.06890727
 C     29  28   1     2.862929763347   124.14792320   254.90401730
 C     30  29  28     2.905094323659   111.65759980    47.52342252
 C     31  30  29     2.884512067290   111.58342661    31.58478783
 C     32  31  30     2.674457357467   123.49845665   262.69114951
 C     33  32  31     2.857644873113   122.83436769     4.17033904
 C     28   1   2     2.873256419020   113.30130880   195.43993823
 H     30  29  28     2.081730959429   109.95165936   283.77216171
 H     31  30  29     2.068452265300   110.54270185   269.54793262
 H     30  29  28     2.069425886562   108.47307601   168.08212482
 H     35  28   1     2.071412519408   109.24180883   114.98822098
 H     28   1   2     2.049371742802   103.64744398    69.89814302
 H     29  28   1     2.053934946284   116.22969447   101.15209273
 H     35  28   1     2.066701528872   108.23088149   230.52178431
 H     34  33  32     2.062872806357   107.75108057   168.25504834
 H     33  32  31     2.056996631061   117.73273449   209.24569279
 H     34  33  32     2.081309228419   110.10864504   285.04910266
 H     31  30  29     2.070360238344   109.73332571   152.71459867
 H     32  31  30     2.052551766725   114.18695060   111.21594198

---------------------
BASIS SET INFORMATION
---------------------
There are 4 groups of distinct atoms

 Group   1 Type Ru  : 7s7p5d2f1g contracted to 6s4p3d2f1g pattern {211111/4111/311/11/1}
 Group   2 Type C   : 12s6p3d1f contracted to 6s3p3d1f pattern {621111/411/111/1}
 Group   3 Type H   : 5s3p1d contracted to 3s3p1d pattern {311/111/1}
 Group   4 Type Cl  : 15s10p4d1f contracted to 6s6p4d1f pattern {732111/511111/1111/1}

Atom   0Ru   basis set group =>   1
Atom   1C    basis set group =>   2
Atom   2C    basis set group =>   2
Atom   3C    basis set group =>   2
Atom   4C    basis set group =>   2
Atom   5C    basis set group =>   2
Atom   6C    basis set group =>   2
Atom   7H    basis set group =>   3
Atom   8H    basis set group =>   3
Atom   9H    basis set group =>   3
Atom  10C    basis set group =>   2
Atom  11H    basis set group =>   3
Atom  12H    basis set group =>   3
Atom  13H    basis set group =>   3
Atom  14C    basis set group =>   2
Atom  15H    basis set group =>   3
Atom  16H    basis set group =>   3
Atom  17H    basis set group =>   3
Atom  18C    basis set group =>   2
Atom  19H    basis set group =>   3
Atom  20H    basis set group =>   3
Atom  21H    basis set group =>   3
Atom  22C    basis set group =>   2
Atom  23H    basis set group =>   3
Atom  24H    basis set group =>   3
Atom  25H    basis set group =>   3
Atom  26Cl   basis set group =>   4
Atom  27C    basis set group =>   2
Atom  28C    basis set group =>   2
Atom  29C    basis set group =>   2
Atom  30C    basis set group =>   2
Atom  31C    basis set group =>   2
Atom  32C    basis set group =>   2
Atom  33C    basis set group =>   2
Atom  34C    basis set group =>   2
Atom  35H    basis set group =>   3
Atom  36H    basis set group =>   3
Atom  37H    basis set group =>   3
Atom  38H    basis set group =>   3
Atom  39H    basis set group =>   3
Atom  40H    basis set group =>   3
Atom  41H    basis set group =>   3
Atom  42H    basis set group =>   3
Atom  43H    basis set group =>   3
Atom  44H    basis set group =>   3
Atom  45H    basis set group =>   3
Atom  46H    basis set group =>   3
----------------------------------
AUXILIARY/JK BASIS SET INFORMATION
----------------------------------
There are 4 groups of distinct atoms

 Group   1 Type Ru  : 13s12p10d9f6g3h2i contracted to 11s10p9d8f6g3h2i pattern {31111111111/3111111111/211111111/21111111/111111/111/11}
 Group   2 Type C   : 14s10p6d2f1g contracted to 10s8p5d1f1g pattern {5111111111/31111111/21111/2/1}
 Group   3 Type H   : 4s2p2d contracted to 2s2p2d pattern {31/11/11}
 Group   4 Type Cl  : 16s12p10d4f1g contracted to 13s11p9d4f1g pattern {4111111111111/21111111111/211111111/1111/1}

Atom   0Ru   basis set group =>   1
Atom   1C    basis set group =>   2
Atom   2C    basis set group =>   2
Atom   3C    basis set group =>   2
Atom   4C    basis set group =>   2
Atom   5C    basis set group =>   2
Atom   6C    basis set group =>   2
Atom   7H    basis set group =>   3
Atom   8H    basis set group =>   3
Atom   9H    basis set group =>   3
Atom  10C    basis set group =>   2
Atom  11H    basis set group =>   3
Atom  12H    basis set group =>   3
Atom  13H    basis set group =>   3
Atom  14C    basis set group =>   2
Atom  15H    basis set group =>   3
Atom  16H    basis set group =>   3
Atom  17H    basis set group =>   3
Atom  18C    basis set group =>   2
Atom  19H    basis set group =>   3
Atom  20H    basis set group =>   3
Atom  21H    basis set group =>   3
Atom  22C    basis set group =>   2
Atom  23H    basis set group =>   3
Atom  24H    basis set group =>   3
Atom  25H    basis set group =>   3
Atom  26Cl   basis set group =>   4
Atom  27C    basis set group =>   2
Atom  28C    basis set group =>   2
Atom  29C    basis set group =>   2
Atom  30C    basis set group =>   2
Atom  31C    basis set group =>   2
Atom  32C    basis set group =>   2
Atom  33C    basis set group =>   2
Atom  34C    basis set group =>   2
Atom  35H    basis set group =>   3
Atom  36H    basis set group =>   3
Atom  37H    basis set group =>   3
Atom  38H    basis set group =>   3
Atom  39H    basis set group =>   3
Atom  40H    basis set group =>   3
Atom  41H    basis set group =>   3
Atom  42H    basis set group =>   3
Atom  43H    basis set group =>   3
Atom  44H    basis set group =>   3
Atom  45H    basis set group =>   3
Atom  46H    basis set group =>   3
-------------------------
ECP PARAMETER INFORMATION
-------------------------

 Group 1, Type Ru ECP Def2-ECP (replacing 28 core electrons, lmax=3)

Atom   0Ru   ECP group =>   1



           ************************************************************
           *        Program running with 24 parallel MPI-processes    *
           *              working on a common directory               *
           ************************************************************
------------------------------------------------------------------------------
                           ORCA GTO INTEGRAL CALCULATION
------------------------------------------------------------------------------

                         BASIS SET STATISTICS AND STARTUP INFO

 # of primitive gaussian shells          ...  691
 # of primitive gaussian functions       ... 1597
 # of contracted shells                  ...  456
 # of contracted basis functions         ... 1232
 Highest angular momentum                ...    4
 Maximum contraction depth               ...    7
 Integral package used                   ... LIBINT
 Integral threshhold            Thresh   ...  1.000e-10
 Primitive cut-off              TCut     ...  1.000e-11


------------------------------ INTEGRAL EVALUATION ----------------------------


 * One electron integrals 

   ECP integrals                         ... done
 Pre-screening matrix                    ... done
 Shell pair data                         ... done (   0.026 sec)



           ************************************************************
           *        Program running with 24 parallel MPI-processes    *
           *              working on a common directory               *
           ************************************************************
-------------------------------------------------------------------------------
                                 ORCA SCF
-------------------------------------------------------------------------------

------------
SCF SETTINGS
------------
Hamiltonian:
 Density Functional     Method          .... DFT(GTOs)
 Exchange Functional    Exchange        .... TPSS
 Correlation Functional Correlation     .... TPSS
 LDA part of GGA corr.  LDAOpt          .... PW91-LDA
 Gradients option       PostSCFGGA      .... off
 Hybrid DFT is turned on
   Fraction HF Exchange ScalHFX         ....  0.100000
   Scaling of DF-GGA-X  ScalDFX         ....  0.900000
   Scaling of DF-GGA-C  ScalDFC         ....  1.000000
   Scaling of DF-LDA-C  ScalLDAC        ....  1.000000
   Perturbative correction              ....  0.000000
   Density functional embedding theory  .... OFF
   NL short-range parameter             ....  5.200000


General Settings:
 Integral files         IntName         .... MOR14_ed26
 Hartree-Fock type      HFTyp           .... RHF
 Total Charge           Charge          ....    0
 Multiplicity           Mult            ....    1
 Number of Electrons    NEL             ....  168
 Basis Dimension        Dim             .... 1232
 Nuclear Repulsion      ENuc            ....   2177.8911490975 Eh

Convergence Acceleration:
 DIIS                   CNVDIIS         .... on
   Start iteration      DIISMaxIt       ....    12
   Startup error        DIISStart       ....  0.200000
   # of expansion vecs  DIISMaxEq       ....     5
   Bias factor          DIISBfac        ....   1.050
   Max. coefficient     DIISMaxC        ....  10.000
 Newton-Raphson         CNVNR           .... off
 SOSCF                  CNVSOSCF        .... off
 Level Shifting         CNVShift        .... on
   Level shift para.    LevelShift      ....    0.2500
   Turn off err/grad.   ShiftErr        ....    0.0010
 Zerner damping         CNVZerner       .... off
 Static damping         CNVDamp         .... on
   Fraction old density DampFac         ....    0.7000
   Max. Damping (<1)    DampMax         ....    0.9800
   Min. Damping (>=0)   DampMin         ....    0.0000
   Turn off err/grad.   DampErr         ....    0.1000
 Fernandez-Rico         CNVRico         .... off

SCF Procedure:
 Maximum # iterations   MaxIter         ....   125
 SCF integral mode      SCFMode         .... Direct
   Integral package                     .... LIBINT
 Reset frequency        DirectResetFreq ....    20
 Integral Threshold     Thresh          ....  1.000e-10 Eh
 Primitive CutOff       TCut            ....  1.000e-11 Eh

Convergence Tolerance:
 Convergence Check Mode ConvCheckMode   .... Total+1el-Energy
 Convergence forced     ConvForced      .... 0
 Energy Change          TolE            ....  1.000e-06 Eh
 1-El. energy change                    ....  1.000e-03 Eh
 DIIS Error             TolErr          ....  1.000e-06


Diagonalization of the overlap matrix:
Smallest eigenvalue                        ... 1.424e-07
Time for diagonalization                   ...    0.227 sec
Threshold for overlap eigenvalues          ... 1.000e-08
Number of eigenvalues below threshold      ... 0
Time for construction of square roots      ...    0.183 sec
Total time needed                          ...    0.415 sec

-------------------
DFT GRID GENERATION
-------------------

General Integration Accuracy     IntAcc      ...  4.670
Radial Grid Type                 RadialGrid  ... Gauss-Chebyshev
Angular Grid (max. acc.)         AngularGrid ... Lebedev-302
Angular grid pruning method      GridPruning ... 3 (G Style)
Weight generation scheme         WeightScheme... Becke
Basis function cutoff            BFCut       ...    1.0000e-10
Integration weight cutoff        WCut        ...    1.0000e-14
Grids for H and He will be reduced by one unit

# of grid points (after initial pruning)     ... 220706 (   0.0 sec)
# of grid points (after weights+screening)   ... 185140 (   0.2 sec)
nearest neighbour list constructed           ...    0.0 sec
Grid point re-assignment to atoms done       ...    0.0 sec
Grid point division into batches done        ...    0.5 sec
Reduced shell lists constructed in    0.8 sec

Total number of grid points                  ...   185140
Total number of batches                      ...     2918
Average number of points per batch           ...       63
Average number of grid points per atom       ...     3939
Average number of shells per batch           ...   312.32 (68.49%)
Average number of basis functions per batch  ...   855.75 (69.46%)
Average number of large shells per batch     ...   238.80 (76.46%)
Average number of large basis fcns per batch ...   649.18 (75.86%)
Maximum spatial batch extension              ...   1.98,  2.08,  1.84 au
Average spatial batch extension              ...   0.04,  0.04,  0.04 au

Time for grid setup =    1.094 sec

------------------------------
INITIAL GUESS: MODEL POTENTIAL
------------------------------
Loading Hartree-Fock densities                     ... done
  calling /sw/apps/orca/orca_4_2_0_linux_x86-64_openmpi314/orca MOR14_ed26_atom44.inp > MOR14_ed26_atom44.out in order to generate an atomic fitting density for atom 0 (Ru with ECP) on-the-fly... 
    atom 0 (Ru), assumed electronic state with S=5: 1s2 2s2 2p6 3s2 3p6 4s2 3d10 4p6 5s2 4d6           ... done
Calculating cut-offs                               ... done
Setting up the integral package                    ... done
Initializing the effective Hamiltonian             ... done
Starting the Coulomb interaction                   ... done (   0.3 sec)
Reading the grid                                   ... done
Mapping shells                                     ... done
Starting the XC term evaluation                    ... done (   1.2 sec)
  promolecular density results
     # of electrons  =    195.985915939
     EX              =   -256.296218234
     EC              =     -7.513843562
     EX+EC           =   -263.810061796
Transforming the Hamiltonian                       ... done (   0.1 sec)
Diagonalizing the Hamiltonian                      ... done (   0.2 sec)
Back transforming the eigenvectors                 ... done (   0.1 sec)
Now organizing SCF variables                       ... done
                      ------------------
                      INITIAL GUESS DONE (   4.0 sec)
                      ------------------
--------------
SCF ITERATIONS
--------------
ITER       Energy         Delta-E        Max-DP      RMS-DP      [F,P]     Damp
               ***  Starting incremental Fock matrix formation  ***
  0  -1256.9118877246   0.000000000000 5.43710793  0.01323690  0.3920824 0.7000
  1  -1257.3031531945  -0.391265469949 0.55685439  0.00362138  0.3250418 0.7000
  2  -1257.4136060517  -0.110452857151 1.45209800  0.00430968  0.2374144 0.7000
                               ***Turning on DIIS***
  3  -1257.5062145596  -0.092608507985 1.03817893  0.00279238  0.1544687 0.7000
  4  -1257.5638902344  -0.057675674745 0.30315858  0.00145870  0.1009514 0.7000
  5  -1257.6062857043  -0.042395469921 1.15168016  0.00387682  0.0719982 0.0000
  6  -1257.7039201828  -0.097634478458 0.69128965  0.00191878  0.0099085 0.0000
  7  -1257.7044872719  -0.000567089097 1.06212990  0.00272293  0.0015906 0.0000
  8  -1257.7045241487  -0.000036876862 0.41721001  0.00111301  0.0014783 0.0000
  9  -1257.7045424930  -0.000018344246 0.88542367  0.00416782  0.0003513 0.0000
 10  -1257.7045483986  -0.000005905619 0.77183594  0.00173131  0.0001742 0.0000
 11  -1257.7045485805  -0.000000181940 0.40191579  0.00148163  0.0000952 0.0000
 12  -1257.7045486229  -0.000000042357 0.46167464  0.00150705  0.0000838 0.0000
 13  -1257.7045487500  -0.000000127087 0.50493130  0.00149256  0.0000690 0.0000
 14  -1257.7045488313  -0.000000081358 0.40435034  0.00119988  0.0000413 0.0000
 15  -1257.7045488724  -0.000000041018 1.15658594  0.00204423  0.0000254 0.0000
                 **** Energy Check signals convergence ****

               *****************************************************
               *                     SUCCESS                       *
               *           SCF CONVERGED AFTER  16 CYCLES          *
               *****************************************************


----------------
TOTAL SCF ENERGY
----------------

Total Energy       :        -1257.70454883 Eh          -34223.88068 eV

Components:
Nuclear Repulsion  :         2177.89114910 Eh           59263.43106 eV
Electronic Energy  :        -3435.59569793 Eh          -93487.31174 eV
One Electron Energy:        -6084.29393856 Eh         -165562.05508 eV
Two Electron Energy:         2648.69824063 Eh           72074.74334 eV

Virial components:
Potential Energy   :        -2449.88662440 Eh          -66664.80422 eV
Kinetic Energy     :         1192.18207557 Eh           32440.92354 eV
Virial Ratio       :            2.05496012


DFT components:
N(Alpha)           :       83.999772999900 electrons
N(Beta)            :       83.999772999900 electrons
N(Total)           :      167.999545999800 electrons
E(X)               :     -126.728501569984 Eh       
E(C)               :       -5.875599557600 Eh       
E(XC)              :     -132.604101127584 Eh       
DFET-embed. en.    :        0.000000000000 Eh       

---------------
SCF CONVERGENCE
---------------

  Last Energy change         ...    4.3482e-08  Tolerance :   1.0000e-06
  Last MAX-Density change    ...    4.2774e-01  Tolerance :   1.0000e-05
  Last RMS-Density change    ...    1.2327e-03  Tolerance :   1.0000e-06
  Last DIIS Error            ...    5.3561e-06  Tolerance :   1.0000e-06

             **** THE GBW FILE WAS UPDATED (MOR14_ed26.gbw) ****
             **** DENSITY FILE WAS UPDATED (MOR14_ed26.scfp) ****
             **** ENERGY FILE WAS UPDATED (MOR14_ed26.en.tmp) ****
             **** THE GBW FILE WAS UPDATED (MOR14_ed26.gbw) ****
             **** DENSITY FILE WAS UPDATED (MOR14_ed26.scfp) ****
----------------
ORBITAL ENERGIES
----------------

  NO   OCC          E(Eh)            E(eV) 
   0   2.0000    -101.283289     -2756.0584 
   1   2.0000     -10.145652      -276.0772 
   2   2.0000     -10.142106      -275.9807 
   3   2.0000     -10.139091      -275.8987 
   4   2.0000     -10.138335      -275.8781 
   5   2.0000     -10.134319      -275.7688 
   6   2.0000     -10.127129      -275.5732 
   7   2.0000     -10.125401      -275.5262 
   8   2.0000     -10.123317      -275.4695 
   9   2.0000     -10.119946      -275.3777 
  10   2.0000     -10.116169      -275.2750 
  11   2.0000     -10.114361      -275.2258 
  12   2.0000     -10.111604      -275.1507 
  13   2.0000     -10.109193      -275.0851 
  14   2.0000     -10.108310      -275.0611 
  15   2.0000     -10.106030      -274.9990 
  16   2.0000     -10.105825      -274.9935 
  17   2.0000     -10.101812      -274.8843 
  18   2.0000     -10.096473      -274.7390 
  19   2.0000      -9.284383      -252.6409 
  20   2.0000      -7.029693      -191.2877 
  21   2.0000      -7.024393      -191.1434 
  22   2.0000      -7.024166      -191.1373 
  23   2.0000      -2.965788       -80.7032 
  24   2.0000      -1.833462       -49.8910 
  25   2.0000      -1.818298       -49.4784 
  26   2.0000      -1.808530       -49.2126 
  27   2.0000      -0.879465       -23.9315 
  28   2.0000      -0.809494       -22.0274 
  29   2.0000      -0.772534       -21.0217 
  30   2.0000      -0.766587       -20.8599 
  31   2.0000      -0.751051       -20.4371 
  32   2.0000      -0.744958       -20.2713 
  33   2.0000      -0.714173       -19.4336 
  34   2.0000      -0.704094       -19.1594 
  35   2.0000      -0.701915       -19.1001 
  36   2.0000      -0.693783       -18.8788 
  37   2.0000      -0.666571       -18.1383 
  38   2.0000      -0.642644       -17.4872 
  39   2.0000      -0.617123       -16.7928 
  40   2.0000      -0.608101       -16.5473 
  41   2.0000      -0.572629       -15.5820 
  42   2.0000      -0.530871       -14.4457 
  43   2.0000      -0.509408       -13.8617 
  44   2.0000      -0.508237       -13.8298 
  45   2.0000      -0.494637       -13.4598 
  46   2.0000      -0.475754       -12.9459 
  47   2.0000      -0.460115       -12.5204 
  48   2.0000      -0.447902       -12.1880 
  49   2.0000      -0.442801       -12.0492 
  50   2.0000      -0.436450       -11.8764 
  51   2.0000      -0.422645       -11.5007 
  52   2.0000      -0.419997       -11.4287 
  53   2.0000      -0.414772       -11.2865 
  54   2.0000      -0.409199       -11.1349 
  55   2.0000      -0.407302       -11.0833 
  56   2.0000      -0.398994       -10.8572 
  57   2.0000      -0.396309       -10.7841 
  58   2.0000      -0.392166       -10.6714 
  59   2.0000      -0.390302       -10.6206 
  60   2.0000      -0.387730       -10.5507 
  61   2.0000      -0.386298       -10.5117 
  62   2.0000      -0.374597       -10.1933 
  63   2.0000      -0.366756        -9.9799 
  64   2.0000      -0.365650        -9.9498 
  65   2.0000      -0.347689        -9.4611 
  66   2.0000      -0.346446        -9.4273 
  67   2.0000      -0.337725        -9.1900 
  68   2.0000      -0.335817        -9.1380 
  69   2.0000      -0.333659        -9.0793 
  70   2.0000      -0.329392        -8.9632 
  71   2.0000      -0.326046        -8.8722 
  72   2.0000      -0.304762        -8.2930 
  73   2.0000      -0.298313        -8.1175 
  74   2.0000      -0.284282        -7.7357 
  75   2.0000      -0.268144        -7.2966 
  76   2.0000      -0.264380        -7.1941 
  77   2.0000      -0.254966        -6.9380 
  78   2.0000      -0.247171        -6.7259 
  79   2.0000      -0.238706        -6.4955 
  80   2.0000      -0.231127        -6.2893 
  81   2.0000      -0.200957        -5.4683 
  82   2.0000      -0.196331        -5.3424 
  83   2.0000      -0.179933        -4.8962 
  84   0.0000      -0.051390        -1.3984 
  85   0.0000      -0.026536        -0.7221 
  86   0.0000      -0.011423        -0.3108 
  87   0.0000       0.003948         0.1074 
  88   0.0000       0.005959         0.1622 
  89   0.0000       0.010753         0.2926 
  90   0.0000       0.014581         0.3968 
  91   0.0000       0.015024         0.4088 
  92   0.0000       0.024709         0.6724 
  93   0.0000       0.028463         0.7745 
  94   0.0000       0.030696         0.8353 
  95   0.0000       0.033909         0.9227 
  96   0.0000       0.034561         0.9405 
  97   0.0000       0.037243         1.0134 
  98   0.0000       0.042151         1.1470 
  99   0.0000       0.049525         1.3476 
 100   0.0000       0.052664         1.4331 
 101   0.0000       0.057691         1.5699 
 102   0.0000       0.060674         1.6510 
 103   0.0000       0.063423         1.7258 
 104   0.0000       0.065612         1.7854 
 105   0.0000       0.072604         1.9756 
 106   0.0000       0.078326         2.1313 
 107   0.0000       0.080865         2.2004 
 108   0.0000       0.083833         2.2812 
 109   0.0000       0.086796         2.3618 
 110   0.0000       0.089637         2.4391 
 111   0.0000       0.094585         2.5738 
 112   0.0000       0.098712         2.6861 
 113   0.0000       0.100675         2.7395 
 114   0.0000       0.104461         2.8425 
 115   0.0000       0.106729         2.9042 
 116   0.0000       0.112872         3.0714 
 117   0.0000       0.118736         3.2310 
 118   0.0000       0.121410         3.3037 
 119   0.0000       0.127666         3.4740 
 120   0.0000       0.129707         3.5295 
 121   0.0000       0.131113         3.5678 
 122   0.0000       0.133408         3.6302 
 123   0.0000       0.135886         3.6976 
 124   0.0000       0.136929         3.7260 
 125   0.0000       0.143157         3.8955 
 126   0.0000       0.148927         4.0525 
 127   0.0000       0.155684         4.2364 
 128   0.0000       0.157655         4.2900 
 129   0.0000       0.158271         4.3068 
 130   0.0000       0.162992         4.4352 
 131   0.0000       0.164509         4.4765 
 132   0.0000       0.167016         4.5447 
 133   0.0000       0.172629         4.6975 
 134   0.0000       0.177104         4.8192 
 135   0.0000       0.177594         4.8326 
 136   0.0000       0.181409         4.9364 
 137   0.0000       0.186470         5.0741 
 138   0.0000       0.188425         5.1273 
 139   0.0000       0.194022         5.2796 
 140   0.0000       0.195731         5.3261 
 141   0.0000       0.197110         5.3636 
 142   0.0000       0.199058         5.4166 
 143   0.0000       0.202356         5.5064 
 144   0.0000       0.205152         5.5825 
 145   0.0000       0.207478         5.6458 
 146   0.0000       0.208158         5.6643 
 147   0.0000       0.208839         5.6828 
 148   0.0000       0.214020         5.8238 
 149   0.0000       0.217152         5.9090 
 150   0.0000       0.223468         6.0809 
 151   0.0000       0.224062         6.0970 
 152   0.0000       0.224874         6.1191 
 153   0.0000       0.226193         6.1550 
 154   0.0000       0.228976         6.2308 
 155   0.0000       0.230437         6.2705 
 156   0.0000       0.233597         6.3565 
 157   0.0000       0.234516         6.3815 
 158   0.0000       0.236713         6.4413 
 159   0.0000       0.242127         6.5886 
 160   0.0000       0.242603         6.6016 
 161   0.0000       0.244444         6.6517 
 162   0.0000       0.245963         6.6930 
 163   0.0000       0.249156         6.7799 
 164   0.0000       0.249916         6.8006 
 165   0.0000       0.251990         6.8570 
 166   0.0000       0.256528         6.9805 
 167   0.0000       0.257344         7.0027 
 168   0.0000       0.259769         7.0687 
 169   0.0000       0.261147         7.1062 
 170   0.0000       0.263494         7.1700 
 171   0.0000       0.266791         7.2597 
 172   0.0000       0.268494         7.3061 
 173   0.0000       0.273148         7.4327 
 174   0.0000       0.274166         7.4604 
 175   0.0000       0.275128         7.4866 
 176   0.0000       0.279905         7.6166 
 177   0.0000       0.281195         7.6517 
 178   0.0000       0.285151         7.7593 
 179   0.0000       0.286260         7.7895 
 180   0.0000       0.288161         7.8413 
 181   0.0000       0.289211         7.8698 
 182   0.0000       0.294974         8.0266 
 183   0.0000       0.297809         8.1038 
 184   0.0000       0.299632         8.1534 
 185   0.0000       0.301139         8.1944 
 186   0.0000       0.301816         8.2128 
 187   0.0000       0.307269         8.3612 
 188   0.0000       0.307961         8.3800 
 189   0.0000       0.308758         8.4017 
 190   0.0000       0.311714         8.4822 
 191   0.0000       0.316183         8.6038 
 192   0.0000       0.317057         8.6276 
 193   0.0000       0.318785         8.6746 
 194   0.0000       0.320919         8.7327 
 195   0.0000       0.324062         8.8182 
 196   0.0000       0.327364         8.9080 
 197   0.0000       0.330123         8.9831 
 198   0.0000       0.331318         9.0156 
 199   0.0000       0.333497         9.0749 
 200   0.0000       0.336288         9.1509 
 201   0.0000       0.337511         9.1841 
 202   0.0000       0.341558         9.2943 
 203   0.0000       0.346413         9.4264 
 204   0.0000       0.348536         9.4842 
 205   0.0000       0.350450         9.5362 
 206   0.0000       0.351702         9.5703 
 207   0.0000       0.353515         9.6196 
 208   0.0000       0.357640         9.7319 
 209   0.0000       0.358678         9.7601 
 210   0.0000       0.361283         9.8310 
 211   0.0000       0.363609         9.8943 
 212   0.0000       0.363831         9.9003 
 213   0.0000       0.366433         9.9711 
 214   0.0000       0.369766        10.0618 
 215   0.0000       0.371214        10.1013 
 216   0.0000       0.373450        10.1621 
 217   0.0000       0.377198        10.2641 
 218   0.0000       0.378056        10.2874 
 219   0.0000       0.381225        10.3737 
 220   0.0000       0.387160        10.5351 
 221   0.0000       0.389281        10.5929 
 222   0.0000       0.392698        10.6859 
 223   0.0000       0.395197        10.7539 
 224   0.0000       0.396169        10.7803 
 225   0.0000       0.399491        10.8707 
 226   0.0000       0.401526        10.9261 
 227   0.0000       0.405705        11.0398 
 228   0.0000       0.408856        11.1255 
 229   0.0000       0.409898        11.1539 
 230   0.0000       0.413771        11.2593 
 231   0.0000       0.415687        11.3114 
 232   0.0000       0.416747        11.3403 
 233   0.0000       0.421133        11.4596 
 234   0.0000       0.424349        11.5471 
 235   0.0000       0.425410        11.5760 
 236   0.0000       0.427087        11.6216 
 237   0.0000       0.429380        11.6840 
 238   0.0000       0.431093        11.7306 
 239   0.0000       0.432129        11.7588 
 240   0.0000       0.436000        11.8642 
 241   0.0000       0.440038        11.9741 
 242   0.0000       0.442478        12.0404 
 243   0.0000       0.447728        12.1833 
 244   0.0000       0.448271        12.1981 
 245   0.0000       0.450783        12.2664 
 246   0.0000       0.452076        12.3016 
 247   0.0000       0.454368        12.3640 
 248   0.0000       0.457336        12.4447 
 249   0.0000       0.461783        12.5658 
 250   0.0000       0.465073        12.6553 
 251   0.0000       0.466163        12.6849 
 252   0.0000       0.470294        12.7973 
 253   0.0000       0.473664        12.8890 
 254   0.0000       0.477245        12.9865 
 255   0.0000       0.479176        13.0391 
 256   0.0000       0.482185        13.1209 
 257   0.0000       0.485282        13.2052 
 258   0.0000       0.488896        13.3035 
 259   0.0000       0.489735        13.3264 
 260   0.0000       0.495113        13.4727 
 261   0.0000       0.496971        13.5233 
 262   0.0000       0.500336        13.6148 
 263   0.0000       0.502005        13.6603 
 264   0.0000       0.503049        13.6886 
 265   0.0000       0.505577        13.7575 
 266   0.0000       0.508228        13.8296 
 267   0.0000       0.510811        13.8999 
 268   0.0000       0.512737        13.9523 
 269   0.0000       0.514389        13.9972 
 270   0.0000       0.517048        14.0696 
 271   0.0000       0.518749        14.1159 
 272   0.0000       0.521111        14.1802 
 273   0.0000       0.524221        14.2648 
 274   0.0000       0.526370        14.3233 
 275   0.0000       0.530321        14.4308 
 276   0.0000       0.534695        14.5498 
 277   0.0000       0.536145        14.5892 
 278   0.0000       0.542374        14.7588 
 279   0.0000       0.543501        14.7894 
 280   0.0000       0.544934        14.8284 
 281   0.0000       0.546076        14.8595 
 282   0.0000       0.550854        14.9895 
 283   0.0000       0.555625        15.1193 
 284   0.0000       0.556923        15.1546 
 285   0.0000       0.559243        15.2178 
 286   0.0000       0.561490        15.2789 
 287   0.0000       0.563403        15.3310 
 288   0.0000       0.570154        15.5147 
 289   0.0000       0.575572        15.6621 
 290   0.0000       0.580927        15.8078 
 291   0.0000       0.582871        15.8607 
 292   0.0000       0.585471        15.9315 
 293   0.0000       0.590025        16.0554 
 294   0.0000       0.590904        16.0793 
 295   0.0000       0.595192        16.1960 
 296   0.0000       0.597993        16.2722 
 297   0.0000       0.601689        16.3728 
 298   0.0000       0.602917        16.4062 
 299   0.0000       0.607386        16.5278 
 300   0.0000       0.612711        16.6727 
 301   0.0000       0.617188        16.7945 
 302   0.0000       0.618429        16.8283 
 303   0.0000       0.622118        16.9287 
 304   0.0000       0.624241        16.9865 
 305   0.0000       0.627656        17.0794 
 306   0.0000       0.629107        17.1189 
 307   0.0000       0.632716        17.2171 
 308   0.0000       0.634169        17.2566 
 309   0.0000       0.637841        17.3565 
 310   0.0000       0.637991        17.3606 
 311   0.0000       0.641633        17.4597 
 312   0.0000       0.643480        17.5100 
 313   0.0000       0.647896        17.6302 
 314   0.0000       0.648881        17.6570 
 315   0.0000       0.650552        17.7024 
 316   0.0000       0.652342        17.7511 
 317   0.0000       0.653078        17.7712 
 318   0.0000       0.656987        17.8775 
 319   0.0000       0.659161        17.9367 
 320   0.0000       0.659751        17.9527 
 321   0.0000       0.661640        18.0041 
 322   0.0000       0.666783        18.1441 
 323   0.0000       0.668193        18.1825 
 324   0.0000       0.671618        18.2757 
 325   0.0000       0.671985        18.2856 
 326   0.0000       0.674637        18.3578 
 327   0.0000       0.676345        18.4043 
 328   0.0000       0.678823        18.4717 
 329   0.0000       0.679510        18.4904 
 330   0.0000       0.682809        18.5802 
 331   0.0000       0.685210        18.6455 
 332   0.0000       0.689831        18.7712 
 333   0.0000       0.692612        18.8469 
 334   0.0000       0.694546        18.8996 
 335   0.0000       0.695754        18.9324 
 336   0.0000       0.699170        19.0254 
 337   0.0000       0.703550        19.1446 
 338   0.0000       0.705575        19.1997 
 339   0.0000       0.705779        19.2052 
 340   0.0000       0.711826        19.3698 
 341   0.0000       0.714017        19.4294 
 342   0.0000       0.715624        19.4731 
 343   0.0000       0.717038        19.5116 
 344   0.0000       0.720155        19.5964 
 345   0.0000       0.720967        19.6185 
 346   0.0000       0.725326        19.7371 
 347   0.0000       0.726613        19.7722 
 348   0.0000       0.730074        19.8663 
 349   0.0000       0.732657        19.9366 
 350   0.0000       0.735601        20.0167 
 351   0.0000       0.737649        20.0724 
 352   0.0000       0.739979        20.1359 
 353   0.0000       0.741479        20.1767 
 354   0.0000       0.743406        20.2291 
 355   0.0000       0.745390        20.2831 
 356   0.0000       0.745746        20.2928 
 357   0.0000       0.749271        20.3887 
 358   0.0000       0.750354        20.4182 
 359   0.0000       0.753517        20.5042 
 360   0.0000       0.756214        20.5776 
 361   0.0000       0.759174        20.6582 
 362   0.0000       0.761518        20.7220 
 363   0.0000       0.765884        20.8408 
 364   0.0000       0.768696        20.9173 
 365   0.0000       0.770962        20.9790 
 366   0.0000       0.775154        21.0930 
 367   0.0000       0.775963        21.1150 
 368   0.0000       0.778162        21.1749 
 369   0.0000       0.783235        21.3129 
 370   0.0000       0.788696        21.4615 
 371   0.0000       0.790846        21.5200 
 372   0.0000       0.793125        21.5820 
 373   0.0000       0.794565        21.6212 
 374   0.0000       0.797856        21.7108 
 375   0.0000       0.800770        21.7900 
 376   0.0000       0.805324        21.9140 
 377   0.0000       0.809556        22.0291 
 378   0.0000       0.810541        22.0560 
 379   0.0000       0.813159        22.1272 
 380   0.0000       0.815767        22.1981 
 381   0.0000       0.817771        22.2527 
 382   0.0000       0.819845        22.3091 
 383   0.0000       0.821687        22.3592 
 384   0.0000       0.824651        22.4399 
 385   0.0000       0.831440        22.6246 
 386   0.0000       0.834579        22.7100 
 387   0.0000       0.836965        22.7750 
 388   0.0000       0.838452        22.8154 
 389   0.0000       0.841430        22.8965 
 390   0.0000       0.841695        22.9037 
 391   0.0000       0.847552        23.0631 
 392   0.0000       0.849685        23.1211 
 393   0.0000       0.855168        23.2703 
 394   0.0000       0.861061        23.4307 
 395   0.0000       0.864800        23.5324 
 396   0.0000       0.869085        23.6490 
 397   0.0000       0.871025        23.7018 
 398   0.0000       0.875470        23.8227 
 399   0.0000       0.878022        23.8922 
 400   0.0000       0.880732        23.9659 
 401   0.0000       0.882562        24.0157 
 402   0.0000       0.884050        24.0562 
 403   0.0000       0.887844        24.1595 
 404   0.0000       0.890883        24.2422 
 405   0.0000       0.896563        24.3967 
 406   0.0000       0.898968        24.4622 
 407   0.0000       0.902896        24.5690 
 408   0.0000       0.905102        24.6291 
 409   0.0000       0.911365        24.7995 
 410   0.0000       0.913238        24.8505 
 411   0.0000       0.919389        25.0178 
 412   0.0000       0.921495        25.0751 
 413   0.0000       0.925412        25.1818 
 414   0.0000       0.929394        25.2901 
 415   0.0000       0.930145        25.3105 
 416   0.0000       0.935743        25.4629 
 417   0.0000       0.939094        25.5541 
 418   0.0000       0.944890        25.7118 
 419   0.0000       0.948716        25.8159 
 420   0.0000       0.950798        25.8725 
 421   0.0000       0.955477        25.9999 
 422   0.0000       0.958080        26.0707 
 423   0.0000       0.961210        26.1559 
 424   0.0000       0.965024        26.2596 
 425   0.0000       0.971037        26.4233 
 426   0.0000       0.974553        26.5189 
 427   0.0000       0.977288        26.5934 
 428   0.0000       0.981664        26.7124 
 429   0.0000       0.987670        26.8759 
 430   0.0000       0.993804        27.0428 
 431   0.0000       0.994535        27.0627 
 432   0.0000       1.000774        27.2325 
 433   0.0000       1.006188        27.3798 
 434   0.0000       1.010297        27.4916 
 435   0.0000       1.015026        27.6203 
 436   0.0000       1.017756        27.6945 
 437   0.0000       1.024607        27.8810 
 438   0.0000       1.029682        28.0191 
 439   0.0000       1.037325        28.2270 
 440   0.0000       1.046950        28.4889 
 441   0.0000       1.054793        28.7024 
 442   0.0000       1.056594        28.7514 
 443   0.0000       1.060720        28.8637 
 444   0.0000       1.065270        28.9875 
 445   0.0000       1.079317        29.3697 
 446   0.0000       1.081063        29.4172 
 447   0.0000       1.083285        29.4777 
 448   0.0000       1.088157        29.6103 
 449   0.0000       1.099233        29.9117 
 450   0.0000       1.101815        29.9819 
 451   0.0000       1.104567        30.0568 
 452   0.0000       1.117923        30.4202 
 453   0.0000       1.120580        30.4925 
 454   0.0000       1.125141        30.6166 
 455   0.0000       1.126364        30.6499 
 456   0.0000       1.132029        30.8041 
 457   0.0000       1.137741        30.9595 
 458   0.0000       1.142670        31.0936 
 459   0.0000       1.148408        31.2498 
 460   0.0000       1.152831        31.3701 
 461   0.0000       1.153714        31.3942 
 462   0.0000       1.167254        31.7626 
 463   0.0000       1.174984        31.9729 
 464   0.0000       1.178085        32.0573 
 465   0.0000       1.181097        32.1393 
 466   0.0000       1.185965        32.2717 
 467   0.0000       1.189467        32.3670 
 468   0.0000       1.202275        32.7156 
 469   0.0000       1.207565        32.8595 
 470   0.0000       1.211681        32.9715 
 471   0.0000       1.214510        33.0485 
 472   0.0000       1.222345        33.2617 
 473   0.0000       1.225572        33.3495 
 474   0.0000       1.228590        33.4316 
 475   0.0000       1.234852        33.6020 
 476   0.0000       1.243836        33.8465 
 477   0.0000       1.250944        34.0399 
 478   0.0000       1.258808        34.2539 
 479   0.0000       1.261575        34.3292 
 480   0.0000       1.265061        34.4241 
 481   0.0000       1.268483        34.5172 
 482   0.0000       1.272819        34.6352 
 483   0.0000       1.276184        34.7267 
 484   0.0000       1.282101        34.8877 
 485   0.0000       1.287444        35.0331 
 486   0.0000       1.288982        35.0750 
 487   0.0000       1.295228        35.2449 
 488   0.0000       1.301103        35.4048 
 489   0.0000       1.304113        35.4867 
 490   0.0000       1.308021        35.5930 
 491   0.0000       1.309368        35.6297 
 492   0.0000       1.318269        35.8719 
 493   0.0000       1.326346        36.0917 
 494   0.0000       1.330681        36.2097 
 495   0.0000       1.333807        36.2947 
 496   0.0000       1.338496        36.4223 
 497   0.0000       1.342654        36.5355 
 498   0.0000       1.349254        36.7151 
 499   0.0000       1.350928        36.7606 
 500   0.0000       1.353658        36.8349 
 501   0.0000       1.359746        37.0006 
 502   0.0000       1.362877        37.0858 
 503   0.0000       1.369843        37.2753 
 504   0.0000       1.371421        37.3183 
 505   0.0000       1.376833        37.4655 
 506   0.0000       1.381514        37.5929 
 507   0.0000       1.384562        37.6758 
 508   0.0000       1.386852        37.7382 
 509   0.0000       1.390477        37.8368 
 510   0.0000       1.398667        38.0597 
 511   0.0000       1.400956        38.1220 
 512   0.0000       1.405152        38.2361 
 513   0.0000       1.412403        38.4335 
 514   0.0000       1.413711        38.4690 
 515   0.0000       1.415933        38.5295 
 516   0.0000       1.418066        38.5875 
 517   0.0000       1.426902        38.8280 
 518   0.0000       1.430544        38.9271 
 519   0.0000       1.435571        39.0639 
 520   0.0000       1.437424        39.1143 
 521   0.0000       1.440473        39.1973 
 522   0.0000       1.446828        39.3702 
 523   0.0000       1.449535        39.4438 
 524   0.0000       1.452190        39.5161 
 525   0.0000       1.460087        39.7310 
 526   0.0000       1.461865        39.7794 
 527   0.0000       1.465067        39.8665 
 528   0.0000       1.468242        39.9529 
 529   0.0000       1.471648        40.0456 
 530   0.0000       1.473369        40.0924 
 531   0.0000       1.480320        40.2816 
 532   0.0000       1.485325        40.4177 
 533   0.0000       1.487576        40.4790 
 534   0.0000       1.490190        40.5501 
 535   0.0000       1.496797        40.7299 
 536   0.0000       1.504299        40.9341 
 537   0.0000       1.505990        40.9801 
 538   0.0000       1.509522        41.0762 
 539   0.0000       1.514264        41.2052 
 540   0.0000       1.517191        41.2849 
 541   0.0000       1.525641        41.5148 
 542   0.0000       1.532292        41.6958 
 543   0.0000       1.532983        41.7146 
 544   0.0000       1.538533        41.8656 
 545   0.0000       1.543228        41.9934 
 546   0.0000       1.546320        42.0775 
 547   0.0000       1.552504        42.2458 
 548   0.0000       1.555649        42.3314 
 549   0.0000       1.558987        42.4222 
 550   0.0000       1.571581        42.7649 
 551   0.0000       1.572991        42.8032 
 552   0.0000       1.576542        42.8999 
 553   0.0000       1.578939        42.9651 
 554   0.0000       1.584643        43.1203 
 555   0.0000       1.588348        43.2211 
 556   0.0000       1.591374        43.3035 
 557   0.0000       1.599093        43.5135 
 558   0.0000       1.602667        43.6108 
 559   0.0000       1.605736        43.6943 
 560   0.0000       1.611137        43.8413 
 561   0.0000       1.614998        43.9463 
 562   0.0000       1.623917        44.1890 
 563   0.0000       1.631406        44.3928 
 564   0.0000       1.632006        44.4091 
 565   0.0000       1.638141        44.5761 
 566   0.0000       1.643885        44.7324 
 567   0.0000       1.649673        44.8899 
 568   0.0000       1.659673        45.1620 
 569   0.0000       1.664318        45.2884 
 570   0.0000       1.666379        45.3445 
 571   0.0000       1.670626        45.4600 
 572   0.0000       1.678173        45.6654 
 573   0.0000       1.684079        45.8261 
 574   0.0000       1.684891        45.8482 
 575   0.0000       1.691632        46.0316 
 576   0.0000       1.701421        46.2980 
 577   0.0000       1.703257        46.3480 
 578   0.0000       1.712409        46.5970 
 579   0.0000       1.715468        46.6803 
 580   0.0000       1.719712        46.7957 
 581   0.0000       1.722937        46.8835 
 582   0.0000       1.724445        46.9245 
 583   0.0000       1.733730        47.1772 
 584   0.0000       1.739743        47.3408 
 585   0.0000       1.744494        47.4701 
 586   0.0000       1.749938        47.6182 
 587   0.0000       1.759630        47.8820 
 588   0.0000       1.764839        48.0237 
 589   0.0000       1.765937        48.0536 
 590   0.0000       1.769778        48.1581 
 591   0.0000       1.772785        48.2399 
 592   0.0000       1.778688        48.4006 
 593   0.0000       1.790526        48.7227 
 594   0.0000       1.792039        48.7639 
 595   0.0000       1.797190        48.9040 
 596   0.0000       1.807586        49.1869 
 597   0.0000       1.812203        49.3126 
 598   0.0000       1.815207        49.3943 
 599   0.0000       1.820389        49.5353 
 600   0.0000       1.821408        49.5630 
 601   0.0000       1.824640        49.6510 
 602   0.0000       1.835278        49.9404 
 603   0.0000       1.838866        50.0381 
 604   0.0000       1.842449        50.1356 
 605   0.0000       1.849449        50.3261 
 606   0.0000       1.856174        50.5091 
 607   0.0000       1.860680        50.6317 
 608   0.0000       1.869298        50.8662 
 609   0.0000       1.872245        50.9464 
 610   0.0000       1.886064        51.3224 
 611   0.0000       1.887524        51.3621 
 612   0.0000       1.900749        51.7220 
 613   0.0000       1.904387        51.8210 
 614   0.0000       1.906504        51.8786 
 615   0.0000       1.915251        52.1166 
 616   0.0000       1.929136        52.4944 
 617   0.0000       1.935003        52.6541 
 618   0.0000       1.937641        52.7259 
 619   0.0000       1.947275        52.9880 
 620   0.0000       1.953513        53.1578 
 621   0.0000       1.960136        53.3380 
 622   0.0000       1.967659        53.5427 
 623   0.0000       1.972364        53.6707 
 624   0.0000       1.975315        53.7511 
 625   0.0000       1.983405        53.9712 
 626   0.0000       1.992933        54.2305 
 627   0.0000       2.003872        54.5281 
 628   0.0000       2.007057        54.6148 
 629   0.0000       2.016650        54.8758 
 630   0.0000       2.020674        54.9853 
 631   0.0000       2.032498        55.3071 
 632   0.0000       2.043323        55.6016 
 633   0.0000       2.048457        55.7414 
 634   0.0000       2.052904        55.8624 
 635   0.0000       2.063753        56.1576 
 636   0.0000       2.075401        56.4745 
 637   0.0000       2.077831        56.5407 
 638   0.0000       2.090864        56.8953 
 639   0.0000       2.093737        56.9735 
 640   0.0000       2.115377        57.5623 
 641   0.0000       2.125221        57.8302 
 642   0.0000       2.125892        57.8485 
 643   0.0000       2.139570        58.2207 
 644   0.0000       2.142489        58.3001 
 645   0.0000       2.156767        58.6886 
 646   0.0000       2.163289        58.8661 
 647   0.0000       2.181173        59.3527 
 648   0.0000       2.190808        59.6149 
 649   0.0000       2.193980        59.7012 
 650   0.0000       2.196841        59.7791 
 651   0.0000       2.212340        60.2008 
 652   0.0000       2.216707        60.3197 
 653   0.0000       2.225452        60.5576 
 654   0.0000       2.231705        60.7278 
 655   0.0000       2.233293        60.7710 
 656   0.0000       2.240062        60.9552 
 657   0.0000       2.245442        61.1016 
 658   0.0000       2.255539        61.3763 
 659   0.0000       2.264247        61.6133 
 660   0.0000       2.276311        61.9416 
 661   0.0000       2.284477        62.1638 
 662   0.0000       2.287276        62.2399 
 663   0.0000       2.297466        62.5172 
 664   0.0000       2.304300        62.7032 
 665   0.0000       2.314153        62.9713 
 666   0.0000       2.327275        63.3284 
 667   0.0000       2.333002        63.4842 
 668   0.0000       2.341431        63.7136 
 669   0.0000       2.346722        63.8576 
 670   0.0000       2.350442        63.9588 
 671   0.0000       2.376896        64.6786 
 672   0.0000       2.383603        64.8611 
 673   0.0000       2.388380        64.9911 
 674   0.0000       2.392474        65.1025 
 675   0.0000       2.404201        65.4216 
 676   0.0000       2.417557        65.7851 
 677   0.0000       2.425980        66.0143 
 678   0.0000       2.433158        66.2096 
 679   0.0000       2.439629        66.3857 
 680   0.0000       2.453230        66.7558 
 681   0.0000       2.462485        67.0076 
 682   0.0000       2.471321        67.2481 
 683   0.0000       2.477627        67.4197 
 684   0.0000       2.490527        67.7707 
 685   0.0000       2.496172        67.9243 
 686   0.0000       2.507334        68.2280 
 687   0.0000       2.512555        68.3701 
 688   0.0000       2.528012        68.7907 
 689   0.0000       2.532178        68.9041 
 690   0.0000       2.537986        69.0621 
 691   0.0000       2.548869        69.3583 
 692   0.0000       2.560529        69.6755 
 693   0.0000       2.563874        69.7666 
 694   0.0000       2.574030        70.0429 
 695   0.0000       2.584069        70.3161 
 696   0.0000       2.592081        70.5341 
 697   0.0000       2.603600        70.8476 
 698   0.0000       2.611199        71.0543 
 699   0.0000       2.616135        71.1886 
 700   0.0000       2.621218        71.3270 
 701   0.0000       2.636672        71.7475 
 702   0.0000       2.645818        71.9964 
 703   0.0000       2.650787        72.1316 
 704   0.0000       2.667538        72.5874 
 705   0.0000       2.672098        72.7115 
 706   0.0000       2.675266        72.7977 
 707   0.0000       2.680844        72.9495 
 708   0.0000       2.692351        73.2626 
 709   0.0000       2.700922        73.4958 
 710   0.0000       2.715703        73.8980 
 711   0.0000       2.723361        74.1064 
 712   0.0000       2.734654        74.4137 
 713   0.0000       2.739650        74.5497 
 714   0.0000       2.747408        74.7608 
 715   0.0000       2.762895        75.1822 
 716   0.0000       2.768618        75.3379 
 717   0.0000       2.776577        75.5545 
 718   0.0000       2.788810        75.8874 
 719   0.0000       2.799860        76.1881 
 720   0.0000       2.808464        76.4222 
 721   0.0000       2.820039        76.7372 
 722   0.0000       2.820319        76.7448 
 723   0.0000       2.829679        76.9995 
 724   0.0000       2.833460        77.1024 
 725   0.0000       2.839087        77.2555 
 726   0.0000       2.844007        77.3894 
 727   0.0000       2.854163        77.6657 
 728   0.0000       2.857827        77.7654 
 729   0.0000       2.880019        78.3693 
 730   0.0000       2.890012        78.6412 
 731   0.0000       2.892955        78.7213 
 732   0.0000       2.898053        78.8600 
 733   0.0000       2.909831        79.1805 
 734   0.0000       2.921405        79.4955 
 735   0.0000       2.926404        79.6315 
 736   0.0000       2.932354        79.7934 
 737   0.0000       2.939293        79.9822 
 738   0.0000       2.941312        80.0372 
 739   0.0000       2.948067        80.2210 
 740   0.0000       2.949126        80.2498 
 741   0.0000       2.958089        80.4937 
 742   0.0000       2.961743        80.5931 
 743   0.0000       2.964866        80.6781 
 744   0.0000       2.968610        80.7800 
 745   0.0000       2.974104        80.9295 
 746   0.0000       2.977551        81.0233 
 747   0.0000       2.983639        81.1889 
 748   0.0000       2.988415        81.3189 
 749   0.0000       2.991163        81.3937 
 750   0.0000       2.999525        81.6212 
 751   0.0000       3.009191        81.8842 
 752   0.0000       3.012213        81.9665 
 753   0.0000       3.013844        82.0109 
 754   0.0000       3.024123        82.2906 
 755   0.0000       3.026965        82.3679 
 756   0.0000       3.033740        82.5522 
 757   0.0000       3.041535        82.7644 
 758   0.0000       3.047856        82.9364 
 759   0.0000       3.050320        83.0034 
 760   0.0000       3.058943        83.2381 
 761   0.0000       3.063063        83.3502 
 762   0.0000       3.067847        83.4804 
 763   0.0000       3.070735        83.5590 
 764   0.0000       3.077343        83.7387 
 765   0.0000       3.085000        83.9471 
 766   0.0000       3.096056        84.2480 
 767   0.0000       3.106462        84.5311 
 768   0.0000       3.108899        84.5974 
 769   0.0000       3.119680        84.8908 
 770   0.0000       3.122793        84.9755 
 771   0.0000       3.123376        84.9914 
 772   0.0000       3.129195        85.1497 
 773   0.0000       3.135787        85.3291 
 774   0.0000       3.141052        85.4724 
 775   0.0000       3.154081        85.8269 
 776   0.0000       3.166649        86.1689 
 777   0.0000       3.167620        86.1953 
 778   0.0000       3.168886        86.2298 
 779   0.0000       3.176147        86.4273 
 780   0.0000       3.183308        86.6222 
 781   0.0000       3.195929        86.9657 
 782   0.0000       3.200492        87.0898 
 783   0.0000       3.204778        87.2065 
 784   0.0000       3.213646        87.4478 
 785   0.0000       3.215316        87.4932 
 786   0.0000       3.221694        87.6667 
 787   0.0000       3.227077        87.8132 
 788   0.0000       3.234698        88.0206 
 789   0.0000       3.239510        88.1515 
 790   0.0000       3.245068        88.3028 
 791   0.0000       3.246280        88.3358 
 792   0.0000       3.250722        88.4567 
 793   0.0000       3.255760        88.5937 
 794   0.0000       3.262033        88.7644 
 795   0.0000       3.271116        89.0116 
 796   0.0000       3.272311        89.0441 
 797   0.0000       3.282704        89.3269 
 798   0.0000       3.284691        89.3810 
 799   0.0000       3.290502        89.5391 
 800   0.0000       3.294236        89.6407 
 801   0.0000       3.296364        89.6986 
 802   0.0000       3.300770        89.8185 
 803   0.0000       3.307112        89.9911 
 804   0.0000       3.311690        90.1157 
 805   0.0000       3.325450        90.4901 
 806   0.0000       3.326341        90.5143 
 807   0.0000       3.331748        90.6615 
 808   0.0000       3.336021        90.7777 
 809   0.0000       3.342405        90.9515 
 810   0.0000       3.347479        91.0895 
 811   0.0000       3.352200        91.2180 
 812   0.0000       3.355300        91.3024 
 813   0.0000       3.363598        91.5281 
 814   0.0000       3.365693        91.5851 
 815   0.0000       3.378009        91.9203 
 816   0.0000       3.383940        92.0817 
 817   0.0000       3.391206        92.2794 
 818   0.0000       3.393610        92.3448 
 819   0.0000       3.403623        92.6173 
 820   0.0000       3.406132        92.6856 
 821   0.0000       3.410767        92.8117 
 822   0.0000       3.415878        92.9508 
 823   0.0000       3.419144        93.0396 
 824   0.0000       3.422032        93.1182 
 825   0.0000       3.426203        93.2317 
 826   0.0000       3.433834        93.4394 
 827   0.0000       3.439184        93.5850 
 828   0.0000       3.443516        93.7028 
 829   0.0000       3.448397        93.8357 
 830   0.0000       3.451991        93.9335 
 831   0.0000       3.459407        94.1352 
 832   0.0000       3.464910        94.2850 
 833   0.0000       3.468946        94.3948 
 834   0.0000       3.479826        94.6909 
 835   0.0000       3.484718        94.8240 
 836   0.0000       3.490642        94.9852 
 837   0.0000       3.494120        95.0798 
 838   0.0000       3.498741        95.2056 
 839   0.0000       3.508345        95.4669 
 840   0.0000       3.512308        95.5748 
 841   0.0000       3.516812        95.6973 
 842   0.0000       3.519457        95.7693 
 843   0.0000       3.526469        95.9601 
 844   0.0000       3.533490        96.1511 
 845   0.0000       3.536566        96.2349 
 846   0.0000       3.539630        96.3182 
 847   0.0000       3.544937        96.4626 
 848   0.0000       3.552801        96.6766 
 849   0.0000       3.556430        96.7754 
 850   0.0000       3.557975        96.8174 
 851   0.0000       3.565537        97.0232 
 852   0.0000       3.567248        97.0697 
 853   0.0000       3.572592        97.2152 
 854   0.0000       3.580121        97.4200 
 855   0.0000       3.589557        97.6768 
 856   0.0000       3.590571        97.7044 
 857   0.0000       3.596433        97.8639 
 858   0.0000       3.603018        98.0431 
 859   0.0000       3.610520        98.2472 
 860   0.0000       3.615574        98.3848 
 861   0.0000       3.618258        98.4578 
 862   0.0000       3.631048        98.8058 
 863   0.0000       3.639682        99.0408 
 864   0.0000       3.641611        99.0933 
 865   0.0000       3.646645        99.2303 
 866   0.0000       3.650226        99.3277 
 867   0.0000       3.651650        99.3664 
 868   0.0000       3.656239        99.4913 
 869   0.0000       3.663878        99.6992 
 870   0.0000       3.672191        99.9254 
 871   0.0000       3.678002       100.0835 
 872   0.0000       3.682142       100.1962 
 873   0.0000       3.690139       100.4138 
 874   0.0000       3.696119       100.5765 
 875   0.0000       3.698104       100.6305 
 876   0.0000       3.706475       100.8583 
 877   0.0000       3.710210       100.9600 
 878   0.0000       3.712453       101.0210 
 879   0.0000       3.717884       101.1688 
 880   0.0000       3.721238       101.2600 
 881   0.0000       3.727135       101.4205 
 882   0.0000       3.732294       101.5609 
 883   0.0000       3.734919       101.6323 
 884   0.0000       3.746136       101.9375 
 885   0.0000       3.752273       102.1045 
 886   0.0000       3.758226       102.2665 
 887   0.0000       3.764520       102.4378 
 888   0.0000       3.766092       102.4806 
 889   0.0000       3.774718       102.7153 
 890   0.0000       3.777861       102.8008 
 891   0.0000       3.785783       103.0164 
 892   0.0000       3.790151       103.1353 
 893   0.0000       3.794933       103.2654 
 894   0.0000       3.801198       103.4359 
 895   0.0000       3.809471       103.6610 
 896   0.0000       3.815402       103.8224 
 897   0.0000       3.823369       104.0392 
 898   0.0000       3.830567       104.2350 
 899   0.0000       3.839262       104.4716 
 900   0.0000       3.851775       104.8121 
 901   0.0000       3.854413       104.8839 
 902   0.0000       3.859766       105.0296 
 903   0.0000       3.861546       105.0780 
 904   0.0000       3.866495       105.2127 
 905   0.0000       3.876415       105.4826 
 906   0.0000       3.878341       105.5350 
 907   0.0000       3.887101       105.7734 
 908   0.0000       3.893707       105.9532 
 909   0.0000       3.897027       106.0435 
 910   0.0000       3.901314       106.1601 
 911   0.0000       3.909052       106.3707 
 912   0.0000       3.911000       106.4237 
 913   0.0000       3.918624       106.6312 
 914   0.0000       3.924635       106.7947 
 915   0.0000       3.933008       107.0226 
 916   0.0000       3.936959       107.1301 
 917   0.0000       3.941009       107.2403 
 918   0.0000       3.943793       107.3161 
[...]
      dz2     :     0.133394  d :     0.892327
      dxz     :     0.134793
      dyz     :     0.190127
      dx2y2   :     0.197027
      dxy     :     0.236987
      f0      :     0.004857  f :     0.044624
      f+1     :     0.006151
      f-1     :     0.004634
      f+2     :     0.006435
      f-2     :     0.005620
      f+3     :     0.008973
      f-3     :     0.007954
 28 C s       :     2.629899  s :     2.629899
      pz      :     0.820634  p :     2.547630
      px      :     0.805659
      py      :     0.921337
      dz2     :     0.142752  d :     0.871742
      dxz     :     0.123763
      dyz     :     0.187338
      dx2y2   :     0.208014
      dxy     :     0.209875
      f0      :     0.004748  f :     0.045987
      f+1     :     0.005058
      f-1     :     0.006284
      f+2     :     0.007581
      f-2     :     0.005028
      f+3     :     0.008069
      f-3     :     0.009218
 29 C s       :     2.610993  s :     2.610993
      pz      :     0.856326  p :     2.603864
      px      :     0.876870
      py      :     0.870668
      dz2     :     0.166727  d :     0.747026
      dxz     :     0.177371
      dyz     :     0.141921
      dx2y2   :     0.111059
      dxy     :     0.149948
      f0      :     0.006665  f :     0.042796
      f+1     :     0.005605
      f-1     :     0.008639
      f+2     :     0.006199
      f-2     :     0.005038
      f+3     :     0.006382
      f-3     :     0.004269
 30 C s       :     2.604951  s :     2.604951
      pz      :     0.853808  p :     2.602144
      px      :     0.872589
      py      :     0.875747
      dz2     :     0.166739  d :     0.743876
      dxz     :     0.148117
      dyz     :     0.175669
      dx2y2   :     0.129622
      dxy     :     0.123729
      f0      :     0.006809  f :     0.043102
      f+1     :     0.008739
      f-1     :     0.005460
      f+2     :     0.006753
      f-2     :     0.005266
      f+3     :     0.003239
      f-3     :     0.006836
 31 C s       :     2.625745  s :     2.625745
      pz      :     0.823542  p :     2.549832
      px      :     0.805238
      py      :     0.921052
      dz2     :     0.132742  d :     0.878737
      dxz     :     0.127667
      dyz     :     0.195608
      dx2y2   :     0.200594
      dxy     :     0.222126
      f0      :     0.004819  f :     0.046890
      f+1     :     0.005231
      f-1     :     0.006186
      f+2     :     0.007880
      f-2     :     0.004840
      f+3     :     0.011198
      f-3     :     0.006736
 32 C s       :     2.639586  s :     2.639586
      pz      :     0.839710  p :     2.584632
      px      :     0.820295
      py      :     0.924627
      dz2     :     0.143431  d :     0.884108
      dxz     :     0.134892
      dyz     :     0.189788
      dx2y2   :     0.208522
      dxy     :     0.207474
      f0      :     0.004633  f :     0.045818
      f+1     :     0.005924
      f-1     :     0.005386
      f+2     :     0.007770
      f-2     :     0.004790
      f+3     :     0.010762
      f-3     :     0.006553
 33 C s       :     2.614050  s :     2.614050
      pz      :     0.845678  p :     2.618835
      px      :     0.879430
      py      :     0.893728
      dz2     :     0.170731  d :     0.782643
      dxz     :     0.209634
      dyz     :     0.119799
      dx2y2   :     0.171044
      dxy     :     0.111436
      f0      :     0.006615  f :     0.042577
      f+1     :     0.006188
      f-1     :     0.007725
      f+2     :     0.005524
      f-2     :     0.005699
      f+3     :     0.005611
      f-3     :     0.005214
 34 C s       :     2.606835  s :     2.606835
      pz      :     0.855026  p :     2.607454
      px      :     0.867160
      py      :     0.885269
      dz2     :     0.172071  d :     0.758884
      dxz     :     0.168159
      dyz     :     0.156408
      dx2y2   :     0.107803
      dxy     :     0.154442
      f0      :     0.006657  f :     0.042548
      f+1     :     0.008609
      f-1     :     0.005287
      f+2     :     0.006934
      f-2     :     0.005281
      f+3     :     0.004872
      f-3     :     0.004908
 35 H s       :     0.686856  s :     0.686856
      pz      :     0.083072  p :     0.263938
      px      :     0.108460
      py      :     0.072406
      dz2     :     0.005863  d :     0.028777
      dxz     :     0.007757
      dyz     :     0.002770
      dx2y2   :     0.005461
      dxy     :     0.006926
 36 H s       :     0.666253  s :     0.666253
      pz      :     0.080424  p :     0.303432
      px      :     0.113361
      py      :     0.109647
      dz2     :     0.002870  d :     0.030013
      dxz     :     0.007147
      dyz     :     0.002229
      dx2y2   :     0.009529
      dxy     :     0.008238
 37 H s       :     0.679948  s :     0.679948
      pz      :     0.077162  p :     0.300229
      px      :     0.111889
      py      :     0.111178
      dz2     :     0.002813  d :     0.029701
      dxz     :     0.002930
      dyz     :     0.006385
      dx2y2   :     0.009369
      dxy     :     0.008203
 38 H s       :     0.672173  s :     0.672173
      pz      :     0.079801  p :     0.296740
      px      :     0.100289
      py      :     0.116650
      dz2     :     0.002892  d :     0.029843
      dxz     :     0.005165
      dyz     :     0.004200
      dx2y2   :     0.009536
      dxy     :     0.008050
 39 H s       :     0.690524  s :     0.690524
      pz      :     0.112284  p :     0.317946
      px      :     0.095090
      py      :     0.110572
      dz2     :     0.007782  d :     0.030900
      dxz     :     0.005817
      dyz     :     0.007839
      dx2y2   :     0.004769
      dxy     :     0.004694
 40 H s       :     0.675993  s :     0.675993
      pz      :     0.113997  p :     0.317318
      px      :     0.118615
      py      :     0.084706
      dz2     :     0.009251  d :     0.030193
      dxz     :     0.008114
      dyz     :     0.006149
      dx2y2   :     0.002902
      dxy     :     0.003778
 41 H s       :     0.687383  s :     0.687383
      pz      :     0.083569  p :     0.271206
      px      :     0.078780
      py      :     0.108856
      dz2     :     0.005406  d :     0.029798
      dxz     :     0.002830
      dyz     :     0.007636
      dx2y2   :     0.006415
      dxy     :     0.007510
 42 H s       :     0.680924  s :     0.680924
      pz      :     0.079797  p :     0.318121
      px      :     0.110833
      py      :     0.127491
      dz2     :     0.002936  d :     0.030233
      dxz     :     0.000775
      dyz     :     0.008526
      dx2y2   :     0.009002
      dxy     :     0.008995
 43 H s       :     0.694900  s :     0.694900
      pz      :     0.114625  p :     0.286289
      px      :     0.089611
      py      :     0.082054
      dz2     :     0.009090  d :     0.030044
      dxz     :     0.007261
      dyz     :     0.006826
      dx2y2   :     0.003346
      dxy     :     0.003522
 44 H s       :     0.688295  s :     0.688295
      pz      :     0.082848  p :     0.267750
      px      :     0.108851
      py      :     0.076051
      dz2     :     0.005735  d :     0.028900
      dxz     :     0.007997
      dyz     :     0.002435
      dx2y2   :     0.005954
      dxy     :     0.006779
 45 H s       :     0.690768  s :     0.690768
      pz      :     0.083518  p :     0.267547
      px      :     0.074047
      py      :     0.109981
      dz2     :     0.005644  d :     0.029525
      dxz     :     0.002348
      dyz     :     0.008165
      dx2y2   :     0.005907
      dxy     :     0.007461
 46 H s       :     0.673404  s :     0.673404
      pz      :     0.114870  p :     0.336671
      px      :     0.122842
      py      :     0.098958
      dz2     :     0.008307  d :     0.030643
      dxz     :     0.006832
      dyz     :     0.006527
      dx2y2   :     0.004210
      dxy     :     0.004768


                      *****************************
                      * MAYER POPULATION ANALYSIS *
                      *****************************

  NA   - Mulliken gross atomic population
  ZA   - Total nuclear charge
  QA   - Mulliken gross atomic charge
  VA   - Mayer's total valence
  BVA  - Mayer's bonded valence
  FA   - Mayer's free valence

  ATOM       NA         ZA         QA         VA         BVA        FA
  0 Ru    18.4392    16.0000    -2.4392     7.1557     7.1557    -0.0000
  1 C      5.9478     6.0000     0.0522     1.9155     1.9155    -0.0000
  2 C      4.8782     6.0000     1.1218    -0.3773    -0.3773     0.0000
  3 C      5.5133     6.0000     0.4867     2.4634     2.4634    -0.0000
  4 C      5.5530     6.0000     0.4470     0.9858     0.9858     0.0000
  5 C      5.2580     6.0000     0.7420     2.3520     2.3520    -0.0000
  6 C      6.5087     6.0000    -0.5087     4.0490     4.0490     0.0000
  7 H      0.8822     1.0000     0.1178     0.9431     0.9431     0.0000
  8 H      0.8503     1.0000     0.1497     0.8553     0.8553     0.0000
  9 H      0.9945     1.0000     0.0055     0.9735     0.9735     0.0000
 10 C      6.7887     6.0000    -0.7887     4.6884     4.6884     0.0000
 11 H      0.9301     1.0000     0.0699     0.8831     0.8831     0.0000
 12 H      0.9177     1.0000     0.0823     1.0060     1.0060    -0.0000
 13 H      0.8879     1.0000     0.1121     0.9081     0.9081     0.0000
 14 C      6.5853     6.0000    -0.5853     4.6155     4.6155    -0.0000
 15 H      0.9178     1.0000     0.0822     0.9215     0.9215     0.0000
 16 H      0.9162     1.0000     0.0838     1.0230     1.0230     0.0000
 17 H      0.9528     1.0000     0.0472     0.9021     0.9021     0.0000
 18 C      6.5242     6.0000    -0.5242     4.2472     4.2472    -0.0000
 19 H      0.9559     1.0000     0.0441     0.9665     0.9665    -0.0000
 20 H      0.8659     1.0000     0.1341     0.8434     0.8434     0.0000
 21 H      0.9837     1.0000     0.0163     1.0153     1.0153    -0.0000
 22 C      6.4303     6.0000    -0.4303     4.2157     4.2157     0.0000
 23 H      0.9674     1.0000     0.0326     0.8892     0.8892    -0.0000
 24 H      0.9560     1.0000     0.0440     0.9291     0.9291     0.0000
 25 H      0.9140     1.0000     0.0860     0.9156     0.9156     0.0000
 26 Cl    17.5581    17.0000    -0.5581     0.7252     0.7252    -0.0000
 27 C      6.7888     6.0000    -0.7888     3.3254     3.3254    -0.0000
 28 C      4.7693     6.0000     1.2307     1.4442     1.4442     0.0000
 29 C      5.9662     6.0000     0.0338     4.6069     4.6069     0.0000
 30 C      6.2416     6.0000    -0.2416     4.6783     4.6783     0.0000
 31 C      5.9660     6.0000     0.0340     3.6303     3.6303    -0.0000
 32 C      5.2313     6.0000     0.7687     3.4296     3.4296    -0.0000
 33 C      6.0232     6.0000    -0.0232     4.2417     4.2417    -0.0000
 34 C      5.7294     6.0000     0.2706     3.9946     3.9946     0.0000
 35 H      0.9861     1.0000     0.0139     0.9305     0.9305     0.0000
 36 H      0.9620     1.0000     0.0380     0.7760     0.7760     0.0000
 37 H      0.9630     1.0000     0.0370     0.9427     0.9427    -0.0000
 38 H      0.9604     1.0000     0.0396     0.8507     0.8507     0.0000
 39 H      1.1002     1.0000    -0.1002     1.4527     1.4527    -0.0000
 40 H      0.6823     1.0000     0.3177     0.6540     0.6540    -0.0000
 41 H      1.0515     1.0000    -0.0515     0.8891     0.8891     0.0000
 42 H      0.8815     1.0000     0.1185     0.9565     0.9565    -0.0000
 43 H      1.1993     1.0000    -0.1993     1.1995     1.1995    -0.0000
 44 H      0.9119     1.0000     0.0881     0.8797     0.8797    -0.0000
 45 H      0.9935     1.0000     0.0065     0.8186     0.8186    -0.0000
 46 H      0.7155     1.0000     0.2845     0.6536     0.6536     0.0000

  Mayer bond orders larger than 0.100000
B(  0-Ru,  1-C ) :   1.0497 B(  0-Ru,  2-C ) :   0.2955 B(  0-Ru,  3-C ) :   0.3735 
B(  0-Ru,  4-C ) :   0.3725 B(  0-Ru,  5-C ) :   0.1241 B(  0-Ru, 10-C ) :   0.3381 
B(  0-Ru, 14-C ) :   0.1732 B(  0-Ru, 26-Cl) :   0.8140 B(  0-Ru, 27-C ) :   1.4134 
B(  0-Ru, 28-C ) :  -0.3448 B(  0-Ru, 29-C ) :   0.4982 B(  0-Ru, 30-C ) :   0.2111 
B(  0-Ru, 31-C ) :   0.8021 B(  0-Ru, 32-C ) :   0.2972 B(  0-Ru, 33-C ) :   0.2016 
B(  0-Ru, 34-C ) :   0.1276 B(  0-Ru, 39-H ) :   0.1757 B(  0-Ru, 40-H ) :  -0.1034 
B(  0-Ru, 43-H ) :   0.1207 B(  1-C ,  2-C ) :  -0.3422 B(  1-C ,  4-C ) :   0.2194 
B(  1-C ,  5-C ) :  -0.5209 B(  1-C ,  6-C ) :   1.1230 B(  1-C , 10-C ) :  -0.2397 
B(  1-C , 18-C ) :   0.1373 B(  1-C , 26-Cl) :   0.1607 B(  1-C , 27-C ) :   0.1445 
B(  2-C ,  4-C ) :  -0.5279 B(  2-C ,  5-C ) :   0.2092 B(  2-C ,  6-C ) :  -0.2820 
B(  2-C , 14-C ) :   0.1187 B(  2-C , 18-C ) :  -0.4030 B(  2-C , 22-C ) :   0.9462 
B(  2-C , 27-C ) :  -0.3787 B(  2-C , 31-C ) :  -0.1322 B(  3-C ,  4-C ) :   0.3492 
B(  3-C ,  5-C ) :   0.7864 B(  3-C , 10-C ) :  -0.2905 B(  3-C , 12-H ) :   0.1624 
B(  3-C , 14-C ) :   1.3126 B(  3-C , 26-Cl) :  -0.1064 B(  3-C , 27-C ) :  -0.1738 
B(  3-C , 28-C ) :  -0.1594 B(  3-C , 32-C ) :   0.1263 B(  4-C ,  5-C ) :  -0.3925 
B(  4-C , 10-C ) :   1.3229 B(  4-C , 12-H ) :  -0.1234 B(  4-C , 14-C ) :  -0.1986 
B(  4-C , 26-Cl) :  -0.4726 B(  4-C , 27-C ) :   0.2798 B(  4-C , 28-C ) :   0.1202 
B(  4-C , 32-C ) :  -0.2016 B(  5-C , 10-C ) :   0.2199 B(  5-C , 17-H ) :   0.1141 
B(  5-C , 18-C ) :   1.2367 B(  5-C , 21-H ) :  -0.1114 B(  5-C , 26-Cl) :   0.1934 
B(  5-C , 27-C ) :   0.1137 B(  5-C , 28-C ) :   0.2738 B(  5-C , 32-C ) :   0.2370 
B(  6-C ,  7-H ) :   0.9960 B(  6-C ,  8-H ) :   0.9109 B(  6-C ,  9-H ) :   0.9107 
B(  6-C , 10-C ) :   0.1042 B(  6-C , 22-C ) :   0.1290 B(  6-C , 27-C ) :   0.1147 
B( 10-C , 11-H ) :   0.9641 B( 10-C , 12-H ) :   0.9350 B( 10-C , 13-H ) :   0.8878 
B( 10-C , 14-C ) :   0.3194 B( 10-C , 26-Cl) :   0.1542 B( 10-C , 27-C ) :  -0.1073 
B( 14-C , 15-H ) :   0.8881 B( 14-C , 16-H ) :   0.9004 B( 14-C , 17-H ) :   0.9201 
B( 14-C , 18-C ) :   0.1520 B( 18-C , 19-H ) :   0.9032 B( 18-C , 20-H ) :   0.8805 
B( 18-C , 21-H ) :   1.0713 B( 18-C , 22-C ) :   0.1605 B( 22-C , 23-H ) :   0.8622 
B( 22-C , 24-H ) :   0.9869 B( 22-C , 25-H ) :   0.9749 B( 26-Cl, 32-C ) :  -0.2500 
B( 26-Cl, 34-C ) :  -0.2475 B( 26-Cl, 39-H ) :   0.2277 B( 27-C , 28-C ) :  -0.4531 
B( 27-C , 32-C ) :  -0.2598 B( 27-C , 34-C ) :   1.1892 B( 27-C , 39-H ) :   1.5475 
B( 27-C , 40-H ) :  -0.2612 B( 27-C , 41-H ) :   0.1137 B( 27-C , 43-H ) :   0.1255 
B( 28-C , 29-C ) :   1.3317 B( 28-C , 30-C ) :   0.1447 B( 28-C , 32-C ) :   0.2061 
B( 28-C , 37-H ) :   0.2150 B( 28-C , 39-H ) :  -0.4257 B( 28-C , 40-H ) :   1.0024 
B( 28-C , 43-H ) :  -0.1372 B( 29-C , 30-C ) :   0.9232 B( 29-C , 34-C ) :  -0.1204 
B( 29-C , 35-H ) :   0.8896 B( 29-C , 37-H ) :   0.7595 B( 29-C , 46-H ) :   0.1143 
B( 30-C , 31-C ) :   1.5555 B( 30-C , 34-C ) :   0.1609 B( 30-C , 36-H ) :   0.9035 
B( 30-C , 45-H ) :   0.8450 B( 31-C , 32-C ) :   0.9142 B( 31-C , 33-C ) :  -0.1531 
B( 31-C , 43-H ) :  -0.1201 B( 31-C , 45-H ) :   0.1390 B( 31-C , 46-H ) :   0.6796 
B( 32-C , 33-C ) :   1.2717 B( 32-C , 34-C ) :   0.1116 B( 32-C , 42-H ) :   0.1337 
B( 32-C , 43-H ) :   1.1418 B( 32-C , 46-H ) :  -0.1866 B( 33-C , 34-C ) :   0.9256 
B( 33-C , 39-H ) :   0.1722 B( 33-C , 42-H ) :   0.8078 B( 33-C , 44-H ) :   0.8891 
B( 34-C , 38-H ) :   0.9409 B( 34-C , 41-H ) :   0.8337 

-------
TIMINGS
-------

Total SCF time: 0 days 0 hours 47 min 37 sec 

Total time                  ....    2857.887 sec
Sum of individual times     ....    2855.722 sec  ( 99.9%)

Fock matrix formation       ....    2841.585 sec  ( 99.4%)
  XC integration            ....      38.538 sec  (  1.4% of F)
    Basis function eval.    ....       3.145 sec  (  8.2% of XC)
    Density eval.           ....      15.097 sec  ( 39.2% of XC)
    XC-Functional eval.     ....       0.222 sec  (  0.6% of XC)
    XC-Potential eval.      ....      15.271 sec  ( 39.6% of XC)
Diagonalization             ....       4.456 sec  (  0.2%)
Density matrix formation    ....       0.255 sec  (  0.0%)
Population analysis         ....       0.413 sec  (  0.0%)
Initial guess               ....       2.934 sec  (  0.1%)
Orbital Transformation      ....       0.000 sec  (  0.0%)
Orbital Orthonormalization  ....       0.000 sec  (  0.0%)
DIIS solution               ....       4.985 sec  (  0.2%)
Grid generation             ....       1.094 sec  (  0.0%)


-------------------------------------------------------------------------------
                          DFT DISPERSION CORRECTION                            
                                                                               
                              DFTD3 V3.1  Rev 1                                
                          USING Becke-Johnson damping                          
-------------------------------------------------------------------------------
The TPSSH functional is recognized
Active option DFTDOPT                   ...         4   

molecular C6(AA) [au] = 22222.899569 


            DFT-D V3
 parameters
 s6 scaling factor         :     1.0000 
 a1 scaling factor         :     0.4529 
 s8 scaling factor         :     2.2382 
 a2 scaling factor         :     4.6550 
 ad hoc parameters k1-k3   :    16.0000     1.3333    -4.0000 

 Edisp/kcal,au: -57.021121230780  -0.090868931076 
 E6   /kcal   : -26.239894717 
 E8   /kcal   : -30.781226514 
 % E8         :  53.982148806 

-------------------------   ----------------
Dispersion correction           -0.090868931
-------------------------   ----------------


-------------------------   --------------------
FINAL SINGLE POINT ENERGY     -1257.795417759948
-------------------------   --------------------


                            ***************************************
                            *     ORCA property calculations      *
                            ***************************************

                                    ---------------------
                                    Active property flags
                                    ---------------------
   (+) Dipole Moment


------------------------------------------------------------------------------
                       ORCA ELECTRIC PROPERTIES CALCULATION
------------------------------------------------------------------------------

Dipole Moment Calculation                       ... on
Quadrupole Moment Calculation                   ... off
Polarizability Calculation                      ... off
GBWName                                         ... MOR14_ed26.gbw
Electron density file                           ... MOR14_ed26.scfp
The origin for moment calculation is the CENTER OF MASS  = (-0.001027, -0.085807 -0.008956)

-------------
DIPOLE MOMENT
-------------
                                X             Y             Z
Electronic contribution:     -2.97368     -21.70622      -2.00534
Nuclear contribution   :      3.57716      23.71136       2.15126
                        -----------------------------------------
Total Dipole Moment    :      0.60348       2.00514       0.14592
                        -----------------------------------------
Magnitude (a.u.)       :      2.09907
Magnitude (Debye)      :      5.33540



--------------------
Rotational spectrum 
--------------------
 
Rotational constants in cm-1:     0.013422     0.011126     0.009459 
Rotational constants in MHz :   402.378908   333.556426   283.583792 

 Dipole components along the rotational axes: 
x,y,z [a.u.] :     0.665407     1.987758     0.110134 
x,y,z [Debye]:     1.691331     5.052478     0.279938 

 

Timings for individual modules:

Sum of individual times         ...     2865.820 sec (=  47.764 min)
GTO integral calculation        ...        7.522 sec (=   0.125 min)   0.3 %
SCF iterations                  ...     2858.297 sec (=  47.638 min)  99.7 %
                             ****ORCA TERMINATED NORMALLY****
TOTAL RUN TIME: 0 days 0 hours 47 minutes 46 seconds 632 msec
