
                                 *****************
                                 * O   R   C   A *
                                 *****************

           --- An Ab Initio, DFT and Semiempirical electronic structure package ---

                  #######################################################
                  #                        -***-                        #
                  #          Department of theory and spectroscopy      #
                  #               Directorship: Frank Neese             #
                  #        Max Planck Institute fuer Kohlenforschung    #
                  #                Kaiser Wilhelm Platz 1               #
                  #                 D-45470 Muelheim/Ruhr               #
                  #                      Germany                        #
                  #                                                     #
                  #                  All rights reserved                #
                  #                        -***-                        #
                  #######################################################


                         Program Version 4.2.0 -  RELEASE  -


 With contributions from (in alphabetic order):
   Daniel Aravena         : Magnetic Suceptibility
   Michael Atanasov       : Ab Initio Ligand Field Theory (pilot matlab implementation)
   Alexander A. Auer      : GIAO ZORA, VPT2
   Ute Becker             : Parallelization
   Giovanni Bistoni       : ED, misc. LED, open-shell LED, HFLED
   Martin Brehm           : Molecular dynamics
   Dmytro Bykov           : SCF Hessian
   Vijay G. Chilkuri      : MRCI spin determinant printing, contributions to CSF-ICE
   Dipayan Datta          : RHF DLPNO-CCSD density
   Achintya Kumar Dutta   : EOM-CC, STEOM-CC
   Dmitry Ganyushin       : Spin-Orbit,Spin-Spin,Magnetic field MRCI
   Miquel Garcia          : C-PCM Hessian, Gaussian charge scheme
   Yang Guo               : DLPNO-NEVPT2, CIM, IAO-localization
   Andreas Hansen         : Spin unrestricted coupled pair/coupled cluster methods
   Benjamin Helmich-Paris : CASSCF linear response (MC-RPA)
   Lee Huntington         : MR-EOM, pCC
   Robert Izsak           : Overlap fitted RIJCOSX, COSX-SCS-MP3, EOM
   Christian Kollmar      : KDIIS, OOCD, Brueckner-CCSD(T), CCSD density
   Simone Kossmann        : Meta GGA functionals, TD-DFT gradient, OOMP2, MP2 Hessian
   Martin Krupicka        : AUTO-CI
   Lucas Lang             : DCDCAS
   Dagmar Lenk            : GEPOL surface, SMD
   Dimitrios Liakos       : Extrapolation schemes; Compound Job, initial MDCI parallelization
   Dimitrios Manganas     : Further ROCIS development; embedding schemes
   Dimitrios Pantazis     : SARC Basis sets
   Taras Petrenko         : DFT Hessian,TD-DFT gradient, ASA, ECA, R-Raman, ABS, FL, XAS/XES, NRVS
   Peter Pinski           : DLPNO-MP2, DLPNO-MP2 Gradient
   Christoph Reimann      : Effective Core Potentials
   Marius Retegan         : Local ZFS, SOC
   Christoph Riplinger    : Optimizer, TS searches, QM/MM, DLPNO-CCSD(T), (RO)-DLPNO pert. Triples
   Tobias Risthaus        : Range-separated hybrids, TD-DFT gradient, RPA, STAB
   Michael Roemelt        : Original ROCIS implementation
   Masaaki Saitow         : Open-shell DLPNO-CCSD energy and density
   Barbara Sandhoefer     : DKH picture change effects
   Avijit Sen             : IP-ROCIS
   Kantharuban Sivalingam : CASSCF convergence, NEVPT2, FIC-MRCI
   Bernardo de Souza      : ESD, SOC TD-DFT
   Georgi Stoychev        : AutoAux, RI-MP2 NMR
   Willem Van den Heuvel  : Paramagnetic NMR
   Boris Wezisla          : Elementary symmetry handling
   Frank Wennmohs         : Technical directorship


 We gratefully acknowledge several colleagues who have allowed us to
 interface, adapt or use parts of their codes:
   Stefan Grimme, W. Hujo, H. Kruse,             : VdW corrections, initial TS optimization,
                  C. Bannwarth                     DFT functionals, gCP, sTDA/sTD-DF
   Ed Valeev, F. Pavosevic, A. Kumar             : LibInt (2-el integral package), F12 methods
   Garnet Chan, S. Sharma, J. Yang, R. Olivares  : DMRG
   Ulf Ekstrom                                   : XCFun DFT Library
   Mihaly Kallay                                 : mrcc  (arbitrary order and MRCC methods)
   Andreas Klamt, Michael Diedenhofen            : otool_cosmo (COSMO solvation model)
   Jiri Pittner, Ondrej Demel                    : Mk-CCSD
   Frank Weinhold                                : gennbo (NPA and NBO analysis)
   Christopher J. Cramer and Donald G. Truhlar   : smd solvation model
   Lars Goerigk                                  : TD-DFT with DH, B97 family of functionals
   V. Asgeirsson, H. Jonsson                     : NEB implementation
   FAccTs GmbH                                   : IRC, NEB, NEB-TS, Multilevel, MM, QM/MM, CI optimization
   S Lehtola, MJT Oliveira, MAL Marques          : LibXC Library


 Your calculation uses the libint2 library for the computation of 2-el integrals
 For citations please refer to: http://libint.valeyev.net

 Your ORCA version has been built with support for libXC version: 4.2.3
 For citations please refer to: https://tddft.org/programs/libxc/

 This ORCA versions uses:
   CBLAS   interface :  Fast vector & matrix operations
   LAPACKE interface :  Fast linear algebra routines
   SCALAPACK package :  Parallel linear algebra routines


Your calculation utilizes the atom-pairwise dispersion correction
with the Becke-Johnson damping scheme (D3BJ)
Cite in your paper:
S.Grimme, S.Ehrlich, L.Goerigk, J Comput Chem, (2011), 32, 1456–1465 
S.Grimme, J.Antony, S.Ehrlich and H.Krieg, J.Chem.Phys., 132, (2010), 154104 
   

----- Orbital basis set information -----
Your calculation utilizes the basis: def2-TZVPPD
   F. Weigend and R. Ahlrichs, Phys. Chem. Chem. Phys. 7, 3297 (2005).
   D. Rappoport and F. Furche, J. Chem. Phys. 133 134105 (2010).

----- AuxJK basis set information -----
Your calculation utilizes the auxiliary basis: def2/JK
   H-Ba, Hf-Rn: F. Weigend, J. Comput. Chem. 29, 167 (2008).

cite the ECPs for Mo [Def2-ECP] as follows:
Ce-Yb(ecp-28): M. Dolg, H. Stoll, H.Preuss, J. Chem. Phys., 1989, 90, 1730-1734.
Y-Cd(ecp-28), Hf-Hg(ecp-46): D. Andrae,U. Haeussermann, M. Dolg, H. Stoll, H. Preuss, Theor. Chim. Acta, 1990, 77, 123-141.
In-Sb(ecp-28), Tl-Bi(ecp-46): B. Metz, H. Stoll, M. Dolg, J. Chem. Phys., 2000, 113, 2563-2569.
Te-Xe(ecp-28), Po-Rn(ecp-46): K. A. Peterson, D. Figgen, E. Goll, H. Stoll, M. Dolg, J. Chem. Phys., 2003, 119, 11113-11123.
Rb(ecp-28), Cs(ecp-46): T. Leininger, A. Nicklass, W. Kuechle, H. Stoll, M. Dolg, A. Bergner, Chem. Phys. Lett., 1996, 255, 274-280.
Sr(ecp-28), Ba(ecp-46): M. Kaupp, P. V. Schleyer, H. Stoll and H. Preuss, J. Chem. Phys., 1991, 94, 1360-1366.
La(ecp-46): M. Dolg, H. Stoll, A. Savin, H. Preuss, Theor. Chim. Acta, 1989, 75, 173-194.
Lu(ecp-28): X. Cao, M. Dolg, J. Chem. Phys., 2001, 115, 7348-7355.

ECP parameters for Mo [Def2-ECP] have been obtained from:
TURBOMOLE (7.0.2)

================================================================================
                                        WARNINGS
                       Please study these warnings very carefully!
================================================================================


INFO   : the flag for use of LIBINT has been found!

================================================================================
                                       INPUT FILE
================================================================================
NAME = MOR18_ed37.in
|  1> #
|  2> # MOR18_ed37 TPSSh-D3BJ/Def2-TZVPPD
|  3> #
|  4> ! tpssh d3bj def2-tzvppd def2/jk grid4 nofinalgrid
|  5> 
|  6> *xyz 0 1
|  7> Mo      -0.098072   -0.000113   -0.000040 
|  8> O       -1.958568   -1.162297    2.254949 
|  9> C       -1.292076   -0.726548    1.409379 
| 10> C       -1.290510    1.584735   -0.075353 
| 11> O       -1.955816    2.535729   -0.120716 
| 12> C       -1.292074   -0.856985   -1.334180 
| 13> O       -1.958517   -1.371361   -2.134397 
| 14> C        1.772262   -1.255233   -0.664863 
| 15> C        1.773533   -1.210923    0.743855 
| 16> C        1.772126    0.051067    1.419259 
| 17> C        1.773764    1.248901    0.676519 
| 18> C        1.772513    1.202801   -0.754108 
| 19> C        1.773865   -0.039338   -1.420099 
| 20> H        1.752441   -2.209415   -1.178166 
| 21> H        1.754475   -2.130485    1.316775 
| 22> H        1.752160    0.083668    2.502258 
| 23> H        1.754801    2.204840    1.186440 
| 24> H        1.752821    2.124408   -1.323840 
| 25> H        1.755108   -0.075692   -2.502938 
| 26> *
| 27> 
| 28> %maxcore 5000
| 29> 
| 30> %pal
| 31> nprocs = 24
| 32> end
| 33> 
| 34> 
| 35>                          ****END OF INPUT****
================================================================================

                       ****************************
                       * Single Point Calculation *
                       ****************************

---------------------------------
CARTESIAN COORDINATES (ANGSTROEM)
---------------------------------
  Mo    -0.098072   -0.000113   -0.000040
  O     -1.958568   -1.162297    2.254949
  C     -1.292076   -0.726548    1.409379
  C     -1.290510    1.584735   -0.075353
  O     -1.955816    2.535729   -0.120716
  C     -1.292074   -0.856985   -1.334180
  O     -1.958517   -1.371361   -2.134397
  C      1.772262   -1.255233   -0.664863
  C      1.773533   -1.210923    0.743855
  C      1.772126    0.051067    1.419259
  C      1.773764    1.248901    0.676519
  C      1.772513    1.202801   -0.754108
  C      1.773865   -0.039338   -1.420099
  H      1.752441   -2.209415   -1.178166
  H      1.754475   -2.130485    1.316775
  H      1.752160    0.083668    2.502258
  H      1.754801    2.204840    1.186440
  H      1.752821    2.124408   -1.323840
  H      1.755108   -0.075692   -2.502938

----------------------------
CARTESIAN COORDINATES (A.U.)
----------------------------
  NO LB      ZA    FRAG     MASS         X           Y           Z
   0 Mo   14.0000*   0    95.940   -0.185329   -0.000214   -0.000076
   1 O     8.0000    0    15.999   -3.701157   -2.196423    4.261236
   2 C     6.0000    0    12.011   -2.441670   -1.372977    2.663340
   3 C     6.0000    0    12.011   -2.438710    2.994715   -0.142397
   4 O     8.0000    0    15.999   -3.695957    4.791833   -0.228120
   5 C     6.0000    0    12.011   -2.441666   -1.619467   -2.521235
   6 O     8.0000    0    15.999   -3.701061   -2.591497   -4.033426
   7 C     6.0000    0    12.011    3.349090   -2.372047   -1.256409
   8 C     6.0000    0    12.011    3.351492   -2.288313    1.405682
   9 C     6.0000    0    12.011    3.348833    0.096503    2.682011
  10 C     6.0000    0    12.011    3.351928    2.360081    1.278436
  11 C     6.0000    0    12.011    3.349564    2.272964   -1.425058
  12 C     6.0000    0    12.011    3.352119   -0.074338   -2.683598
  13 H     1.0000    0     1.008    3.311634   -4.175189   -2.226411
  14 H     1.0000    0     1.008    3.315477   -4.026033    2.488344
  15 H     1.0000    0     1.008    3.311103    0.158110    4.728582
  16 H     1.0000    0     1.008    3.316093    4.166544    2.242047
  17 H     1.0000    0     1.008    3.312352    4.014549   -2.501695
  18 H     1.0000    0     1.008    3.316673   -0.143037   -4.729867
* core charge reduced due to ECP

--------------------------------
INTERNAL COORDINATES (ANGSTROEM)
--------------------------------
 Mo     0   0   0     0.000000000000     0.00000000     0.00000000
 O      1   0   0     3.145964463562     0.00000000     0.00000000
 C      2   1   0     1.161497913027     1.23868826     0.00000000
 C      1   2   3     1.984772937874    88.10193366    43.93927960
 O      4   1   2     1.161498800448   178.01893710   135.91090635
 C      1   2   3     1.984892929099    88.08371754   316.29683443
 O      6   1   2     1.161497390748   178.03348865   224.82629337
 C      1   2   3     2.348502737338   118.45449497   223.54759822
 C      8   1   2     1.409415267075    72.60080526   312.03971579
 C      9   8   1     1.431359948778   119.95673606   303.49312701
 C     10   9   8     1.409422464061   120.04287915   359.79840826
 C     11  10   9     1.431370108718   119.95603609     0.19974633
 C     12  11  10     1.409416593952   120.04419158   359.80182932
 H      8   1   2     1.083667906221   126.16393490    66.96579729
 H      9   8   1     1.083602697306   120.11658095   122.20332518
 H     10   9   8     1.083673521111   119.87504897   178.72275538
 H     11  10   9     1.083604352765   120.11522199   178.90572724
 H     12  11  10     1.083670516872   119.87407376   178.72226627
 H     13  12  11     1.083611433257   120.11540082   178.91113676

---------------------------
INTERNAL COORDINATES (A.U.)
---------------------------
 Mo     0   0   0     0.000000000000     0.00000000     0.00000000
 O      1   0   0     5.945011263180     0.00000000     0.00000000
 C      2   1   0     2.194912960741     1.23868826     0.00000000
 C      1   2   3     3.750677290600    88.10193366    43.93927960
 O      4   1   2     2.194914637724   178.01893710   135.91090635
 C      1   2   3     3.750904041154    88.08371754   316.29683443
 O      6   1   2     2.194911973778   178.03348865   224.82629337
 C      1   2   3     4.438026998334   118.45449497   223.54759822
 C      8   1   2     2.663408863740    72.60080526   312.03971579
 C      9   8   1     2.704878302253   119.95673606   303.49312701
 C     10   9   8     2.663422464072   120.04287915   359.79840826
 C     11  10   9     2.704897501757   119.95603609     0.19974633
 C     12  11  10     2.663411371173   120.04419158   359.80182932
 H      8   1   2     2.047835562878   126.16393490    66.96579729
 H      9   8   1     2.047712335886   120.11658095   122.20332518
 H     10   9   8     2.047846173483   119.87504897   178.72275538
 H     11  10   9     2.047715464251   120.11522199   178.90572724
 H     12  11  10     2.047840496292   119.87407376   178.72226627
 H     13  12  11     2.047728844442   120.11540082   178.91113676

---------------------
BASIS SET INFORMATION
---------------------
There are 4 groups of distinct atoms

 Group   1 Type Mo  : 7s7p5d2f1g contracted to 6s4p3d2f1g pattern {211111/4111/311/11/1}
 Group   2 Type O   : 12s7p3d1f contracted to 6s4p3d1f pattern {621111/4111/111/1}
 Group   3 Type C   : 12s6p3d1f contracted to 6s3p3d1f pattern {621111/411/111/1}
 Group   4 Type H   : 5s3p1d contracted to 3s3p1d pattern {311/111/1}

Atom   0Mo   basis set group =>   1
Atom   1O    basis set group =>   2
Atom   2C    basis set group =>   3
Atom   3C    basis set group =>   3
Atom   4O    basis set group =>   2
Atom   5C    basis set group =>   3
Atom   6O    basis set group =>   2
Atom   7C    basis set group =>   3
Atom   8C    basis set group =>   3
Atom   9C    basis set group =>   3
Atom  10C    basis set group =>   3
Atom  11C    basis set group =>   3
Atom  12C    basis set group =>   3
Atom  13H    basis set group =>   4
Atom  14H    basis set group =>   4
Atom  15H    basis set group =>   4
Atom  16H    basis set group =>   4
Atom  17H    basis set group =>   4
Atom  18H    basis set group =>   4
----------------------------------
AUXILIARY/JK BASIS SET INFORMATION
----------------------------------
There are 4 groups of distinct atoms

 Group   1 Type Mo  : 13s12p10d9f6g3h2i contracted to 11s10p9d8f6g3h2i pattern {31111111111/3111111111/211111111/21111111/111111/111/11}
 Group   2 Type O   : 14s10p6d2f1g contracted to 10s8p4d2f1g pattern {5111111111/31111111/3111/11/1}
 Group   3 Type C   : 14s10p6d2f1g contracted to 10s8p5d1f1g pattern {5111111111/31111111/21111/2/1}
 Group   4 Type H   : 4s2p2d contracted to 2s2p2d pattern {31/11/11}

Atom   0Mo   basis set group =>   1
Atom   1O    basis set group =>   2
Atom   2C    basis set group =>   3
Atom   3C    basis set group =>   3
Atom   4O    basis set group =>   2
Atom   5C    basis set group =>   3
Atom   6O    basis set group =>   2
Atom   7C    basis set group =>   3
Atom   8C    basis set group =>   3
Atom   9C    basis set group =>   3
Atom  10C    basis set group =>   3
Atom  11C    basis set group =>   3
Atom  12C    basis set group =>   3
Atom  13H    basis set group =>   4
Atom  14H    basis set group =>   4
Atom  15H    basis set group =>   4
Atom  16H    basis set group =>   4
Atom  17H    basis set group =>   4
Atom  18H    basis set group =>   4
-------------------------
ECP PARAMETER INFORMATION
-------------------------

 Group 1, Type Mo ECP Def2-ECP (replacing 28 core electrons, lmax=3)

Atom   0Mo   ECP group =>   1



           ************************************************************
           *        Program running with 24 parallel MPI-processes    *
           *              working on a common directory               *
           ************************************************************
------------------------------------------------------------------------------
                           ORCA GTO INTEGRAL CALCULATION
------------------------------------------------------------------------------

                         BASIS SET STATISTICS AND STARTUP INFO

 # of primitive gaussian shells          ...  343
 # of primitive gaussian functions       ...  823
 # of contracted shells                  ...  217
 # of contracted basis functions         ...  611
 Highest angular momentum                ...    4
 Maximum contraction depth               ...    6
 Integral package used                   ... LIBINT
 Integral threshhold            Thresh   ...  1.000e-10
 Primitive cut-off              TCut     ...  1.000e-11


------------------------------ INTEGRAL EVALUATION ----------------------------


 * One electron integrals 

   ECP integrals                         ... done
 Pre-screening matrix                    ... done
 Shell pair data                         ... done (   0.006 sec)



           ************************************************************
           *        Program running with 24 parallel MPI-processes    *
           *              working on a common directory               *
           ************************************************************
-------------------------------------------------------------------------------
                                 ORCA SCF
-------------------------------------------------------------------------------

------------
SCF SETTINGS
------------
Hamiltonian:
 Density Functional     Method          .... DFT(GTOs)
 Exchange Functional    Exchange        .... TPSS
 Correlation Functional Correlation     .... TPSS
 LDA part of GGA corr.  LDAOpt          .... PW91-LDA
 Gradients option       PostSCFGGA      .... off
 Hybrid DFT is turned on
   Fraction HF Exchange ScalHFX         ....  0.100000
   Scaling of DF-GGA-X  ScalDFX         ....  0.900000
   Scaling of DF-GGA-C  ScalDFC         ....  1.000000
   Scaling of DF-LDA-C  ScalLDAC        ....  1.000000
   Perturbative correction              ....  0.000000
   Density functional embedding theory  .... OFF
   NL short-range parameter             ....  5.200000


General Settings:
 Integral files         IntName         .... MOR18_ed37
 Hartree-Fock type      HFTyp           .... RHF
 Total Charge           Charge          ....    0
 Multiplicity           Mult            ....    1
 Number of Electrons    NEL             ....   98
 Basis Dimension        Dim             ....  611
 Nuclear Repulsion      ENuc            ....    825.0254848324 Eh

Convergence Acceleration:
 DIIS                   CNVDIIS         .... on
   Start iteration      DIISMaxIt       ....    12
   Startup error        DIISStart       ....  0.200000
   # of expansion vecs  DIISMaxEq       ....     5
   Bias factor          DIISBfac        ....   1.050
   Max. coefficient     DIISMaxC        ....  10.000
 Newton-Raphson         CNVNR           .... off
 SOSCF                  CNVSOSCF        .... off
 Level Shifting         CNVShift        .... on
   Level shift para.    LevelShift      ....    0.2500
   Turn off err/grad.   ShiftErr        ....    0.0010
 Zerner damping         CNVZerner       .... off
 Static damping         CNVDamp         .... on
   Fraction old density DampFac         ....    0.7000
   Max. Damping (<1)    DampMax         ....    0.9800
   Min. Damping (>=0)   DampMin         ....    0.0000
   Turn off err/grad.   DampErr         ....    0.1000
 Fernandez-Rico         CNVRico         .... off

SCF Procedure:
 Maximum # iterations   MaxIter         ....   125
 SCF integral mode      SCFMode         .... Direct
   Integral package                     .... LIBINT
 Reset frequency        DirectResetFreq ....    20
 Integral Threshold     Thresh          ....  1.000e-10 Eh
 Primitive CutOff       TCut            ....  1.000e-11 Eh

Convergence Tolerance:
 Convergence Check Mode ConvCheckMode   .... Total+1el-Energy
 Convergence forced     ConvForced      .... 0
 Energy Change          TolE            ....  1.000e-06 Eh
 1-El. energy change                    ....  1.000e-03 Eh
 DIIS Error             TolErr          ....  1.000e-06


Diagonalization of the overlap matrix:
Smallest eigenvalue                        ... 5.320e-07
Time for diagonalization                   ...    0.053 sec
Threshold for overlap eigenvalues          ... 1.000e-08
Number of eigenvalues below threshold      ... 0
Time for construction of square roots      ...    0.062 sec
Total time needed                          ...    0.117 sec

-------------------
DFT GRID GENERATION
-------------------

General Integration Accuracy     IntAcc      ...  4.670
Radial Grid Type                 RadialGrid  ... Gauss-Chebyshev
Angular Grid (max. acc.)         AngularGrid ... Lebedev-302
Angular grid pruning method      GridPruning ... 3 (G Style)
Weight generation scheme         WeightScheme... Becke
Basis function cutoff            BFCut       ...    1.0000e-10
Integration weight cutoff        WCut        ...    1.0000e-14
Grids for H and He will be reduced by one unit

# of grid points (after initial pruning)     ... 105506 (   0.0 sec)
# of grid points (after weights+screening)   ...  95094 (   0.0 sec)
nearest neighbour list constructed           ...    0.0 sec
Grid point re-assignment to atoms done       ...    0.0 sec
Grid point division into batches done        ...    0.4 sec
Reduced shell lists constructed in    0.4 sec

Total number of grid points                  ...    95094
Total number of batches                      ...     1495
Average number of points per batch           ...       63
Average number of grid points per atom       ...     5005
Average number of shells per batch           ...   166.88 (76.90%)
Average number of basis functions per batch  ...   493.62 (80.79%)
Average number of large shells per batch     ...   138.78 (83.16%)
Average number of large basis fcns per batch ...   406.22 (82.29%)
Maximum spatial batch extension              ...   1.75,  2.08,  1.82 au
Average spatial batch extension              ...   0.05,  0.05,  0.05 au

Time for grid setup =    0.499 sec

------------------------------
INITIAL GUESS: MODEL POTENTIAL
------------------------------
Loading Hartree-Fock densities                     ... done
  calling /sw/apps/orca/orca_4_2_0_linux_x86-64_openmpi314/orca MOR18_ed37_atom42.inp > MOR18_ed37_atom42.out in order to generate an atomic fitting density for atom 0 (Mo with ECP) on-the-fly... 
    atom 0 (Mo), assumed electronic state with S=5: 1s2 2s2 2p6 3s2 3p6 4s2 3d10 4p6 5s2 4d4           ... done
Calculating cut-offs                               ... done
Setting up the integral package                    ... done
Initializing the effective Hamiltonian             ... done
Starting the Coulomb interaction                   ... done (   0.0 sec)
Reading the grid                                   ... done
Mapping shells                                     ... done
Starting the XC term evaluation                    ... done (   0.2 sec)
  promolecular density results
     # of electrons  =    125.997283646
     EX              =   -191.493351150
     EC              =     -4.971876440
     EX+EC           =   -196.465227590
Transforming the Hamiltonian                       ... done (   0.0 sec)
Diagonalizing the Hamiltonian                      ... done (   0.1 sec)
Back transforming the eigenvectors                 ... done (   0.0 sec)
Now organizing SCF variables                       ... done
                      ------------------
                      INITIAL GUESS DONE (   2.6 sec)
                      ------------------
--------------
SCF ITERATIONS
--------------
ITER       Energy         Delta-E        Max-DP      RMS-DP      [F,P]     Damp
               ***  Starting incremental Fock matrix formation  ***
  0   -640.5158081830   0.000000000000 0.12996238  0.00114409  0.4358271 0.7000
  1   -640.6669912708  -0.151183087855 0.06590209  0.00082945  0.2856816 0.7000
                               ***Turning on DIIS***
  2   -640.7106627859  -0.043671515090 0.05549871  0.00069301  0.1904378 0.7000
  3   -640.7444583810  -0.033795595032 0.05814390  0.00063698  0.1347479 0.7000
  4   -640.7681420609  -0.023683679936 0.14125492  0.00151964  0.0960626 0.0000
  5   -640.8209714813  -0.052829420369 0.01273004  0.00012483  0.0057804 0.0000
  6   -640.8209929946  -0.000021513312 0.00324102  0.00003801  0.0058669 0.0000
  7   -640.8211547792  -0.000161784575 0.00528985  0.00003757  0.0019516 0.0000
  8   -640.8211710647  -0.000016285579 0.01333492  0.00010439  0.0007810 0.0000
  9   -640.8211734809  -0.000002416162 0.01638964  0.00013920  0.0003508 0.0000
                 **** Energy Check signals convergence ****

               *****************************************************
               *                     SUCCESS                       *
               *           SCF CONVERGED AFTER  10 CYCLES          *
               *****************************************************


----------------
TOTAL SCF ENERGY
----------------

Total Energy       :         -640.82117406 Eh          -17437.63066 eV

Components:
Nuclear Repulsion  :          825.02548483 Eh           22450.08478 eV
Electronic Energy  :        -1465.84665890 Eh          -39887.71544 eV
One Electron Energy:        -2533.06715097 Eh          -68928.26142 eV
Two Electron Energy:         1067.22049207 Eh           29040.54598 eV

Virial components:
Potential Energy   :        -1234.10759288 Eh          -33581.77487 eV
Kinetic Energy     :          593.28641881 Eh           16144.14421 eV
Virial Ratio       :            2.08012109


DFT components:
N(Alpha)           :       48.999914961728 electrons
N(Beta)            :       48.999914961728 electrons
N(Total)           :       97.999829923456 electrons
E(X)               :      -73.207243257376 Eh       
E(C)               :       -3.409595413221 Eh       
E(XC)              :      -76.616838670597 Eh       
DFET-embed. en.    :        0.000000000000 Eh       

---------------
SCF CONVERGENCE
---------------

  Last Energy change         ...   -5.8398e-07  Tolerance :   1.0000e-06
  Last MAX-Density change    ...    1.5684e-02  Tolerance :   1.0000e-05
  Last RMS-Density change    ...    1.3927e-04  Tolerance :   1.0000e-06
  Last DIIS Error            ...    6.4753e-05  Tolerance :   1.0000e-06

             **** THE GBW FILE WAS UPDATED (MOR18_ed37.gbw) ****
             **** DENSITY FILE WAS UPDATED (MOR18_ed37.scfp) ****
             **** ENERGY FILE WAS UPDATED (MOR18_ed37.en.tmp) ****
             **** THE GBW FILE WAS UPDATED (MOR18_ed37.gbw) ****
             **** DENSITY FILE WAS UPDATED (MOR18_ed37.scfp) ****
----------------
ORBITAL ENERGIES
----------------

  NO   OCC          E(Eh)            E(eV) 
   0   2.0000     -19.101382      -519.7750 
   1   2.0000     -19.101377      -519.7749 
   2   2.0000     -19.101369      -519.7747 
   3   2.0000     -10.200641      -277.5736 
   4   2.0000     -10.200638      -277.5735 
   5   2.0000     -10.200633      -277.5733 
   6   2.0000     -10.171015      -276.7674 
   7   2.0000     -10.170864      -276.7633 
   8   2.0000     -10.170859      -276.7631 
   9   2.0000     -10.170309      -276.7482 
  10   2.0000     -10.170306      -276.7481 
  11   2.0000     -10.170149      -276.7438 
  12   2.0000      -2.510859       -68.3239 
  13   2.0000      -1.534832       -41.7649 
  14   2.0000      -1.521340       -41.3978 
  15   2.0000      -1.521331       -41.3975 
  16   2.0000      -1.075383       -29.2627 
  17   2.0000      -1.074762       -29.2458 
  18   2.0000      -1.074760       -29.2457 
  19   2.0000      -0.884855       -24.0781 
  20   2.0000      -0.779029       -21.1984 
  21   2.0000      -0.779028       -21.1984 
  22   2.0000      -0.631766       -17.1912 
  23   2.0000      -0.631765       -17.1912 
  24   2.0000      -0.555394       -15.1130 
  25   2.0000      -0.537005       -14.6126 
  26   2.0000      -0.521046       -14.1784 
  27   2.0000      -0.521038       -14.1782 
  28   2.0000      -0.492028       -13.3888 
  29   2.0000      -0.469593       -12.7783 
  30   2.0000      -0.460040       -12.5183 
  31   2.0000      -0.460037       -12.5182 
  32   2.0000      -0.437402       -11.9023 
  33   2.0000      -0.420666       -11.4469 
  34   2.0000      -0.417050       -11.3485 
  35   2.0000      -0.417038       -11.3482 
  36   2.0000      -0.408375       -11.1124 
  37   2.0000      -0.408369       -11.1123 
  38   2.0000      -0.401275       -10.9193 
  39   2.0000      -0.393654       -10.7119 
  40   2.0000      -0.393641       -10.7115 
  41   2.0000      -0.381062       -10.3692 
  42   2.0000      -0.375393       -10.2150 
  43   2.0000      -0.375388       -10.2148 
  44   2.0000      -0.322125        -8.7655 
  45   2.0000      -0.322114        -8.7652 
  46   2.0000      -0.208394        -5.6707 
  47   2.0000      -0.207302        -5.6410 
  48   2.0000      -0.207288        -5.6406 
  49   0.0000      -0.070674        -1.9231 
  50   0.0000      -0.070667        -1.9229 
  51   0.0000      -0.027530        -0.7491 
  52   0.0000      -0.027523        -0.7489 
  53   0.0000      -0.018042        -0.4910 
  54   0.0000      -0.005022        -0.1366 
  55   0.0000       0.007568         0.2059 
  56   0.0000       0.007595         0.2067 
  57   0.0000       0.011335         0.3084 
  58   0.0000       0.028689         0.7807 
  59   0.0000       0.028876         0.7858 
  60   0.0000       0.028883         0.7859 
  61   0.0000       0.036540         0.9943 
  62   0.0000       0.036551         0.9946 
  63   0.0000       0.044412         1.2085 
  64   0.0000       0.044441         1.2093 
  65   0.0000       0.049652         1.3511 
  66   0.0000       0.051644         1.4053 
  67   0.0000       0.051673         1.4061 
  68   0.0000       0.063669         1.7325 
  69   0.0000       0.071670         1.9502 
  70   0.0000       0.081715         2.2236 
  71   0.0000       0.082119         2.2346 
  72   0.0000       0.082149         2.2354 
  73   0.0000       0.092633         2.5207 
  74   0.0000       0.092677         2.5219 
  75   0.0000       0.095222         2.5911 
  76   0.0000       0.109462         2.9786 
  77   0.0000       0.129770         3.5312 
  78   0.0000       0.129830         3.5328 
  79   0.0000       0.132743         3.6121 
  80   0.0000       0.139886         3.8065 
  81   0.0000       0.139932         3.8078 
  82   0.0000       0.144615         3.9352 
  83   0.0000       0.144629         3.9356 
  84   0.0000       0.160797         4.3755 
  85   0.0000       0.168788         4.5930 
  86   0.0000       0.168820         4.5938 
  87   0.0000       0.172926         4.7056 
  88   0.0000       0.176825         4.8117 
  89   0.0000       0.176912         4.8140 
  90   0.0000       0.183696         4.9986 
  91   0.0000       0.189412         5.1542 
  92   0.0000       0.192378         5.2349 
  93   0.0000       0.197199         5.3661 
  94   0.0000       0.197236         5.3671 
  95   0.0000       0.209268         5.6945 
  96   0.0000       0.209284         5.6949 
  97   0.0000       0.231893         6.3101 
  98   0.0000       0.231903         6.3104 
  99   0.0000       0.235918         6.4197 
 100   0.0000       0.235927         6.4199 
 101   0.0000       0.236817         6.4441 
 102   0.0000       0.248488         6.7617 
 103   0.0000       0.252433         6.8691 
 104   0.0000       0.252458         6.8697 
 105   0.0000       0.262767         7.1503 
 106   0.0000       0.262947         7.1551 
 107   0.0000       0.262999         7.1566 
 108   0.0000       0.276227         7.5165 
 109   0.0000       0.279330         7.6010 
 110   0.0000       0.284334         7.7371 
 111   0.0000       0.284408         7.7391 
 112   0.0000       0.291666         7.9366 
 113   0.0000       0.298415         8.1203 
 114   0.0000       0.298433         8.1208 
 115   0.0000       0.300475         8.1763 
 116   0.0000       0.309012         8.4086 
 117   0.0000       0.309043         8.4095 
 118   0.0000       0.309957         8.4343 
 119   0.0000       0.310020         8.4361 
 120   0.0000       0.315859         8.5950 
 121   0.0000       0.324027         8.8172 
 122   0.0000       0.324046         8.8177 
 123   0.0000       0.342989         9.3332 
 124   0.0000       0.343068         9.3354 
 125   0.0000       0.350124         9.5274 
 126   0.0000       0.354632         9.6500 
 127   0.0000       0.355785         9.6814 
 128   0.0000       0.357207         9.7201 
 129   0.0000       0.357357         9.7242 
 130   0.0000       0.360792         9.8177 
 131   0.0000       0.360849         9.8192 
 132   0.0000       0.367326         9.9954 
 133   0.0000       0.367337         9.9957 
 134   0.0000       0.372051        10.1240 
 135   0.0000       0.379432        10.3249 
 136   0.0000       0.387520        10.5450 
 137   0.0000       0.387527        10.5452 
 138   0.0000       0.396817        10.7979 
 139   0.0000       0.413099        11.2410 
 140   0.0000       0.419455        11.4139 
 141   0.0000       0.419482        11.4147 
 142   0.0000       0.435954        11.8629 
 143   0.0000       0.437464        11.9040 
 144   0.0000       0.447036        12.1645 
 145   0.0000       0.447131        12.1671 
 146   0.0000       0.463992        12.6259 
 147   0.0000       0.464160        12.6304 
 148   0.0000       0.473963        12.8972 
 149   0.0000       0.474131        12.9018 
 150   0.0000       0.474573        12.9138 
 151   0.0000       0.489260        13.3134 
 152   0.0000       0.505206        13.7473 
 153   0.0000       0.506570        13.7845 
 154   0.0000       0.506613        13.7856 
 155   0.0000       0.509678        13.8690 
 156   0.0000       0.509707        13.8698 
 157   0.0000       0.512823        13.9546 
 158   0.0000       0.519014        14.1231 
 159   0.0000       0.519178        14.1276 
 160   0.0000       0.521612        14.1938 
 161   0.0000       0.522655        14.2222 
 162   0.0000       0.522822        14.2267 
 163   0.0000       0.533580        14.5194 
 164   0.0000       0.533656        14.5215 
 165   0.0000       0.538878        14.6636 
 166   0.0000       0.539651        14.6846 
 167   0.0000       0.552996        15.0478 
 168   0.0000       0.553015        15.0483 
 169   0.0000       0.565121        15.3777 
 170   0.0000       0.568153        15.4602 
 171   0.0000       0.579570        15.7709 
 172   0.0000       0.579701        15.7745 
 173   0.0000       0.590966        16.0810 
 174   0.0000       0.599250        16.3064 
 175   0.0000       0.599326        16.3085 
 176   0.0000       0.603704        16.4276 
 177   0.0000       0.606860        16.5135 
 178   0.0000       0.613387        16.6911 
 179   0.0000       0.613497        16.6941 
 180   0.0000       0.627768        17.0824 
 181   0.0000       0.627885        17.0856 
 182   0.0000       0.632465        17.2103 
 183   0.0000       0.632523        17.2118 
 184   0.0000       0.641204        17.4480 
 185   0.0000       0.647140        17.6096 
 186   0.0000       0.647269        17.6131 
 187   0.0000       0.651121        17.7179 
 188   0.0000       0.660772        17.9805 
 189   0.0000       0.660898        17.9840 
 190   0.0000       0.661671        18.0050 
 191   0.0000       0.666982        18.1495 
 192   0.0000       0.680714        18.5232 
 193   0.0000       0.680827        18.5262 
 194   0.0000       0.689094        18.7512 
 195   0.0000       0.692025        18.8310 
 196   0.0000       0.692108        18.8332 
 197   0.0000       0.701184        19.0802 
 198   0.0000       0.708571        19.2812 
 199   0.0000       0.708898        19.2901 
 200   0.0000       0.723164        19.6783 
 201   0.0000       0.723570        19.6893 
 202   0.0000       0.723769        19.6948 
 203   0.0000       0.730730        19.8842 
 204   0.0000       0.730820        19.8866 
 205   0.0000       0.738152        20.0861 
 206   0.0000       0.748233        20.3604 
 207   0.0000       0.754601        20.5337 
 208   0.0000       0.754716        20.5369 
 209   0.0000       0.761868        20.7315 
 210   0.0000       0.762865        20.7586 
 211   0.0000       0.769700        20.9446 
 212   0.0000       0.780575        21.2405 
 213   0.0000       0.780712        21.2442 
 214   0.0000       0.799310        21.7503 
 215   0.0000       0.799340        21.7512 
 216   0.0000       0.809622        22.0309 
 217   0.0000       0.827356        22.5135 
 218   0.0000       0.837260        22.7830 
 219   0.0000       0.839873        22.8541 
 220   0.0000       0.839876        22.8542 
 221   0.0000       0.844207        22.9720 
 222   0.0000       0.854947        23.2643 
 223   0.0000       0.854978        23.2651 
 224   0.0000       0.856591        23.3090 
 225   0.0000       0.881615        23.9900 
 226   0.0000       0.881834        23.9959 
 227   0.0000       0.893168        24.3043 
 228   0.0000       0.893243        24.3064 
 229   0.0000       0.897708        24.4279 
 230   0.0000       0.914506        24.8850 
 231   0.0000       0.917591        24.9689 
 232   0.0000       0.917626        24.9699 
 233   0.0000       0.946485        25.7552 
 234   0.0000       0.959408        26.1068 
 235   0.0000       0.959436        26.1076 
 236   0.0000       0.964712        26.2511 
 237   0.0000       0.964886        26.2559 
 238   0.0000       0.968051        26.3420 
 239   0.0000       0.976223        26.5644 
 240   0.0000       0.986916        26.8553 
 241   0.0000       0.991105        26.9693 
 242   0.0000       0.991204        26.9720 
 243   0.0000       1.004758        27.3409 
 244   0.0000       1.004779        27.3414 
 245   0.0000       1.043662        28.3995 
 246   0.0000       1.051118        28.6024 
 247   0.0000       1.051342        28.6085 
 248   0.0000       1.055990        28.7350 
 249   0.0000       1.092197        29.7202 
 250   0.0000       1.101858        29.9831 
 251   0.0000       1.101922        29.9848 
 252   0.0000       1.138204        30.9721 
 253   0.0000       1.141010        31.0485 
 254   0.0000       1.165014        31.7016 
 255   0.0000       1.165063        31.7030 
 256   0.0000       1.174837        31.9690 
 257   0.0000       1.174947        31.9719 
 258   0.0000       1.189850        32.3775 
 259   0.0000       1.193954        32.4891 
 260   0.0000       1.194258        32.4974 
 261   0.0000       1.215750        33.0822 
 262   0.0000       1.233055        33.5531 
 263   0.0000       1.234657        33.5967 
 264   0.0000       1.234676        33.5972 
 265   0.0000       1.249148        33.9911 
 266   0.0000       1.257798        34.2264 
 267   0.0000       1.257872        34.2284 
 268   0.0000       1.288339        35.0575 
 269   0.0000       1.288535        35.0628 
 270   0.0000       1.305968        35.5372 
 271   0.0000       1.306070        35.5400 
 272   0.0000       1.333608        36.2893 
 273   0.0000       1.333617        36.2896 
 274   0.0000       1.338631        36.4260 
 275   0.0000       1.347693        36.6726 
 276   0.0000       1.347845        36.6767 
 277   0.0000       1.348018        36.6814 
 278   0.0000       1.363843        37.1120 
 279   0.0000       1.363964        37.1153 
 280   0.0000       1.387102        37.7450 
 281   0.0000       1.387136        37.7459 
 282   0.0000       1.401554        38.1382 
 283   0.0000       1.406999        38.2864 
 284   0.0000       1.433945        39.0196 
 285   0.0000       1.434107        39.0240 
 286   0.0000       1.441839        39.2344 
 287   0.0000       1.454982        39.5921 
 288   0.0000       1.455079        39.5947 
 289   0.0000       1.478414        40.2297 
 290   0.0000       1.492969        40.6258 
 291   0.0000       1.492998        40.6265 
 292   0.0000       1.535344        41.7788 
 293   0.0000       1.535475        41.7824 
 294   0.0000       1.565513        42.5998 
 295   0.0000       1.589307        43.2473 
 296   0.0000       1.589370        43.2490 
 297   0.0000       1.598944        43.5095 
 298   0.0000       1.613749        43.9124 
 299   0.0000       1.672551        45.5124 
 300   0.0000       1.680612        45.7318 
 301   0.0000       1.680651        45.7329 
 302   0.0000       1.709737        46.5243 
 303   0.0000       1.709747        46.5246 
 304   0.0000       1.717686        46.7406 
 305   0.0000       1.740903        47.3724 
 306   0.0000       1.741162        47.3794 
 307   0.0000       1.767872        48.1063 
 308   0.0000       1.781207        48.4691 
 309   0.0000       1.781301        48.4717 
 310   0.0000       1.795813        48.8665 
 311   0.0000       1.799509        48.9671 
 312   0.0000       1.799665        48.9714 
 313   0.0000       1.814826        49.3839 
 314   0.0000       1.815047        49.3899 
 315   0.0000       1.825008        49.6610 
 316   0.0000       1.825118        49.6640 
 317   0.0000       1.838297        50.0226 
 318   0.0000       1.838324        50.0233 
 319   0.0000       1.844131        50.1813 
 320   0.0000       1.861895        50.6647 
 321   0.0000       1.869857        50.8814 
 322   0.0000       1.869910        50.8828 
 323   0.0000       1.870767        50.9062 
 324   0.0000       1.911890        52.0252 
 325   0.0000       1.926960        52.4353 
 326   0.0000       1.927688        52.4551 
 327   0.0000       1.927768        52.4572 
 328   0.0000       1.954842        53.1940 
 329   0.0000       1.958521        53.2941 
 330   0.0000       1.968189        53.5571 
 331   0.0000       2.014167        54.8083 
 332   0.0000       2.014197        54.8091 
 333   0.0000       2.023742        55.0688 
 334   0.0000       2.023790        55.0701 
 335   0.0000       2.070695        56.3465 
 336   0.0000       2.070761        56.3483 
 337   0.0000       2.098962        57.1157 
 338   0.0000       2.099068        57.1186 
 339   0.0000       2.110255        57.4230 
 340   0.0000       2.113094        57.5002 
 341   0.0000       2.130645        57.9778 
 342   0.0000       2.130796        57.9819 
 343   0.0000       2.175837        59.2075 
 344   0.0000       2.175861        59.2082 
 345   0.0000       2.202847        59.9425 
 346   0.0000       2.238755        60.9196 
 347   0.0000       2.238874        60.9229 
 348   0.0000       2.239072        60.9282 
 349   0.0000       2.274493        61.8921 
 350   0.0000       2.274508        61.8925 
 351   0.0000       2.288689        62.2784 
 352   0.0000       2.316484        63.0347 
 353   0.0000       2.329604        63.3917 
 354   0.0000       2.329698        63.3943 
 355   0.0000       2.351198        63.9794 
 356   0.0000       2.359667        64.2098 
 357   0.0000       2.372146        64.5494 
 358   0.0000       2.372178        64.5502 
 359   0.0000       2.396280        65.2061 
 360   0.0000       2.424076        65.9625 
 361   0.0000       2.424109        65.9634 
 362   0.0000       2.462422        67.0059 
 363   0.0000       2.476865        67.3989 
 364   0.0000       2.476889        67.3996 
 365   0.0000       2.488871        67.7256 
 366   0.0000       2.488890        67.7261 
 367   0.0000       2.514511        68.4233 
 368   0.0000       2.578071        70.1529 
 369   0.0000       2.631757        71.6138 
 370   0.0000       2.632574        71.6360 
 371   0.0000       2.632692        71.6392 
 372   0.0000       2.668462        72.6125 
 373   0.0000       2.668549        72.6149 
 374   0.0000       2.670384        72.6649 
 375   0.0000       2.679649        72.9170 
 376   0.0000       2.679743        72.9195 
 377   0.0000       2.728120        74.2359 
 378   0.0000       2.729248        74.2666 
 379   0.0000       2.729260        74.2669 
 380   0.0000       2.755372        74.9775 
 381   0.0000       2.779374        75.6306 
 382   0.0000       2.779391        75.6311 
 383   0.0000       2.784728        75.7763 
 384   0.0000       2.814291        76.5807 
 385   0.0000       2.814367        76.5828 
 386   0.0000       2.821851        76.7865 
 387   0.0000       2.822745        76.8108 
 388   0.0000       2.822795        76.8121 
 389   0.0000       2.845270        77.4237 
 390   0.0000       2.845306        77.4247 
 391   0.0000       2.846492        77.4570 
 392   0.0000       2.903808        79.0166 
 393   0.0000       2.929909        79.7269 
 394   0.0000       2.930002        79.7294 
 395   0.0000       2.945309        80.1459 
 396   0.0000       2.954033        80.3833 
 397   0.0000       2.954037        80.3834 
 398   0.0000       2.994805        81.4928 
 399   0.0000       2.994839        81.4937 
 400   0.0000       3.010567        81.9217 
 401   0.0000       3.015658        82.0602 
 402   0.0000       3.033872        82.5559 
 403   0.0000       3.035574        82.6022 
 404   0.0000       3.035618        82.6034 
 405   0.0000       3.054586        83.1195 
 406   0.0000       3.054670        83.1218 
 407   0.0000       3.072399        83.6042 
 408   0.0000       3.083578        83.9084 
 409   0.0000       3.083582        83.9085 
 410   0.0000       3.123409        84.9923 
 411   0.0000       3.123444        84.9932 
 412   0.0000       3.134140        85.2843 
 413   0.0000       3.134149        85.2845 
 414   0.0000       3.155147        85.8559 
 415   0.0000       3.161570        86.0307 
 416   0.0000       3.191166        86.8360 
 417   0.0000       3.191198        86.8369 
 418   0.0000       3.194424        86.9247 
 419   0.0000       3.223228        87.7085 
 420   0.0000       3.227288        87.8190 
 421   0.0000       3.227316        87.8197 
 422   0.0000       3.246127        88.3316 
 423   0.0000       3.246146        88.3321 
 424   0.0000       3.255821        88.5954 
 425   0.0000       3.255868        88.5967 
 426   0.0000       3.262640        88.7809 
 427   0.0000       3.286870        89.4403 
 428   0.0000       3.286965        89.4429 
 429   0.0000       3.301429        89.8365 
 430   0.0000       3.302638        89.8694 
 431   0.0000       3.302696        89.8709 
 432   0.0000       3.318246        90.2941 
 433   0.0000       3.327437        90.5442 
 434   0.0000       3.330735        90.6339 
 435   0.0000       3.330785        90.6353 
 436   0.0000       3.346290        91.0572 
 437   0.0000       3.378322        91.9288 
 438   0.0000       3.378376        91.9303 
 439   0.0000       3.388448        92.2043 
 440   0.0000       3.389505        92.2331 
 441   0.0000       3.389555        92.2345 
 442   0.0000       3.405804        92.6766 
 443   0.0000       3.419389        93.0463 
 444   0.0000       3.419492        93.0491 
 445   0.0000       3.434561        93.4592 
 446   0.0000       3.444342        93.7253 
 447   0.0000       3.444430        93.7277 
 448   0.0000       3.448324        93.8337 
 449   0.0000       3.468384        94.3795 
 450   0.0000       3.488204        94.9189 
 451   0.0000       3.488259        94.9204 
 452   0.0000       3.499433        95.2244 
 453   0.0000       3.519922        95.7819 
 454   0.0000       3.519980        95.7835 
 455   0.0000       3.524327        95.9018 
 456   0.0000       3.543159        96.4143 
 457   0.0000       3.543225        96.4161 
 458   0.0000       3.550838        96.6232 
 459   0.0000       3.550866        96.6240 
 460   0.0000       3.563373        96.9643 
 461   0.0000       3.626953        98.6944 
 462   0.0000       3.627047        98.6970 
 463   0.0000       3.655201        99.4631 
 464   0.0000       3.687226       100.3345 
 465   0.0000       3.690170       100.4146 
 466   0.0000       3.710202       100.9597 
 467   0.0000       3.721845       101.2766 
 468   0.0000       3.721866       101.2771 
 469   0.0000       3.743844       101.8752 
 470   0.0000       3.772012       102.6417 
 471   0.0000       3.772074       102.6434 
 472   0.0000       3.772102       102.6441 
 473   0.0000       3.784649       102.9855 
 474   0.0000       3.784693       102.9867 
 475   0.0000       3.824982       104.0830 
 476   0.0000       3.848126       104.7128 
 477   0.0000       3.848140       104.7132 
 478   0.0000       3.857454       104.9667 
 479   0.0000       3.910568       106.4120 
 480   0.0000       3.924454       106.7898 
 481   0.0000       3.924523       106.7917 
 482   0.0000       3.935083       107.0791 
 483   0.0000       3.935116       107.0800 
 484   0.0000       3.955469       107.6338 
 485   0.0000       3.955529       107.6354 
 486   0.0000       3.978746       108.2672 
 487   0.0000       4.052388       110.2711 
 488   0.0000       4.052402       110.2715 
 489   0.0000       4.063611       110.5765 
 490   0.0000       4.063724       110.5795 
 491   0.0000       4.087248       111.2197 
 492   0.0000       4.119663       112.1017 
 493   0.0000       4.119688       112.1024 
 494   0.0000       4.133072       112.4666 
 495   0.0000       4.193148       114.1014 
 496   0.0000       4.194104       114.1274 
 497   0.0000       4.194281       114.1322 
 498   0.0000       4.225622       114.9850 
 499   0.0000       4.225717       114.9876 
 500   0.0000       4.243604       115.4743 
 501   0.0000       4.256614       115.8284 
 502   0.0000       4.256654       115.8294 
 503   0.0000       4.264610       116.0459 
 504   0.0000       4.291018       116.7645 
 505   0.0000       4.291069       116.7659 
 506   0.0000       4.298419       116.9659 
 507   0.0000       4.298565       116.9699 
 508   0.0000       4.346170       118.2653 
 509   0.0000       4.349710       118.3616 
 510   0.0000       4.364831       118.7731 
 511   0.0000       4.364909       118.7752 
 512   0.0000       4.384070       119.2966 
 513   0.0000       4.405442       119.8782 
 514   0.0000       4.405465       119.8788 
 515   0.0000       4.434127       120.6587 
 516   0.0000       4.434193       120.6605 
 517   0.0000       4.468064       121.5822 
 518   0.0000       4.559139       124.0605 
 519   0.0000       4.559159       124.0610 
 520   0.0000       4.612629       125.5160 
 521   0.0000       4.612682       125.5174 
 522   0.0000       4.621279       125.7514 
 523   0.0000       4.748393       129.2104 
 524   0.0000       4.750253       129.2610 
 525   0.0000       4.750298       129.2622 
 526   0.0000       4.819729       131.1515 
 527   0.0000       4.835357       131.5768 
 528   0.0000       4.853208       132.0625 
 529   0.0000       4.853233       132.0632 
 530   0.0000       4.899313       133.3171 
 531   0.0000       4.899490       133.3219 
 532   0.0000       4.903143       133.4213 
 533   0.0000       4.928299       134.1058 
 534   0.0000       4.928434       134.1095 
 535   0.0000       5.036227       137.0427 
 536   0.0000       5.049269       137.3976 
 537   0.0000       5.065333       137.8347 
 538   0.0000       5.065376       137.8359 
 539   0.0000       5.157475       140.3420 
 540   0.0000       5.157564       140.3444 
 541   0.0000       5.157568       140.3446 
 542   0.0000       5.159870       140.4072 
 543   0.0000       5.159884       140.4076 
 544   0.0000       5.160005       140.4109 
 545   0.0000       5.246472       142.7638 
 546   0.0000       5.246784       142.7722 
 547   0.0000       5.255282       143.0035 
 548   0.0000       5.255331       143.0048 
 549   0.0000       5.280825       143.6986 
 550   0.0000       5.300098       144.2230 
 551   0.0000       5.300112       144.2234 
 552   0.0000       5.454414       148.4222 
 553   0.0000       5.502622       149.7340 
 554   0.0000       5.510374       149.9449 
 555   0.0000       5.510434       149.9465 
 556   0.0000       5.517643       150.1427 
 557   0.0000       5.552048       151.0789 
 558   0.0000       5.552066       151.0794 
 559   0.0000       5.568107       151.5159 
 560   0.0000       5.582741       151.9141 
 561   0.0000       5.582766       151.9148 
 562   0.0000       5.587616       152.0468 
 563   0.0000       5.646206       153.6411 
 564   0.0000       5.660398       154.0273 
 565   0.0000       5.660497       154.0300 
 566   0.0000       5.880957       160.0290 
 567   0.0000       5.881016       160.0306 
 568   0.0000       5.905044       160.6844 
 569   0.0000       6.144175       167.1915 
 570   0.0000       6.144216       167.1926 
 571   0.0000       6.347479       172.7237 
 572   0.0000       6.408268       174.3778 
 573   0.0000       6.408285       174.3783 
 574   0.0000       6.441494       175.2820 
 575   0.0000       6.444509       175.3640 
 576   0.0000       6.454910       175.6470 
 577   0.0000       6.454965       175.6485 
 578   0.0000       6.456479       175.6897 
 579   0.0000       6.468197       176.0086 
 580   0.0000       6.468259       176.0103 
 581   0.0000       6.485827       176.4883 
 582   0.0000       6.485925       176.4910 
 583   0.0000       6.507231       177.0708 
 584   0.0000       6.687390       181.9731 
 585   0.0000       6.699114       182.2922 
 586   0.0000       6.699177       182.2939 
 587   0.0000       6.861776       186.7184 
 588   0.0000       6.927932       188.5186 
 589   0.0000       6.927946       188.5190 
 590   0.0000       6.937222       188.7714 
 591   0.0000       6.947083       189.0397 
 592   0.0000       6.961763       189.4392 
 593   0.0000       6.961821       189.4408 
 594   0.0000       7.228348       196.6934 
 595   0.0000       7.239149       196.9873 
 596   0.0000       7.239156       196.9875 
 597   0.0000      23.283049       633.5640 
 598   0.0000      23.313603       634.3954 
 599   0.0000      23.313628       634.3961 
 600   0.0000      23.396879       636.6614 
 601   0.0000      23.397058       636.6663 
 602   0.0000      23.461690       638.4250 
 603   0.0000      23.565137       641.2400 
 604   0.0000      23.565219       641.2422 
 605   0.0000      24.096545       655.7003 
 606   0.0000      25.429875       691.9821 
 607   0.0000      44.198637      1202.7061 
 608   0.0000      44.407746      1208.3962 
 609   0.0000      44.407825      1208.3984 
 610   0.0000      85.964656      2339.2172 

                    ********************************
                    * MULLIKEN POPULATION ANALYSIS *
                    ********************************

-----------------------
MULLIKEN ATOMIC CHARGES
-----------------------
   0 Mo:   -1.300313
   1 O :   -0.319205
   2 C :    0.541340
   3 C :    0.541286
   4 O :   -0.319157
   5 C :    0.540676
   6 O :   -0.319314
   7 C :    0.124572
   8 C :    0.098355
   9 C :    0.126414
  10 C :    0.101039
  11 C :    0.123812
  12 C :    0.102238
  13 H :   -0.003444
  14 H :   -0.010912
  15 H :   -0.002753
  16 H :   -0.011358
  17 H :   -0.003040
  18 H :   -0.010238
Sum of atomic charges:    0.0000000

--------------------------------
MULLIKEN REDUCED ORBITAL CHARGES
--------------------------------
  0 Mos       :     2.670567  s :     2.670567
      pz      :     2.403139  p :     7.393875
      px      :     2.587431
      py      :     2.403305
      dz2     :     1.228922  d :     5.159494
      dxz     :     0.711188
      dyz     :     1.178322
      dx2y2   :     1.329465
      dxy     :     0.711597
      f0      :     0.007318  f :     0.072244
      f+1     :     0.010769
      f-1     :     0.006742
      f+2     :     0.010513
      f-2     :     0.012641
      f+3     :     0.009525
      f-3     :     0.014735
      g0      :     0.000414  g :     0.004133
      g+1     :     0.000387
      g-1     :     0.000191
      g+2     :     0.000331
      g-2     :     0.000636
      g+3     :     0.000343
      g-3     :     0.000753
      g+4     :     0.000522
      g-4     :     0.000556
  1 O s       :     3.967220  s :     3.967220
      pz      :     1.391257  p :     4.296331
      px      :     1.434814
      py      :     1.470260
      dz2     :     0.014845  d :     0.053976
      dxz     :     0.011816
      dyz     :     0.009677
      dx2y2   :     0.009497
      dxy     :     0.008140
      f0      :     0.000320  f :     0.001678
      f+1     :     0.000296
      f-1     :     0.000190
      f+2     :     0.000381
      f-2     :     0.000256
      f+3     :     0.000136
      f-3     :     0.000098
  2 C s       :     3.220683  s :     3.220683
      pz      :     0.738852  p :     2.103336
      px      :     0.682159
      py      :     0.682325
      dz2     :     0.035628  d :     0.117364
      dxz     :     0.017597
      dyz     :     0.022188
      dx2y2   :     0.025549
      dxy     :     0.016401
      f0      :     0.002862  f :     0.017277
      f+1     :     0.003421
      f-1     :     0.002048
      f+2     :     0.003517
      f-2     :     0.003115
      f+3     :     0.001249
      f-3     :     0.001066
  3 C s       :     3.220892  s :     3.220892
      pz      :     0.662190  p :     2.103138
      px      :     0.681713
      py      :     0.759235
      dz2     :     0.009022  d :     0.117408
      dxz     :     0.015606
      dyz     :     0.040547
      dx2y2   :     0.033826
      dxy     :     0.018408
      f0      :     0.002142  f :     0.017277
      f+1     :     0.000985
      f-1     :     0.001611
      f+2     :     0.000492
      f-2     :     0.003159
      f+3     :     0.003629
      f-3     :     0.005258
  4 O s       :     3.967181  s :     3.967181
      pz      :     1.498623  p :     4.296332
      px      :     1.435055
      py      :     1.362654
      dz2     :     0.003936  d :     0.053966
      dxz     :     0.006737
      dyz     :     0.012419
      dx2y2   :     0.017675
      dxy     :     0.013199
      f0      :     0.000246  f :     0.001678
      f+1     :     0.000075
      f-1     :     0.000108
      f+2     :     0.000049
      f-2     :     0.000363
      f+3     :     0.000249
      f-3     :     0.000587
  5 C s       :     3.220946  s :     3.220946
      pz      :     0.731150  p :     2.103704
      px      :     0.682080
      py      :     0.690474
      dz2     :     0.037815  d :     0.117395
      dxz     :     0.017679
      dyz     :     0.017252
      dx2y2   :     0.028346
      dxy     :     0.016303
      f0      :     0.002424  f :     0.017278
      f+1     :     0.003177
      f-1     :     0.002183
      f+2     :     0.003563
      f-2     :     0.003103
      f+3     :     0.001505
      f-3     :     0.001324
  6 O s       :     3.967313  s :     3.967313
      pz      :     1.402458  p :     4.296363
      px      :     1.434837
      py      :     1.459068
      dz2     :     0.014480  d :     0.053960
      dxz     :     0.011358
      dyz     :     0.008942
      dx2y2   :     0.010593
      dxy     :     0.008588
      f0      :     0.000260  f :     0.001678
      f+1     :     0.000297
      f-1     :     0.000208
      f+2     :     0.000398
      f-2     :     0.000228
      f+3     :     0.000163
      f-3     :     0.000123
  7 C s       :     3.320852  s :     3.320852
      pz      :     0.799498  p :     2.438529
      px      :     0.892579
      py      :     0.746453
      dz2     :     0.018895  d :     0.108287
      dxz     :     0.035910
      dyz     :     0.068162
      dx2y2   :    -0.016120
      dxy     :     0.001441
      f0      :     0.001025  f :     0.007760
      f+1     :     0.001398
      f-1     :     0.002258
      f+2     :     0.000797
      f-2     :     0.000608
      f+3     :     0.000900
      f-3     :     0.000774
  8 C s       :     3.345002  s :     3.345002
      pz      :     0.791482  p :     2.444324
      px      :     0.898299
      py      :     0.754544
      dz2     :     0.006319  d :     0.104570
      dxz     :     0.034927
      dyz     :     0.077345
      dx2y2   :    -0.014937
      dxy     :     0.000916
      f0      :     0.000986  f :     0.007749
      f+1     :     0.001402
      f-1     :     0.002256
      f+2     :     0.000848
      f-2     :     0.000523
      f+3     :     0.000970
      f-3     :     0.000764
  9 C s       :     3.320140  s :     3.320140
      pz      :     0.764133  p :     2.437622
      px      :     0.892975
      py      :     0.780514
      dz2     :     0.047799  d :     0.108061
      dxz     :     0.004243
      dyz     :    -0.030632
      dx2y2   :     0.053425
      dxy     :     0.033225
      f0      :     0.001011  f :     0.007763
      f+1     :     0.000329
      f-1     :     0.002001
      f+2     :     0.001026
      f-2     :     0.001231
      f+3     :     0.001348
      f-3     :     0.000817
 10 C s       :     3.343920  s :     3.343920
      pz      :     0.764057  p :     2.442579
      px      :     0.897812
      py      :     0.780711
      dz2     :     0.026037  d :     0.104713
      dxz     :     0.017287
      dyz     :     0.044957
      dx2y2   :    -0.002323
      dxy     :     0.018755
      f0      :     0.001114  f :     0.007749
      f+1     :     0.001218
      f-1     :     0.002224
      f+2     :     0.000785
      f-2     :     0.000715
      f+3     :     0.000962
      f-3     :     0.000732
 11 C s       :     3.322661  s :     3.322661
      pz      :     0.755991  p :     2.437541
      px      :     0.892615
      py      :     0.788935
      dz2     :     0.009948  d :     0.108222
      dxz     :     0.015912
      dyz     :     0.057166
      dx2y2   :     0.003670
      dxy     :     0.021526
      f0      :     0.001071  f :     0.007764
      f+1     :     0.001236
      f-1     :     0.002230
      f+2     :     0.000843
      f-2     :     0.000622
      f+3     :     0.001050
      f-3     :     0.000713
 12 C s       :     3.343129  s :     3.343129
      pz      :     0.763763  p :     2.442231
      px      :     0.897982
      py      :     0.780486
      dz2     :     0.043013  d :     0.104652
      dxz     :     0.001807
      dyz     :    -0.026778
      dx2y2   :     0.052331
      dxy     :     0.034279
      f0      :     0.001006  f :     0.007750
      f+1     :     0.000331
      f-1     :     0.002005
      f+2     :     0.001034
      f-2     :     0.001212
      f+3     :     0.001352
      f-3     :     0.000809
 13 H s       :     0.952992  s :     0.952992
      pz      :     0.002287  p :     0.048757
      px      :     0.028792
      py      :     0.017678
      dz2     :     0.000399  d :     0.001695
      dxz     :     0.000169
      dyz     :     0.000368
      dx2y2   :     0.000277
      dxy     :     0.000482
 14 H s       :     0.957822  s :     0.957822
      pz      :     0.003584  p :     0.051397
      px      :     0.031096
      py      :     0.016717
      dz2     :     0.000455  d :     0.001694
      dxz     :     0.000204
      dyz     :     0.000306
      dx2y2   :     0.000280
      dxy     :     0.000449
 15 H s       :     0.952454  s :     0.952454
      pz      :     0.023978  p :     0.048604
      px      :     0.028887
      py      :    -0.004261
      dz2     :     0.000282  d :     0.001694
      dxz     :     0.000628
      dyz     :     0.000749
      dx2y2   :     0.000013
      dxy     :     0.000022
 16 H s       :     0.958488  s :     0.958488
      pz      :     0.002067  p :     0.051176
      px      :     0.031065
      py      :     0.018044
      dz2     :     0.000399  d :     0.001694
      dxz     :     0.000146
      dyz     :     0.000368
      dx2y2   :     0.000275
      dxy     :     0.000506
 17 H s       :     0.952889  s :     0.952889
      pz      :     0.003477  p :     0.048459
      px      :     0.028780
      py      :     0.016202
      dz2     :     0.000458  d :     0.001692
      dxz     :     0.000179
      dyz     :     0.000307
      dx2y2   :     0.000278
      dxy     :     0.000471
 18 H s       :     0.957400  s :     0.957400
      pz      :     0.024626  p :     0.051143
      px      :     0.031109
      py      :    -0.004592
      dz2     :     0.000282  d :     0.001695
      dxz     :     0.000629
      dyz     :     0.000747
      dx2y2   :     0.000013
      dxy     :     0.000024


                     *******************************
                     * LOEWDIN POPULATION ANALYSIS *
                     *******************************

----------------------
LOEWDIN ATOMIC CHARGES
----------------------
   0 Mo:    0.706691
   1 O :    0.071529
   2 C :   -0.228416
   3 C :   -0.228460
   4 O :    0.071532
   5 C :   -0.228435
   6 O :    0.071517
   7 C :   -0.051307
   8 C :   -0.050111
   9 C :   -0.051362
  10 C :   -0.050147
  11 C :   -0.051350
  12 C :   -0.050130
  13 H :    0.011558
  14 H :    0.011246
  15 H :    0.011567
  16 H :    0.011254
  17 H :    0.011577
  18 H :    0.011248

-------------------------------
LOEWDIN REDUCED ORBITAL CHARGES
-------------------------------
  0 Mos       :     1.823233  s :     1.823233
      pz      :     2.117041  p :     6.359707
      px      :     2.125625
      py      :     2.117041
      dz2     :     1.088505  d :     4.845615
      dxz     :     0.777806
      dyz     :     1.064189
      dx2y2   :     1.137171
      dxy     :     0.777945
      f0      :     0.022416  f :     0.244463
      f+1     :     0.039557
      f-1     :     0.022739
      f+2     :     0.032384
      f-2     :     0.047356
      f+3     :     0.034379
      f-3     :     0.045632
      g0      :     0.002395  g :     0.020291
      g+1     :     0.001464
      g-1     :     0.000733
      g+2     :     0.001455
      g-2     :     0.004550
      g+3     :     0.001337
      g-3     :     0.003507
      g+4     :     0.002559
      g-4     :     0.002292
  1 O s       :     3.408589  s :     3.408589
      pz      :     1.481319  p :     4.311108
      px      :     1.434681
      py      :     1.395108
      dz2     :     0.043880  d :     0.202547
      dxz     :     0.065068
      dyz     :     0.040987
      dx2y2   :     0.023238
      dxy     :     0.029374
      f0      :     0.000787  f :     0.006228
      f+1     :     0.001471
      f-1     :     0.000779
      f+2     :     0.001051
      f-2     :     0.001445
      f+3     :     0.000324
      f-3     :     0.000372
  2 C s       :     2.930614  s :     2.930614
      pz      :     0.863133  p :     2.352599
      px      :     0.779561
      py      :     0.709905
      dz2     :     0.234986  d :     0.861278
      dxz     :     0.195330
      dyz     :     0.173985
      dx2y2   :     0.138480
      dxy     :     0.118498
      f0      :     0.013417  f :     0.083925
      f+1     :     0.017183
      f-1     :     0.010001
      f+2     :     0.016569
      f-2     :     0.016062
      f+3     :     0.005645
      f-3     :     0.005048
  3 C s       :     2.930549  s :     2.930549
      pz      :     0.655171  p :     2.352602
      px      :     0.779050
      py      :     0.918381
      dz2     :     0.084931  d :     0.861380
      dxz     :     0.090925
      dyz     :     0.197274
      dx2y2   :     0.265474
      dxy     :     0.222776
      f0      :     0.009900  f :     0.083929
      f+1     :     0.005036
      f-1     :     0.008417
      f+2     :     0.002289
      f-2     :     0.014724
      f+3     :     0.019083
      f-3     :     0.024480
  4 O s       :     3.408579  s :     3.408579
      pz      :     1.364332  p :     4.311113
      px      :     1.434400
      py      :     1.512381
      dz2     :     0.026601  d :     0.202547
      dxz     :     0.016551
      dyz     :     0.032276
      dx2y2   :     0.049341
      dxy     :     0.077779
      f0      :     0.000585  f :     0.006228
      f+1     :     0.000449
      f-1     :     0.000821
      f+2     :     0.000117
      f-2     :     0.000867
      f+3     :     0.001923
      f-3     :     0.001467
  5 C s       :     2.930629  s :     2.930629
      pz      :     0.841337  p :     2.352619
      px      :     0.779553
      py      :     0.731729
      dz2     :     0.225505  d :     0.861262
      dxz     :     0.184284
      dyz     :     0.168150
      dx2y2   :     0.153792
      dxy     :     0.129530
      f0      :     0.011519  f :     0.083926
      f+1     :     0.015622
      f-1     :     0.010600
      f+2     :     0.016601
      f-2     :     0.016390
      f+3     :     0.006876
      f-3     :     0.006318
  6 O s       :     3.408592  s :     3.408592
      pz      :     1.469043  p :     4.311114
      px      :     1.434679
      py      :     1.407392
      dz2     :     0.039706  d :     0.202549
      dxz     :     0.059995
      dyz     :     0.043209
      dx2y2   :     0.025195
      dxy     :     0.034444
      f0      :     0.000715  f :     0.006228
      f+1     :     0.001236
      f-1     :     0.000809
      f+2     :     0.001003
      f-2     :     0.001590
      f+3     :     0.000414
      f-3     :     0.000461
  7 C s       :     2.641477  s :     2.641477
      pz      :     0.932054  p :     2.586944
      px      :     0.734875
      py      :     0.920014
      dz2     :     0.191412  d :     0.778742
      dxz     :     0.133603
      dyz     :     0.248137
      dx2y2   :     0.112898
      dxy     :     0.092692
      f0      :     0.007577  f :     0.044145
      f+1     :     0.006555
      f-1     :     0.013707
      f+2     :     0.004774
      f-2     :     0.003570
      f+3     :     0.003820
      f-3     :     0.004141
  8 C s       :     2.641486  s :     2.641486
      pz      :     0.931691  p :     2.588005
      px      :     0.736281
      py      :     0.920033
      dz2     :     0.180199  d :     0.776528
      dxz     :     0.127629
      dyz     :     0.258823
      dx2y2   :     0.112272
      dxy     :     0.097605
      f0      :     0.007479  f :     0.044091
      f+1     :     0.006729
      f-1     :     0.013623
      f+2     :     0.004867
      f-2     :     0.002939
      f+3     :     0.004216
      f-3     :     0.004238
  9 C s       :     2.641473  s :     2.641473
      pz      :     0.922553  p :     2.586952
      px      :     0.734890
      py      :     0.929509
      dz2     :     0.208228  d :     0.778789
      dxz     :     0.068916
      dyz     :     0.175009
      dx2y2   :     0.169243
      dxy     :     0.157393
      f0      :     0.005319  f :     0.044147
      f+1     :     0.001053
      f-1     :     0.012786
      f+2     :     0.006986
      f-2     :     0.008009
      f+3     :     0.004886
      f-3     :     0.005108
 10 C s       :     2.641479  s :     2.641479
      pz      :     0.923942  p :     2.587983
      px      :     0.736274
      py      :     0.927767
      dz2     :     0.195268  d :     0.776592
      dxz     :     0.140573
      dyz     :     0.243172
      dx2y2   :     0.112894
      dxy     :     0.084685
      f0      :     0.007503  f :     0.044093
      f+1     :     0.005930
      f-1     :     0.013596
      f+2     :     0.004951
      f-2     :     0.004144
      f+3     :     0.003811
      f-3     :     0.004158
 11 C s       :     2.641471  s :     2.641471
      pz      :     0.923491  p :     2.586919
      px      :     0.734856
      py      :     0.928573
      dz2     :     0.184236  d :     0.778811
      dxz     :     0.136951
      dyz     :     0.254925
      dx2y2   :     0.113323
      dxy     :     0.089376
      f0      :     0.007391  f :     0.044147
      f+1     :     0.006200
      f-1     :     0.013506
      f+2     :     0.005054
      f-2     :     0.003470
      f+3     :     0.004277
      f-3     :     0.004249
 12 C s       :     2.641491  s :     2.641491
      pz      :     0.921950  p :     2.588001
      px      :     0.736266
      py      :     0.929784
      dz2     :     0.207441  d :     0.776547
      dxz     :     0.069665
      dyz     :     0.175702
      dx2y2   :     0.168167
      dxy     :     0.155571
      f0      :     0.005301  f :     0.044091
      f+1     :     0.001086
      f-1     :     0.012794
      f+2     :     0.006999
      f-2     :     0.007913
      f+3     :     0.004884
      f-3     :     0.005114
 13 H s       :     0.697928  s :     0.697928
      pz      :     0.076494  p :     0.261569
      px      :     0.074058
      py      :     0.111017
      dz2     :     0.004974  d :     0.028945
      dxz     :     0.001923
      dyz     :     0.008900
      dx2y2   :     0.006797
      dxy     :     0.006351
 14 H s       :     0.698061  s :     0.698061
      pz      :     0.079833  p :     0.261731
      px      :     0.074339
      py      :     0.107559
      dz2     :     0.005430  d :     0.028962
      dxz     :     0.002388
      dyz     :     0.008921
      dx2y2   :     0.006309
      dxy     :     0.005914
 15 H s       :     0.697918  s :     0.697918
      pz      :     0.124643  p :     0.261570
      px      :     0.074065
      py      :     0.062862
      dz2     :     0.011803  d :     0.028945
      dxz     :     0.008247
      dyz     :     0.008818
      dx2y2   :     0.000050
      dxy     :     0.000027
 16 H s       :     0.698050  s :     0.698050
      pz      :     0.076640  p :     0.261734
      px      :     0.074344
      py      :     0.110751
      dz2     :     0.004930  d :     0.028962
      dxz     :     0.001800
      dyz     :     0.008971
      dx2y2   :     0.006758
      dxy     :     0.006502
 17 H s       :     0.697902  s :     0.697902
      pz      :     0.080128  p :     0.261574
      px      :     0.074063
      py      :     0.107383
      dz2     :     0.005404  d :     0.028946
      dxz     :     0.002242
      dyz     :     0.008991
      dx2y2   :     0.006278
      dxy     :     0.006032
 18 H s       :     0.698063  s :     0.698063
      pz      :     0.124614  p :     0.261728
      px      :     0.074341
      py      :     0.062774
      dz2     :     0.011808  d :     0.028960
      dxz     :     0.008265
      dyz     :     0.008801
      dx2y2   :     0.000051
      dxy     :     0.000036


                      *****************************
                      * MAYER POPULATION ANALYSIS *
                      *****************************

  NA   - Mulliken gross atomic population
  ZA   - Total nuclear charge
  QA   - Mulliken gross atomic charge
  VA   - Mayer's total valence
  BVA  - Mayer's bonded valence
  FA   - Mayer's free valence

  ATOM       NA         ZA         QA         VA         BVA        FA
  0 Mo    15.3003    14.0000    -1.3003     7.6749     7.6749     0.0000
  1 O      8.3192     8.0000    -0.3192     2.0871     2.0871    -0.0000
  2 C      5.4587     6.0000     0.5413     3.4557     3.4557     0.0000
  3 C      5.4587     6.0000     0.5413     3.4552     3.4552     0.0000
  4 O      8.3192     8.0000    -0.3192     2.0868     2.0868    -0.0000
  5 C      5.4593     6.0000     0.5407     3.4552     3.4552     0.0000
  6 O      8.3193     8.0000    -0.3193     2.0873     2.0873    -0.0000
  7 C      5.8754     6.0000     0.1246     3.2154     3.2154    -0.0000
  8 C      5.9016     6.0000     0.0984     3.2503     3.2503     0.0000
  9 C      5.8736     6.0000     0.1264     3.2128     3.2128    -0.0000
 10 C      5.8990     6.0000     0.1010     3.2495     3.2495    -0.0000
 11 C      5.8762     6.0000     0.1238     3.2187     3.2187     0.0000
 12 C      5.8978     6.0000     0.1022     3.2437     3.2437     0.0000
 13 H      1.0034     1.0000    -0.0034     1.0335     1.0335    -0.0000
 14 H      1.0109     1.0000    -0.0109     1.0413     1.0413     0.0000
 15 H      1.0028     1.0000    -0.0028     1.0326     1.0326    -0.0000
 16 H      1.0114     1.0000    -0.0114     1.0410     1.0410    -0.0000
 17 H      1.0030     1.0000    -0.0030     1.0329     1.0329     0.0000
 18 H      1.0102     1.0000    -0.0102     1.0406     1.0406     0.0000

  Mayer bond orders larger than 0.100000
B(  0-Mo,  1-O ) :   0.1073 B(  0-Mo,  2-C ) :   1.4569 B(  0-Mo,  3-C ) :   1.4569 
B(  0-Mo,  4-O ) :   0.1072 B(  0-Mo,  5-C ) :   1.4562 B(  0-Mo,  6-O ) :   0.1073 
B(  0-Mo,  7-C ) :   0.4546 B(  0-Mo,  8-C ) :   0.4656 B(  0-Mo,  9-C ) :   0.4546 
B(  0-Mo, 10-C ) :   0.4642 B(  0-Mo, 11-C ) :   0.4557 B(  0-Mo, 12-C ) :   0.4647 
B(  1-O ,  2-C ) :   1.8879 B(  3-C ,  4-O ) :   1.8876 B(  5-C ,  6-O ) :   1.8880 
B(  7-C ,  8-C ) :   1.0532 B(  7-C ,  9-C ) :  -0.1229 B(  7-C , 11-C ) :  -0.1233 
B(  7-C , 12-C ) :   0.8658 B(  7-C , 13-H ) :   1.0949 B(  8-C ,  9-C ) :   0.8671 
B(  8-C , 10-C ) :  -0.1242 B(  8-C , 12-C ) :  -0.1248 B(  8-C , 14-H ) :   1.1011 
B(  9-C , 10-C ) :   1.0504 B(  9-C , 11-C ) :  -0.1240 B(  9-C , 15-H ) :   1.0954 
B( 10-C , 11-C ) :   0.8709 B( 10-C , 12-C ) :  -0.1247 B( 10-C , 16-H ) :   1.1007 
B( 11-C , 12-C ) :   1.0508 B( 11-C , 17-H ) :   1.0953 B( 12-C , 18-H ) :   1.1006 


-------
TIMINGS
-------

Total SCF time: 0 days 0 hours 2 min 42 sec 

Total time                  ....     162.285 sec
Sum of individual times     ....     161.686 sec  ( 99.6%)

Fock matrix formation       ....     157.333 sec  ( 96.9%)
  XC integration            ....       5.785 sec  (  3.7% of F)
    Basis function eval.    ....       0.489 sec  (  8.4% of XC)
    Density eval.           ....       1.629 sec  ( 28.2% of XC)
    XC-Functional eval.     ....       0.075 sec  (  1.3% of XC)
    XC-Potential eval.      ....       2.972 sec  ( 51.4% of XC)
Diagonalization             ....       1.023 sec  (  0.6%)
Density matrix formation    ....       0.051 sec  (  0.0%)
Population analysis         ....       0.075 sec  (  0.0%)
Initial guess               ....       2.117 sec  (  1.3%)
Orbital Transformation      ....       0.000 sec  (  0.0%)
Orbital Orthonormalization  ....       0.000 sec  (  0.0%)
DIIS solution               ....       0.587 sec  (  0.4%)
Grid generation             ....       0.499 sec  (  0.3%)


-------------------------------------------------------------------------------
                          DFT DISPERSION CORRECTION                            
                                                                               
                              DFTD3 V3.1  Rev 1                                
                          USING Becke-Johnson damping                          
-------------------------------------------------------------------------------
The TPSSH functional is recognized
Active option DFTDOPT                   ...         4   

molecular C6(AA) [au] = 6578.097806 


            DFT-D V3
 parameters
 s6 scaling factor         :     1.0000 
 a1 scaling factor         :     0.4529 
 s8 scaling factor         :     2.2382 
 a2 scaling factor         :     4.6550 
 ad hoc parameters k1-k3   :    16.0000     1.3333    -4.0000 

 Edisp/kcal,au: -20.323374773646  -0.032387355802 
 E6   /kcal   :  -8.611617154 
 E8   /kcal   : -11.711757620 
 % E8         :  57.627031682 

-------------------------   ----------------
Dispersion correction           -0.032387356
-------------------------   ----------------


-------------------------   --------------------
FINAL SINGLE POINT ENERGY      -640.853561420679
-------------------------   --------------------


                            ***************************************
                            *     ORCA property calculations      *
                            ***************************************

                                    ---------------------
                                    Active property flags
                                    ---------------------
   (+) Dipole Moment


------------------------------------------------------------------------------
                       ORCA ELECTRIC PROPERTIES CALCULATION
------------------------------------------------------------------------------

Dipole Moment Calculation                       ... on
Quadrupole Moment Calculation                   ... off
Polarizability Calculation                      ... off
GBWName                                         ... MOR18_ed37.gbw
Electron density file                           ... MOR18_ed37.scfp
The origin for moment calculation is the CENTER OF MASS  = (-0.084412,  0.000010 -0.000007)

-------------
DIPOLE MOMENT
-------------
                                X             Y             Z
Electronic contribution:    -11.07585      -0.00590      -0.00265
Nuclear contribution   :     13.46160       0.00506       0.00283
                        -----------------------------------------
Total Dipole Moment    :      2.38575      -0.00084       0.00018
                        -----------------------------------------
Magnitude (a.u.)       :      2.38575
Magnitude (Debye)      :      6.06410



--------------------
Rotational spectrum 
--------------------
 
Rotational constants in cm-1:     0.028916     0.021584     0.021580 
Rotational constants in MHz :   866.875127   647.065472   646.965216 

 Dipole components along the rotational axes: 
x,y,z [a.u.] :    -2.385752    -0.000884     0.000164 
x,y,z [Debye]:    -6.064100    -0.002247     0.000417 

 

Timings for individual modules:

Sum of individual times         ...      165.219 sec (=   2.754 min)
GTO integral calculation        ...        2.546 sec (=   0.042 min)   1.5 %
SCF iterations                  ...      162.673 sec (=   2.711 min)  98.5 %
                             ****ORCA TERMINATED NORMALLY****
TOTAL RUN TIME: 0 days 0 hours 2 minutes 45 seconds 820 msec
