
                                 *****************
                                 * O   R   C   A *
                                 *****************

           --- An Ab Initio, DFT and Semiempirical electronic structure package ---

                  #######################################################
                  #                        -***-                        #
                  #          Department of theory and spectroscopy      #
                  #               Directorship: Frank Neese             #
                  #        Max Planck Institute fuer Kohlenforschung    #
                  #                Kaiser Wilhelm Platz 1               #
                  #                 D-45470 Muelheim/Ruhr               #
                  #                      Germany                        #
                  #                                                     #
                  #                  All rights reserved                #
                  #                        -***-                        #
                  #######################################################


                         Program Version 4.2.0 -  RELEASE  -


 With contributions from (in alphabetic order):
   Daniel Aravena         : Magnetic Suceptibility
   Michael Atanasov       : Ab Initio Ligand Field Theory (pilot matlab implementation)
   Alexander A. Auer      : GIAO ZORA, VPT2
   Ute Becker             : Parallelization
   Giovanni Bistoni       : ED, misc. LED, open-shell LED, HFLED
   Martin Brehm           : Molecular dynamics
   Dmytro Bykov           : SCF Hessian
   Vijay G. Chilkuri      : MRCI spin determinant printing, contributions to CSF-ICE
   Dipayan Datta          : RHF DLPNO-CCSD density
   Achintya Kumar Dutta   : EOM-CC, STEOM-CC
   Dmitry Ganyushin       : Spin-Orbit,Spin-Spin,Magnetic field MRCI
   Miquel Garcia          : C-PCM Hessian, Gaussian charge scheme
   Yang Guo               : DLPNO-NEVPT2, CIM, IAO-localization
   Andreas Hansen         : Spin unrestricted coupled pair/coupled cluster methods
   Benjamin Helmich-Paris : CASSCF linear response (MC-RPA)
   Lee Huntington         : MR-EOM, pCC
   Robert Izsak           : Overlap fitted RIJCOSX, COSX-SCS-MP3, EOM
   Christian Kollmar      : KDIIS, OOCD, Brueckner-CCSD(T), CCSD density
   Simone Kossmann        : Meta GGA functionals, TD-DFT gradient, OOMP2, MP2 Hessian
   Martin Krupicka        : AUTO-CI
   Lucas Lang             : DCDCAS
   Dagmar Lenk            : GEPOL surface, SMD
   Dimitrios Liakos       : Extrapolation schemes; Compound Job, initial MDCI parallelization
   Dimitrios Manganas     : Further ROCIS development; embedding schemes
   Dimitrios Pantazis     : SARC Basis sets
   Taras Petrenko         : DFT Hessian,TD-DFT gradient, ASA, ECA, R-Raman, ABS, FL, XAS/XES, NRVS
   Peter Pinski           : DLPNO-MP2, DLPNO-MP2 Gradient
   Christoph Reimann      : Effective Core Potentials
   Marius Retegan         : Local ZFS, SOC
   Christoph Riplinger    : Optimizer, TS searches, QM/MM, DLPNO-CCSD(T), (RO)-DLPNO pert. Triples
   Tobias Risthaus        : Range-separated hybrids, TD-DFT gradient, RPA, STAB
   Michael Roemelt        : Original ROCIS implementation
   Masaaki Saitow         : Open-shell DLPNO-CCSD energy and density
   Barbara Sandhoefer     : DKH picture change effects
   Avijit Sen             : IP-ROCIS
   Kantharuban Sivalingam : CASSCF convergence, NEVPT2, FIC-MRCI
   Bernardo de Souza      : ESD, SOC TD-DFT
   Georgi Stoychev        : AutoAux, RI-MP2 NMR
   Willem Van den Heuvel  : Paramagnetic NMR
   Boris Wezisla          : Elementary symmetry handling
   Frank Wennmohs         : Technical directorship


 We gratefully acknowledge several colleagues who have allowed us to
 interface, adapt or use parts of their codes:
   Stefan Grimme, W. Hujo, H. Kruse,             : VdW corrections, initial TS optimization,
                  C. Bannwarth                     DFT functionals, gCP, sTDA/sTD-DF
   Ed Valeev, F. Pavosevic, A. Kumar             : LibInt (2-el integral package), F12 methods
   Garnet Chan, S. Sharma, J. Yang, R. Olivares  : DMRG
   Ulf Ekstrom                                   : XCFun DFT Library
   Mihaly Kallay                                 : mrcc  (arbitrary order and MRCC methods)
   Andreas Klamt, Michael Diedenhofen            : otool_cosmo (COSMO solvation model)
   Jiri Pittner, Ondrej Demel                    : Mk-CCSD
   Frank Weinhold                                : gennbo (NPA and NBO analysis)
   Christopher J. Cramer and Donald G. Truhlar   : smd solvation model
   Lars Goerigk                                  : TD-DFT with DH, B97 family of functionals
   V. Asgeirsson, H. Jonsson                     : NEB implementation
   FAccTs GmbH                                   : IRC, NEB, NEB-TS, Multilevel, MM, QM/MM, CI optimization
   S Lehtola, MJT Oliveira, MAL Marques          : LibXC Library


 Your calculation uses the libint2 library for the computation of 2-el integrals
 For citations please refer to: http://libint.valeyev.net

 Your ORCA version has been built with support for libXC version: 4.2.3
 For citations please refer to: https://tddft.org/programs/libxc/

 This ORCA versions uses:
   CBLAS   interface :  Fast vector & matrix operations
   LAPACKE interface :  Fast linear algebra routines
   SCALAPACK package :  Parallel linear algebra routines


Your calculation utilizes the atom-pairwise dispersion correction
with the Becke-Johnson damping scheme (D3BJ)
Cite in your paper:
S.Grimme, S.Ehrlich, L.Goerigk, J Comput Chem, (2011), 32, 1456–1465 
S.Grimme, J.Antony, S.Ehrlich and H.Krieg, J.Chem.Phys., 132, (2010), 154104 
   

----- Orbital basis set information -----
Your calculation utilizes the basis: def2-TZVPPD
   F. Weigend and R. Ahlrichs, Phys. Chem. Chem. Phys. 7, 3297 (2005).
   D. Rappoport and F. Furche, J. Chem. Phys. 133 134105 (2010).

----- AuxJK basis set information -----
Your calculation utilizes the auxiliary basis: def2/JK
   H-Ba, Hf-Rn: F. Weigend, J. Comput. Chem. 29, 167 (2008).

cite the ECPs for Ru [Def2-ECP] as follows:
Ce-Yb(ecp-28): M. Dolg, H. Stoll, H.Preuss, J. Chem. Phys., 1989, 90, 1730-1734.
Y-Cd(ecp-28), Hf-Hg(ecp-46): D. Andrae,U. Haeussermann, M. Dolg, H. Stoll, H. Preuss, Theor. Chim. Acta, 1990, 77, 123-141.
In-Sb(ecp-28), Tl-Bi(ecp-46): B. Metz, H. Stoll, M. Dolg, J. Chem. Phys., 2000, 113, 2563-2569.
Te-Xe(ecp-28), Po-Rn(ecp-46): K. A. Peterson, D. Figgen, E. Goll, H. Stoll, M. Dolg, J. Chem. Phys., 2003, 119, 11113-11123.
Rb(ecp-28), Cs(ecp-46): T. Leininger, A. Nicklass, W. Kuechle, H. Stoll, M. Dolg, A. Bergner, Chem. Phys. Lett., 1996, 255, 274-280.
Sr(ecp-28), Ba(ecp-46): M. Kaupp, P. V. Schleyer, H. Stoll and H. Preuss, J. Chem. Phys., 1991, 94, 1360-1366.
La(ecp-46): M. Dolg, H. Stoll, A. Savin, H. Preuss, Theor. Chim. Acta, 1989, 75, 173-194.
Lu(ecp-28): X. Cao, M. Dolg, J. Chem. Phys., 2001, 115, 7348-7355.

ECP parameters for Ru [Def2-ECP] have been obtained from:
TURBOMOLE (7.0.2)

================================================================================
                                        WARNINGS
                       Please study these warnings very carefully!
================================================================================


INFO   : the flag for use of LIBINT has been found!

================================================================================
                                       INPUT FILE
================================================================================
NAME = MOR16_ed33.in
|  1> #
|  2> # MOR16_ed33 TPSSh-D3BJ/Def2-TZVPPD
|  3> #
|  4> ! tpssh d3bj def2-tzvppd def2/jk grid4 nofinalgrid
|  5> 
|  6> *xyz 0 1
|  7> Ru      -0.022566   -0.070875   -0.379144 
|  8> P        0.186586   -1.836138    1.061273 
|  9> P       -0.107348    1.786969    0.983128 
| 10> P       -2.337688   -0.031549   -0.574608 
| 11> P        2.258415    0.217420   -0.654771 
| 12> H       -1.011320    0.631023   -2.964588 
| 13> C       -0.084126    0.244754   -2.536818 
| 14> C        0.002235   -1.177677   -2.238071 
| 15> H       -0.861138   -1.806799   -2.436001 
| 16> C       -1.265405   -2.900768    1.510519 
| 17> C        0.882199   -1.676365    2.777543 
| 18> C        1.273276   -3.202818    0.434593 
| 19> C       -0.218657    3.482246    0.220382 
| 20> C       -1.474202    1.984957    2.229068 
| 21> C        1.261931    2.159069    2.186793 
| 22> C       -3.132442   -1.089929   -1.868209 
| 23> C       -3.503325   -0.454941    0.806619 
| 24> C       -3.065826    1.589188   -1.096490 
| 25> C        3.115513   -0.738567   -1.988082 
| 26> C        3.484163   -0.113039    0.695104 
| 27> C        2.817918    1.905477   -1.167131 
| 28> H        0.775994    0.734504   -2.997508 
| 29> H        0.923698   -1.705224   -2.468332 
| 30> H       -1.797994   -3.196368    0.601740 
| 31> H       -1.951513   -2.343187    2.152343 
| 32> H       -0.940552   -3.802999    2.042563 
| 33> H        0.220858   -1.033459    3.367392 
| 34> H        1.866404   -1.203417    2.738274 
| 35> H        0.973380   -2.648584    3.278375 
| 36> H        0.869924   -3.550933   -0.520488 
| 37> H        1.326184   -4.042772    1.138076 
| 38> H        2.284288   -2.829356    0.252702 
| 39> H       -0.255493    4.275719    0.977504 
| 40> H       -1.111307    3.540133   -0.406666 
| 41> H        0.646533    3.642441   -0.427500 
| 42> H       -1.340744    2.904812    2.810047 
| 43> H       -1.464232    1.128616    2.910406 
| 44> H       -2.450699    2.022913    1.741739 
| 45> H        1.024646    3.051958    2.776564 
| 46> H        2.206281    2.332826    1.666415 
| 47> H        1.391528    1.309503    2.862930 
| 48> H       -4.214574   -0.920776   -1.864995 
| 49> H       -2.933677   -2.144929   -1.660324 
| 50> H       -2.737237   -0.849967   -2.858203 
| 51> H       -4.496496   -0.037297    0.606865 
| 52> H       -3.139236   -0.075571    1.761748 
| 53> H       -3.591401   -1.541056    0.877459 
| 54> H       -4.128475    1.484093   -1.343350 
| 55> H       -2.520683    1.955160   -1.969951 
| 56> H       -2.964031    2.325987   -0.296631 
| 57> H        4.171126   -0.449128   -2.023284 
| 58> H        2.657332   -0.533147   -2.958558 
| 59> H        3.043678   -1.811163   -1.790971 
| 60> H        4.490887    0.184953    0.381316 
| 61> H        3.492626   -1.181661    0.925550 
| 62> H        3.218142    0.429172    1.603169 
| 63> H        3.886252    1.913189   -1.411457 
| 64> H        2.634640    2.627880   -0.369051 
| 65> H        2.240286    2.211368   -2.043241 
| 66> *
| 67> 
| 68> %maxcore 5000
| 69> 
| 70> %pal
| 71> nprocs = 24
| 72> end
| 73> 
| 74> 
| 75>                          ****END OF INPUT****
================================================================================

                       ****************************
                       * Single Point Calculation *
                       ****************************

---------------------------------
CARTESIAN COORDINATES (ANGSTROEM)
---------------------------------
  Ru    -0.022566   -0.070875   -0.379144
  P      0.186586   -1.836138    1.061273
  P     -0.107348    1.786969    0.983128
  P     -2.337688   -0.031549   -0.574608
  P      2.258415    0.217420   -0.654771
  H     -1.011320    0.631023   -2.964588
  C     -0.084126    0.244754   -2.536818
  C      0.002235   -1.177677   -2.238071
  H     -0.861138   -1.806799   -2.436001
  C     -1.265405   -2.900768    1.510519
  C      0.882199   -1.676365    2.777543
  C      1.273276   -3.202818    0.434593
  C     -0.218657    3.482246    0.220382
  C     -1.474202    1.984957    2.229068
  C      1.261931    2.159069    2.186793
  C     -3.132442   -1.089929   -1.868209
  C     -3.503325   -0.454941    0.806619
  C     -3.065826    1.589188   -1.096490
  C      3.115513   -0.738567   -1.988082
  C      3.484163   -0.113039    0.695104
  C      2.817918    1.905477   -1.167131
  H      0.775994    0.734504   -2.997508
  H      0.923698   -1.705224   -2.468332
  H     -1.797994   -3.196368    0.601740
  H     -1.951513   -2.343187    2.152343
  H     -0.940552   -3.802999    2.042563
  H      0.220858   -1.033459    3.367392
  H      1.866404   -1.203417    2.738274
  H      0.973380   -2.648584    3.278375
  H      0.869924   -3.550933   -0.520488
  H      1.326184   -4.042772    1.138076
  H      2.284288   -2.829356    0.252702
  H     -0.255493    4.275719    0.977504
  H     -1.111307    3.540133   -0.406666
  H      0.646533    3.642441   -0.427500
  H     -1.340744    2.904812    2.810047
  H     -1.464232    1.128616    2.910406
  H     -2.450699    2.022913    1.741739
  H      1.024646    3.051958    2.776564
  H      2.206281    2.332826    1.666415
  H      1.391528    1.309503    2.862930
  H     -4.214574   -0.920776   -1.864995
  H     -2.933677   -2.144929   -1.660324
  H     -2.737237   -0.849967   -2.858203
  H     -4.496496   -0.037297    0.606865
  H     -3.139236   -0.075571    1.761748
  H     -3.591401   -1.541056    0.877459
  H     -4.128475    1.484093   -1.343350
  H     -2.520683    1.955160   -1.969951
  H     -2.964031    2.325987   -0.296631
  H      4.171126   -0.449128   -2.023284
  H      2.657332   -0.533147   -2.958558
  H      3.043678   -1.811163   -1.790971
  H      4.490887    0.184953    0.381316
  H      3.492626   -1.181661    0.925550
  H      3.218142    0.429172    1.603169
  H      3.886252    1.913189   -1.411457
  H      2.634640    2.627880   -0.369051
  H      2.240286    2.211368   -2.043241

----------------------------
CARTESIAN COORDINATES (A.U.)
----------------------------
  NO LB      ZA    FRAG     MASS         X           Y           Z
   0 Ru   16.0000*   0   101.070   -0.042644   -0.133934   -0.716478
   1 P    15.0000    0    30.974    0.352596   -3.469798    2.005515
   2 P    15.0000    0    30.974   -0.202858    3.376882    1.857843
   3 P    15.0000    0    30.974   -4.417590   -0.059619   -1.085852
   4 P    15.0000    0    30.974    4.267786    0.410864   -1.237338
   5 H     1.0000    0     1.008   -1.911118    1.192461   -5.602259
   6 C     6.0000    0    12.011   -0.158975    0.462518   -4.793891
   7 C     6.0000    0    12.011    0.004224   -2.225487   -4.229341
   8 H     1.0000    0     1.008   -1.627315   -3.414355   -4.603375
   9 C     6.0000    0    12.011   -2.391269   -5.481657    2.854467
  10 C     6.0000    0    12.011    1.667115   -3.167871    5.248796
  11 C     6.0000    0    12.011    2.406143   -6.052449    0.821262
  12 C     6.0000    0    12.011   -0.413202    6.580491    0.416462
  13 C     6.0000    0    12.011   -2.785838    3.751025    4.212328
  14 C     6.0000    0    12.011    2.384704    4.080049    4.132440
  15 C     6.0000    0    12.011   -5.919458   -2.059667   -3.530403
  16 C     6.0000    0    12.011   -6.620325   -0.859714    1.524289
  17 C     6.0000    0    12.011   -5.793572    3.003130   -2.072066
  18 C     6.0000    0    12.011    5.887466   -1.395689   -3.756931
  19 C     6.0000    0    12.011    6.584114   -0.213613    1.313556
  20 C     6.0000    0    12.011    5.325093    3.600830   -2.205558
  21 H     1.0000    0     1.008    1.466416    1.388011   -5.664469
  22 H     1.0000    0     1.008    1.745536   -3.222406   -4.664471
  23 H     1.0000    0     1.008   -3.397716   -6.040260    1.137124
  24 H     1.0000    0     1.008   -3.687825   -4.427982    4.067339
  25 H     1.0000    0     1.008   -1.777386   -7.186627    3.859885
  26 H     1.0000    0     1.008    0.417361   -1.952954    6.363449
  27 H     1.0000    0     1.008    3.526992   -2.274129    5.174588
  28 H     1.0000    0     1.008    1.839422   -5.005098    6.195231
  29 H     1.0000    0     1.008    1.643918   -6.710291   -0.983580
  30 H     1.0000    0     1.008    2.506125   -7.639732    2.150652
  31 H     1.0000    0     1.008    4.316679   -5.346708    0.477538
  32 H     1.0000    0     1.008   -0.482812    8.079938    1.847215
  33 H     1.0000    0     1.008   -2.100066    6.689882   -0.768487
  34 H     1.0000    0     1.008    1.221770    6.883216   -0.807858
  35 H     1.0000    0     1.008   -2.533639    5.489299    5.310219
  36 H     1.0000    0     1.008   -2.766997    2.132775    5.499870
  37 H     1.0000    0     1.008   -4.631150    3.822752    3.291410
  38 H     1.0000    0     1.008    1.936300    5.767365    5.246946
  39 H     1.0000    0     1.008    4.169267    4.408402    3.149068
  40 H     1.0000    0     1.008    2.629607    2.474602    5.410154
  41 H     1.0000    0     1.008   -7.964391   -1.740014   -3.524330
  42 H     1.0000    0     1.008   -5.543846   -4.053328   -3.137558
  43 H     1.0000    0     1.008   -5.172628   -1.606205   -5.401221
  44 H     1.0000    0     1.008   -8.497146   -0.070481    1.146809
  45 H     1.0000    0     1.008   -5.932296   -0.142808    3.329221
  46 H     1.0000    0     1.008   -6.786764   -2.912174    1.658157
  47 H     1.0000    0     1.008   -7.801687    2.804529   -2.538564
  48 H     1.0000    0     1.008   -4.763401    3.694717   -3.722668
  49 H     1.0000    0     1.008   -5.601207    4.395478   -0.560551
  50 H     1.0000    0     1.008    7.882286   -0.848729   -3.823453
  51 H     1.0000    0     1.008    5.021630   -1.007502   -5.590864
  52 H     1.0000    0     1.008    5.751718   -3.422602   -3.384445
  53 H     1.0000    0     1.008    8.486547    0.349511    0.720583
  54 H     1.0000    0     1.008    6.600107   -2.233016    1.749036
  55 H     1.0000    0     1.008    6.081407    0.811018    3.029550
  56 H     1.0000    0     1.008    7.343952    3.615403   -2.667267
  57 H     1.0000    0     1.008    4.978748    4.965974   -0.697405
  58 H     1.0000    0     1.008    4.233527    4.178880   -3.861166
* core charge reduced due to ECP

--------------------------------
INTERNAL COORDINATES (ANGSTROEM)
--------------------------------
 Ru     0   0   0     0.000000000000     0.00000000     0.00000000
 P      1   0   0     2.287946492417     0.00000000     0.00000000
 P      1   2   0     2.305332366025   104.66221715     0.00000000
 P      1   2   3     2.323691585485    99.03821114   267.64910282
 P      1   2   3     2.315590329163    94.64310639    91.58788700
 H      4   1   2     2.812518111410    66.77219588   215.85148878
 C      6   4   1     1.091732397109    89.09509686    14.05285889
 C      7   6   4     1.456028139182   118.45166050    65.18146657
 H      8   7   6     1.086454652948   118.76279273   359.12854362
 C      2   1   3     1.855676930259   121.56966668   101.05127520
 C      2   1   3     1.858759685973   123.31191601   336.27367032
 C      2   1   3     1.855111102037   114.15971027   216.31260982
 C      3   1   2     1.862293011512   119.58981369   177.87271318
 C      3   1   2     1.860068705468   120.57231068   298.79007113
 C      3   1   2     1.860696864636   121.08830426    57.02354521
 C      4   1   2     1.850731123669   118.48708852   272.43317714
 C      4   1   2     1.856275417863   123.99891458    34.48583546
 C      4   1   2     1.851846157794   115.48427429   157.06752685
 C      5   1   2     1.851012249688   118.52621553    88.29994823
 C      5   1   2     1.853057966122   122.86591652   326.80935909
 C      5   1   2     1.850700627292   116.37949423   204.20408868
 H      7   6   4     1.091740240625   110.18446279   206.30986443
 H      8   7   6     1.086471364417   118.76222650   138.78830192
 H     10   2   1     1.094033671219   109.56192786    48.27850866
 H     10   2   1     1.092510323155   109.92629705   288.92239690
 H     10   2   1     1.096640810341   110.95761752   168.63292311
 H     11   2   1     1.094815914169   108.77654055    64.07788022
 H     11   2   1     1.092648775723   109.94479240   305.98543004
 H     11   2   1     1.097431752295   112.10635847   184.61353311
 H     12   2   1     1.093643728867   108.26835033   302.55461886
 H     12   2   1     1.096909435582   112.06990652   181.65620960
 H     12   2   1     1.093024915301   110.26281537    60.18487629
 H     13   3   1     1.097355920159   112.18819537   179.79776864
 H     13   3   1     1.092412065831   109.40080909    58.34398803
 H     13   3   1     1.092688089095   109.20680857   301.06925015
 H     14   3   1     1.096120822369   110.78660029   178.13868869
 H     14   3   1     1.094367753283   109.08954505    58.14749529
 H     14   3   1     1.092005770674   111.21594720   298.81671335
 H     15   3   1     1.096076990903   110.58955305   182.62491617
 H     15   3   1     1.092145448387   111.09409872    62.33413873
 H     15   3   1     1.093489375135   109.38032637   302.70084398
 H     16   4   1     1.095277468329   109.50584872   182.84097644
 H     16   4   1     1.093502948533   109.92553676    62.93543265
 H     16   4   1     1.092637576466   110.63356976   303.04304154
 H     17   4   1     1.095772242071   110.27771346   160.05305866
 H     17   4   1     1.090299868597   111.27110989    38.64934340
 H     17   4   1     1.091980531237   109.01288838   279.10978301
 H     18   4   1     1.095996220717   111.14842560   169.60559577
 H     18   4   1     1.092726184254   108.79773815    48.80950863
 H     18   4   1     1.092249700530   110.32613730   290.21462294
 H     19   5   1     1.095140594305   109.45002270   176.85385125
 H     19   5   1     1.092680589988   110.39552029    56.84759766
 H     19   5   1     1.092920487850   110.27445229   296.97813596
 H     20   5   1     1.095789830754   110.52480609   185.75234481
 H     20   5   1     1.093219996235   109.45069931    66.17912131
 H     20   5   1     1.090569569164   110.88765660   306.88193938
 H     21   5   1     1.095943522621   111.27477852   188.12674655
 H     21   5   1     1.091965478435   110.50829576    67.16554938
 H     21   5   1     1.093067593246   108.50507036   308.71303669

---------------------------
INTERNAL COORDINATES (A.U.)
---------------------------
 Ru     0   0   0     0.000000000000     0.00000000     0.00000000
 P      1   0   0     4.323592279733     0.00000000     0.00000000
 P      1   2   0     4.356446819453   104.66221715     0.00000000
 P      1   2   3     4.391140716265    99.03821114   267.64910282
 P      1   2   3     4.375831560475    94.64310639    91.58788700
 H      4   1   2     5.314888977258    66.77219588   215.85148878
 C      6   4   1     2.063075242065    89.09509686    14.05285889
 C      7   6   4     2.751494426338   118.45166050    65.18146657
 H      8   7   6     2.053101750997   118.76279273   359.12854362
 C      2   1   3     3.506721191226   121.56966668   101.05127520
 C      2   1   3     3.512546755262   123.31191601   336.27367032
 C      2   1   3     3.505651930846   114.15971027   216.31260982
 C      3   1   2     3.519223772873   119.58981369   177.87271318
 C      3   1   2     3.515020443611   120.57231068   298.79007113
 C      3   1   2     3.516207492408   121.08830426    57.02354521
 C      4   1   2     3.497374971259   118.48708852   272.43317714
 C      4   1   2     3.507852168891   123.99891458    34.48583546
 C      4   1   2     3.499482080385   115.48427429   157.06752685
 C      5   1   2     3.497906222443   118.52621553    88.29994823
 C      5   1   2     3.501772066253   122.86591652   326.80935909
 C      5   1   2     3.497317341458   116.37949423   204.20408868
 H      7   6   4     2.063090064163   110.18446279   206.30986443
 H      8   7   6     2.053133331097   118.76222650   138.78830192
 H     10   2   1     2.067424019893   109.56192786    48.27850866
 H     10   2   1     2.064545309245   109.92629705   288.92239690
 H     10   2   1     2.072350798827   110.95761752   168.63292311
 H     11   2   1     2.068902244838   108.77654055    64.07788022
 H     11   2   1     2.064806946682   109.94479240   305.98543004
 H     11   2   1     2.073845462507   112.10635847   184.61353311
 H     12   2   1     2.066687135639   108.26835033   302.55461886
 H     12   2   1     2.072858426964   112.06990652   181.65620960
 H     12   2   1     2.065517747472   110.26281537    60.18487629
 H     13   3   1     2.073702160539   112.18819537   179.79776864
 H     13   3   1     2.064359629812   109.40080909    58.34398803
 H     13   3   1     2.064881238186   109.20680857   301.06925015
 H     14   3   1     2.071368163965   110.78660029   178.13868869
 H     14   3   1     2.068055343499   109.08954505    58.14749529
 H     14   3   1     2.063591843236   111.21594720   298.81671335
 H     15   3   1     2.071285334499   110.58955305   182.62491617
 H     15   3   1     2.063855795861   111.09409872    62.33413873
 H     15   3   1     2.066395449359   109.38032637   302.70084398
 H     16   4   1     2.069774455796   109.50584872   182.84097644
 H     16   4   1     2.066421099362   109.92553676    62.93543265
 H     16   4   1     2.064785783152   110.63356976   303.04304154
 H     17   4   1     2.070709442667   110.27771346   160.05305866
 H     17   4   1     2.060368155498   111.27110989    38.64934340
 H     17   4   1     2.063544147612   109.01288838   279.10978301
 H     18   4   1     2.071132700968   111.14842560   169.60559577
 H     18   4   1     2.064953227605   108.79773815    48.80950863
 H     18   4   1     2.064052803858   110.32613730   290.21462294
 H     19   5   1     2.069515801376   109.45002270   176.85385125
 H     19   5   1     2.064867066929   110.39552029    56.84759766
 H     19   5   1     2.065320408188   110.27445229   296.97813596
 H     20   5   1     2.070742680461   110.52480609   185.75234481
 H     20   5   1     2.065886397011   109.45069931    66.17912131
 H     20   5   1     2.060877815709   110.88765660   306.88193938
 H     21   5   1     2.071033116000   111.27477852   188.12674655
 H     21   5   1     2.063515701938   110.50829576    67.16554938
 H     21   5   1     2.065598397100   108.50507036   308.71303669

---------------------
BASIS SET INFORMATION
---------------------
There are 4 groups of distinct atoms

 Group   1 Type Ru  : 7s7p5d2f1g contracted to 6s4p3d2f1g pattern {211111/4111/311/11/1}
 Group   2 Type P   : 15s9p4d1f contracted to 6s5p4d1f pattern {732111/51111/1111/1}
 Group   3 Type H   : 5s3p1d contracted to 3s3p1d pattern {311/111/1}
 Group   4 Type C   : 12s6p3d1f contracted to 6s3p3d1f pattern {621111/411/111/1}

Atom   0Ru   basis set group =>   1
Atom   1P    basis set group =>   2
Atom   2P    basis set group =>   2
Atom   3P    basis set group =>   2
Atom   4P    basis set group =>   2
Atom   5H    basis set group =>   3
Atom   6C    basis set group =>   4
Atom   7C    basis set group =>   4
Atom   8H    basis set group =>   3
Atom   9C    basis set group =>   4
Atom  10C    basis set group =>   4
Atom  11C    basis set group =>   4
Atom  12C    basis set group =>   4
Atom  13C    basis set group =>   4
Atom  14C    basis set group =>   4
Atom  15C    basis set group =>   4
Atom  16C    basis set group =>   4
Atom  17C    basis set group =>   4
Atom  18C    basis set group =>   4
Atom  19C    basis set group =>   4
Atom  20C    basis set group =>   4
Atom  21H    basis set group =>   3
Atom  22H    basis set group =>   3
Atom  23H    basis set group =>   3
Atom  24H    basis set group =>   3
Atom  25H    basis set group =>   3
Atom  26H    basis set group =>   3
Atom  27H    basis set group =>   3
Atom  28H    basis set group =>   3
Atom  29H    basis set group =>   3
Atom  30H    basis set group =>   3
Atom  31H    basis set group =>   3
Atom  32H    basis set group =>   3
Atom  33H    basis set group =>   3
Atom  34H    basis set group =>   3
Atom  35H    basis set group =>   3
Atom  36H    basis set group =>   3
Atom  37H    basis set group =>   3
Atom  38H    basis set group =>   3
Atom  39H    basis set group =>   3
Atom  40H    basis set group =>   3
Atom  41H    basis set group =>   3
Atom  42H    basis set group =>   3
Atom  43H    basis set group =>   3
Atom  44H    basis set group =>   3
Atom  45H    basis set group =>   3
Atom  46H    basis set group =>   3
Atom  47H    basis set group =>   3
Atom  48H    basis set group =>   3
Atom  49H    basis set group =>   3
Atom  50H    basis set group =>   3
Atom  51H    basis set group =>   3
Atom  52H    basis set group =>   3
Atom  53H    basis set group =>   3
Atom  54H    basis set group =>   3
Atom  55H    basis set group =>   3
Atom  56H    basis set group =>   3
Atom  57H    basis set group =>   3
Atom  58H    basis set group =>   3
----------------------------------
AUXILIARY/JK BASIS SET INFORMATION
----------------------------------
There are 4 groups of distinct atoms

 Group   1 Type Ru  : 13s12p10d9f6g3h2i contracted to 11s10p9d8f6g3h2i pattern {31111111111/3111111111/211111111/21111111/111111/111/11}
 Group   2 Type P   : 16s12p10d4f1g contracted to 13s11p9d4f1g pattern {4111111111111/21111111111/211111111/1111/1}
 Group   3 Type H   : 4s2p2d contracted to 2s2p2d pattern {31/11/11}
 Group   4 Type C   : 14s10p6d2f1g contracted to 10s8p5d1f1g pattern {5111111111/31111111/21111/2/1}

Atom   0Ru   basis set group =>   1
Atom   1P    basis set group =>   2
Atom   2P    basis set group =>   2
Atom   3P    basis set group =>   2
Atom   4P    basis set group =>   2
Atom   5H    basis set group =>   3
Atom   6C    basis set group =>   4
Atom   7C    basis set group =>   4
Atom   8H    basis set group =>   3
Atom   9C    basis set group =>   4
Atom  10C    basis set group =>   4
Atom  11C    basis set group =>   4
Atom  12C    basis set group =>   4
Atom  13C    basis set group =>   4
Atom  14C    basis set group =>   4
Atom  15C    basis set group =>   4
Atom  16C    basis set group =>   4
Atom  17C    basis set group =>   4
Atom  18C    basis set group =>   4
Atom  19C    basis set group =>   4
Atom  20C    basis set group =>   4
Atom  21H    basis set group =>   3
Atom  22H    basis set group =>   3
Atom  23H    basis set group =>   3
Atom  24H    basis set group =>   3
Atom  25H    basis set group =>   3
Atom  26H    basis set group =>   3
Atom  27H    basis set group =>   3
Atom  28H    basis set group =>   3
Atom  29H    basis set group =>   3
Atom  30H    basis set group =>   3
Atom  31H    basis set group =>   3
Atom  32H    basis set group =>   3
Atom  33H    basis set group =>   3
Atom  34H    basis set group =>   3
Atom  35H    basis set group =>   3
Atom  36H    basis set group =>   3
Atom  37H    basis set group =>   3
Atom  38H    basis set group =>   3
Atom  39H    basis set group =>   3
Atom  40H    basis set group =>   3
Atom  41H    basis set group =>   3
Atom  42H    basis set group =>   3
Atom  43H    basis set group =>   3
Atom  44H    basis set group =>   3
Atom  45H    basis set group =>   3
Atom  46H    basis set group =>   3
Atom  47H    basis set group =>   3
Atom  48H    basis set group =>   3
Atom  49H    basis set group =>   3
Atom  50H    basis set group =>   3
Atom  51H    basis set group =>   3
Atom  52H    basis set group =>   3
Atom  53H    basis set group =>   3
Atom  54H    basis set group =>   3
Atom  55H    basis set group =>   3
Atom  56H    basis set group =>   3
Atom  57H    basis set group =>   3
Atom  58H    basis set group =>   3
-------------------------
ECP PARAMETER INFORMATION
-------------------------

 Group 1, Type Ru ECP Def2-ECP (replacing 28 core electrons, lmax=3)

Atom   0Ru   ECP group =>   1



           ************************************************************
           *        Program running with 24 parallel MPI-processes    *
           *              working on a common directory               *
           ************************************************************
------------------------------------------------------------------------------
                           ORCA GTO INTEGRAL CALCULATION
------------------------------------------------------------------------------

                         BASIS SET STATISTICS AND STARTUP INFO

 # of primitive gaussian shells          ...  806
 # of primitive gaussian functions       ... 1840
 # of contracted shells                  ...  542
 # of contracted basis functions         ... 1446
 Highest angular momentum                ...    4
 Maximum contraction depth               ...    7
 Integral package used                   ... LIBINT
 Integral threshhold            Thresh   ...  1.000e-10
 Primitive cut-off              TCut     ...  1.000e-11


------------------------------ INTEGRAL EVALUATION ----------------------------


 * One electron integrals 

   ECP integrals                         ... done
 Pre-screening matrix                    ... done
 Shell pair data                         ... done (   0.035 sec)



           ************************************************************
           *        Program running with 24 parallel MPI-processes    *
           *              working on a common directory               *
           ************************************************************
-------------------------------------------------------------------------------
                                 ORCA SCF
-------------------------------------------------------------------------------

------------
SCF SETTINGS
------------
Hamiltonian:
 Density Functional     Method          .... DFT(GTOs)
 Exchange Functional    Exchange        .... TPSS
 Correlation Functional Correlation     .... TPSS
 LDA part of GGA corr.  LDAOpt          .... PW91-LDA
 Gradients option       PostSCFGGA      .... off
 Hybrid DFT is turned on
   Fraction HF Exchange ScalHFX         ....  0.100000
   Scaling of DF-GGA-X  ScalDFX         ....  0.900000
   Scaling of DF-GGA-C  ScalDFC         ....  1.000000
   Scaling of DF-LDA-C  ScalLDAC        ....  1.000000
   Perturbative correction              ....  0.000000
   Density functional embedding theory  .... OFF
   NL short-range parameter             ....  5.200000


General Settings:
 Integral files         IntName         .... MOR16_ed33
 Hartree-Fock type      HFTyp           .... RHF
 Total Charge           Charge          ....    0
 Multiplicity           Mult            ....    1
 Number of Electrons    NEL             ....  200
 Basis Dimension        Dim             .... 1446
 Nuclear Repulsion      ENuc            ....   2806.8724721201 Eh

Convergence Acceleration:
 DIIS                   CNVDIIS         .... on
   Start iteration      DIISMaxIt       ....    12
   Startup error        DIISStart       ....  0.200000
   # of expansion vecs  DIISMaxEq       ....     5
   Bias factor          DIISBfac        ....   1.050
   Max. coefficient     DIISMaxC        ....  10.000
 Newton-Raphson         CNVNR           .... off
 SOSCF                  CNVSOSCF        .... off
 Level Shifting         CNVShift        .... on
   Level shift para.    LevelShift      ....    0.2500
   Turn off err/grad.   ShiftErr        ....    0.0010
 Zerner damping         CNVZerner       .... off
 Static damping         CNVDamp         .... on
   Fraction old density DampFac         ....    0.7000
   Max. Damping (<1)    DampMax         ....    0.9800
   Min. Damping (>=0)   DampMin         ....    0.0000
   Turn off err/grad.   DampErr         ....    0.1000
 Fernandez-Rico         CNVRico         .... off

SCF Procedure:
 Maximum # iterations   MaxIter         ....   125
 SCF integral mode      SCFMode         .... Direct
   Integral package                     .... LIBINT
 Reset frequency        DirectResetFreq ....    20
 Integral Threshold     Thresh          ....  1.000e-10 Eh
 Primitive CutOff       TCut            ....  1.000e-11 Eh

Convergence Tolerance:
 Convergence Check Mode ConvCheckMode   .... Total+1el-Energy
 Convergence forced     ConvForced      .... 0
 Energy Change          TolE            ....  1.000e-06 Eh
 1-El. energy change                    ....  1.000e-03 Eh
 DIIS Error             TolErr          ....  1.000e-06


Diagonalization of the overlap matrix:
Smallest eigenvalue                        ... 7.337e-07
Time for diagonalization                   ...    0.320 sec
Threshold for overlap eigenvalues          ... 1.000e-08
Number of eigenvalues below threshold      ... 0
Time for construction of square roots      ...    0.275 sec
Total time needed                          ...    0.601 sec

-------------------
DFT GRID GENERATION
-------------------

General Integration Accuracy     IntAcc      ...  4.670
Radial Grid Type                 RadialGrid  ... Gauss-Chebyshev
Angular Grid (max. acc.)         AngularGrid ... Lebedev-302
Angular grid pruning method      GridPruning ... 3 (G Style)
Weight generation scheme         WeightScheme... Becke
Basis function cutoff            BFCut       ...    1.0000e-10
Integration weight cutoff        WCut        ...    1.0000e-14
Grids for H and He will be reduced by one unit

# of grid points (after initial pruning)     ... 260626 (   0.0 sec)
# of grid points (after weights+screening)   ... 219551 (   0.3 sec)
nearest neighbour list constructed           ...    0.0 sec
Grid point re-assignment to atoms done       ...    0.0 sec
Grid point division into batches done        ...    0.6 sec
Reduced shell lists constructed in    1.0 sec

Total number of grid points                  ...   219551
Total number of batches                      ...     3458
Average number of points per batch           ...       63
Average number of grid points per atom       ...     3721
Average number of shells per batch           ...   329.74 (60.84%)
Average number of basis functions per batch  ...   857.84 (59.32%)
Average number of large shells per batch     ...   241.73 (73.31%)
Average number of large basis fcns per batch ...   633.62 (73.86%)
Maximum spatial batch extension              ...   2.76,  2.45,  3.92 au
Average spatial batch extension              ...   0.04,  0.05,  0.05 au

Time for grid setup =    1.359 sec

------------------------------
INITIAL GUESS: MODEL POTENTIAL
------------------------------
Loading Hartree-Fock densities                     ... done
  calling /sw/apps/orca/orca_4_2_0_linux_x86-64_openmpi314/orca MOR16_ed33_atom44.inp > MOR16_ed33_atom44.out in order to generate an atomic fitting density for atom 0 (Ru with ECP) on-the-fly... 
    atom 0 (Ru), assumed electronic state with S=5: 1s2 2s2 2p6 3s2 3p6 4s2 3d10 4p6 5s2 4d6           ... done
Calculating cut-offs                               ... done
Setting up the integral package                    ... done
Initializing the effective Hamiltonian             ... done
Starting the Coulomb interaction                   ... done (   0.4 sec)
Reading the grid                                   ... done
Mapping shells                                     ... done
Starting the XC term evaluation                    ... done (   1.3 sec)
  promolecular density results
     # of electrons  =    227.979369328
     EX              =   -302.385616891
     EC              =     -8.696261774
     EX+EC           =   -311.081878665
Transforming the Hamiltonian                       ... done (   0.2 sec)
Diagonalizing the Hamiltonian                      ... done (   0.3 sec)
Back transforming the eigenvectors                 ... done (   0.1 sec)
Now organizing SCF variables                       ... done
                      ------------------
                      INITIAL GUESS DONE (   5.0 sec)
                      ------------------
--------------
SCF ITERATIONS
--------------
ITER       Energy         Delta-E        Max-DP      RMS-DP      [F,P]     Damp
               ***  Starting incremental Fock matrix formation  ***
  0  -2017.5275382032   0.000000000000 0.23394064  0.00146582  0.4332020 0.7000
  1  -2017.9580476213  -0.430509418151 0.19085184  0.00120765  0.3022728 0.7000
  2  -2018.1211066991  -0.163059077752 0.20890879  0.00089311  0.2101232 0.7000
                               ***Turning on DIIS***
  3  -2018.2084887045  -0.087382005447 0.17182155  0.00064756  0.1466204 0.7000
  4  -2018.2714010838  -0.062912379330 0.14256782  0.00044590  0.1027074 0.7000
  5  -2018.3164970227  -0.045095938870 0.20273660  0.00098528  0.0721086 0.0000
  6  -2018.4214543628  -0.104957340062 0.16227757  0.00019273  0.0031561 0.0000
  7  -2018.4215456855  -0.000091322745 0.26734071  0.00027108  0.0016350 0.0000
  8  -2018.4215591917  -0.000013506227 0.10277247  0.00011348  0.0012993 0.0000
  9  -2018.4215607322  -0.000001540512 0.04679193  0.00005727  0.0010750 0.0000
 10  -2018.4215635462  -0.000002813994 0.22140974  0.00024641  0.0002002 0.0000
                 **** Energy Check signals convergence ****

               *****************************************************
               *                     SUCCESS                       *
               *           SCF CONVERGED AFTER  11 CYCLES          *
               *****************************************************


----------------
TOTAL SCF ENERGY
----------------

Total Energy       :        -2018.42156380 Eh          -54924.04304 eV

Components:
Nuclear Repulsion  :         2806.87247212 Eh           76378.88299 eV
Electronic Energy  :        -4825.29403592 Eh         -131302.92603 eV
One Electron Energy:        -8400.07927801 Eh         -228577.77782 eV
Two Electron Energy:         3574.78524209 Eh           97274.85180 eV

Virial components:
Potential Energy   :        -3969.61304726 Eh         -108018.66258 eV
Kinetic Energy     :         1951.19148346 Eh           53094.61954 eV
Virial Ratio       :            2.03445591


DFT components:
N(Alpha)           :       99.999487091052 electrons
N(Beta)            :       99.999487091052 electrons
N(Total)           :      199.998974182103 electrons
E(X)               :     -168.892919024181 Eh       
E(C)               :       -7.049487538372 Eh       
E(XC)              :     -175.942406562553 Eh       
DFET-embed. en.    :        0.000000000000 Eh       

---------------
SCF CONVERGENCE
---------------

  Last Energy change         ...   -2.5440e-07  Tolerance :   1.0000e-06
  Last MAX-Density change    ...    1.0993e-01  Tolerance :   1.0000e-05
  Last RMS-Density change    ...    1.2280e-04  Tolerance :   1.0000e-06
  Last DIIS Error            ...    3.3264e-05  Tolerance :   1.0000e-06

             **** THE GBW FILE WAS UPDATED (MOR16_ed33.gbw) ****
             **** DENSITY FILE WAS UPDATED (MOR16_ed33.scfp) ****
             **** ENERGY FILE WAS UPDATED (MOR16_ed33.en.tmp) ****
             **** THE GBW FILE WAS UPDATED (MOR16_ed33.gbw) ****
             **** DENSITY FILE WAS UPDATED (MOR16_ed33.scfp) ****
----------------
ORBITAL ENERGIES
----------------

  NO   OCC          E(Eh)            E(eV) 
   0   2.0000     -76.929248     -2093.3512 
   1   2.0000     -76.927871     -2093.3138 
   2   2.0000     -76.922393     -2093.1647 
   3   2.0000     -76.919213     -2093.0782 
   4   2.0000     -10.106454      -275.0106 
   5   2.0000     -10.104227      -274.9500 
   6   2.0000     -10.103237      -274.9230 
   7   2.0000     -10.102225      -274.8955 
   8   2.0000     -10.102016      -274.8898 
   9   2.0000     -10.101819      -274.8845 
  10   2.0000     -10.101648      -274.8798 
  11   2.0000     -10.101176      -274.8670 
  12   2.0000     -10.098431      -274.7923 
  13   2.0000     -10.098260      -274.7876 
  14   2.0000     -10.095483      -274.7121 
  15   2.0000     -10.094929      -274.6970 
  16   2.0000     -10.067762      -273.9577 
  17   2.0000     -10.060989      -273.7734 
  18   2.0000      -6.481119      -176.3602 
  19   2.0000      -6.479844      -176.3255 
  20   2.0000      -6.473157      -176.1436 
  21   2.0000      -6.470192      -176.0629 
  22   2.0000      -4.630906      -126.0134 
  23   2.0000      -4.630690      -126.0075 
  24   2.0000      -4.629614      -125.9782 
  25   2.0000      -4.629424      -125.9730 
  26   2.0000      -4.626821      -125.9022 
  27   2.0000      -4.625516      -125.8667 
  28   2.0000      -4.623140      -125.8020 
  29   2.0000      -4.622691      -125.7898 
  30   2.0000      -4.620036      -125.7176 
  31   2.0000      -4.619851      -125.7125 
  32   2.0000      -4.618926      -125.6874 
  33   2.0000      -4.615944      -125.6062 
  34   2.0000      -2.909146       -79.1619 
  35   2.0000      -1.770147       -48.1682 
  36   2.0000      -1.763650       -47.9914 
  37   2.0000      -1.757127       -47.8139 
  38   2.0000      -0.747520       -20.3411 
  39   2.0000      -0.742508       -20.2047 
  40   2.0000      -0.734007       -19.9733 
  41   2.0000      -0.732305       -19.9270 
  42   2.0000      -0.687323       -18.7030 
  43   2.0000      -0.673509       -18.3271 
  44   2.0000      -0.671641       -18.2763 
  45   2.0000      -0.670609       -18.2482 
  46   2.0000      -0.664199       -18.0738 
  47   2.0000      -0.662944       -18.0396 
  48   2.0000      -0.662300       -18.0221 
  49   2.0000      -0.660814       -17.9817 
  50   2.0000      -0.659689       -17.9510 
  51   2.0000      -0.529144       -14.3987 
  52   2.0000      -0.526832       -14.3358 
  53   2.0000      -0.514581       -14.0025 
  54   2.0000      -0.508877       -13.8472 
  55   2.0000      -0.507615       -13.8129 
  56   2.0000      -0.440366       -11.9830 
  57   2.0000      -0.438965       -11.9448 
  58   2.0000      -0.430280       -11.7085 
  59   2.0000      -0.425730       -11.5847 
  60   2.0000      -0.419236       -11.4080 
  61   2.0000      -0.416156       -11.3242 
  62   2.0000      -0.413733       -11.2583 
  63   2.0000      -0.409611       -11.1461 
  64   2.0000      -0.405599       -11.0369 
  65   2.0000      -0.401816       -10.9340 
  66   2.0000      -0.398327       -10.8390 
  67   2.0000      -0.395372       -10.7586 
  68   2.0000      -0.393224       -10.7002 
  69   2.0000      -0.383306       -10.4303 
  70   2.0000      -0.379995       -10.3402 
  71   2.0000      -0.378570       -10.3014 
  72   2.0000      -0.374614       -10.1938 
  73   2.0000      -0.372644       -10.1402 
  74   2.0000      -0.371302       -10.1036 
  75   2.0000      -0.369433       -10.0528 
  76   2.0000      -0.367315        -9.9952 
  77   2.0000      -0.365408        -9.9433 
  78   2.0000      -0.363669        -9.8959 
  79   2.0000      -0.362630        -9.8677 
  80   2.0000      -0.360176        -9.8009 
  81   2.0000      -0.357668        -9.7326 
  82   2.0000      -0.321827        -8.7574 
  83   2.0000      -0.319251        -8.6873 
  84   2.0000      -0.314187        -8.5495 
  85   2.0000      -0.312061        -8.4916 
  86   2.0000      -0.308855        -8.4044 
  87   2.0000      -0.305053        -8.3009 
  88   2.0000      -0.301138        -8.1944 
  89   2.0000      -0.299175        -8.1410 
  90   2.0000      -0.296949        -8.0804 
  91   2.0000      -0.294646        -8.0177 
  92   2.0000      -0.281900        -7.6709 
  93   2.0000      -0.272796        -7.4231 
  94   2.0000      -0.234699        -6.3865 
  95   2.0000      -0.222375        -6.0511 
  96   2.0000      -0.180757        -4.9187 
  97   2.0000      -0.177995        -4.8435 
  98   2.0000      -0.162512        -4.4222 
  99   2.0000      -0.139487        -3.7956 
 100   0.0000      -0.006744        -0.1835 
 101   0.0000       0.005601         0.1524 
 102   0.0000       0.006233         0.1696 
 103   0.0000       0.008351         0.2272 
 104   0.0000       0.019172         0.5217 
 105   0.0000       0.021129         0.5749 
 106   0.0000       0.023683         0.6444 
 107   0.0000       0.028232         0.7682 
 108   0.0000       0.032264         0.8779 
 109   0.0000       0.038785         1.0554 
 110   0.0000       0.039120         1.0645 
 111   0.0000       0.041166         1.1202 
 112   0.0000       0.041670         1.1339 
 113   0.0000       0.043112         1.1731 
 114   0.0000       0.044635         1.2146 
 115   0.0000       0.046727         1.2715 
 116   0.0000       0.048915         1.3310 
 117   0.0000       0.052013         1.4153 
 118   0.0000       0.055220         1.5026 
 119   0.0000       0.060061         1.6343 
 120   0.0000       0.060884         1.6567 
 121   0.0000       0.066067         1.7978 
 122   0.0000       0.068839         1.8732 
 123   0.0000       0.073182         1.9914 
 124   0.0000       0.073472         1.9993 
 125   0.0000       0.078415         2.1338 
 126   0.0000       0.081427         2.2157 
 127   0.0000       0.084514         2.2997 
 128   0.0000       0.086935         2.3656 
 129   0.0000       0.090494         2.4625 
 130   0.0000       0.092860         2.5269 
 131   0.0000       0.095521         2.5993 
 132   0.0000       0.098170         2.6713 
 133   0.0000       0.102195         2.7809 
 134   0.0000       0.104305         2.8383 
 135   0.0000       0.105320         2.8659 
 136   0.0000       0.107655         2.9294 
 137   0.0000       0.109217         2.9719 
 138   0.0000       0.113059         3.0765 
 139   0.0000       0.114665         3.1202 
 140   0.0000       0.115138         3.1331 
 141   0.0000       0.116605         3.1730 
 142   0.0000       0.120046         3.2666 
 143   0.0000       0.124157         3.3785 
 144   0.0000       0.125373         3.4116 
 145   0.0000       0.128377         3.4933 
 146   0.0000       0.131677         3.5831 
 147   0.0000       0.133890         3.6433 
 148   0.0000       0.135018         3.6740 
 149   0.0000       0.136615         3.7175 
 150   0.0000       0.138666         3.7733 
 151   0.0000       0.141259         3.8438 
 152   0.0000       0.144700         3.9375 
 153   0.0000       0.147468         4.0128 
 154   0.0000       0.151055         4.1104 
 155   0.0000       0.153654         4.1811 
 156   0.0000       0.154642         4.2080 
 157   0.0000       0.157762         4.2929 
 158   0.0000       0.159480         4.3397 
 159   0.0000       0.163604         4.4519 
 160   0.0000       0.166114         4.5202 
 161   0.0000       0.168518         4.5856 
 162   0.0000       0.172092         4.6829 
 163   0.0000       0.174580         4.7506 
 164   0.0000       0.176560         4.8044 
 165   0.0000       0.176656         4.8071 
 166   0.0000       0.181943         4.9509 
 167   0.0000       0.184789         5.0284 
 168   0.0000       0.188866         5.1393 
 169   0.0000       0.189570         5.1585 
 170   0.0000       0.192110         5.2276 
 171   0.0000       0.194877         5.3029 
 172   0.0000       0.198343         5.3972 
 173   0.0000       0.200567         5.4577 
 174   0.0000       0.203517         5.5380 
 175   0.0000       0.205878         5.6022 
 176   0.0000       0.209968         5.7135 
 177   0.0000       0.214452         5.8355 
 178   0.0000       0.216776         5.8988 
 179   0.0000       0.219545         5.9741 
 180   0.0000       0.224098         6.0980 
 181   0.0000       0.224898         6.1198 
 182   0.0000       0.225364         6.1325 
 183   0.0000       0.228705         6.2234 
 184   0.0000       0.229510         6.2453 
 185   0.0000       0.231244         6.2925 
 186   0.0000       0.237090         6.4515 
 187   0.0000       0.238149         6.4804 
 188   0.0000       0.242450         6.5974 
 189   0.0000       0.244008         6.6398 
 190   0.0000       0.246735         6.7140 
 191   0.0000       0.248194         6.7537 
 192   0.0000       0.250908         6.8275 
 193   0.0000       0.252108         6.8602 
 194   0.0000       0.254264         6.9189 
 195   0.0000       0.256479         6.9791 
 196   0.0000       0.258870         7.0442 
 197   0.0000       0.259760         7.0684 
 198   0.0000       0.262507         7.1432 
 199   0.0000       0.263749         7.1770 
 200   0.0000       0.266171         7.2429 
 201   0.0000       0.269002         7.3199 
 202   0.0000       0.271229         7.3805 
 203   0.0000       0.272647         7.4191 
 204   0.0000       0.273840         7.4516 
 205   0.0000       0.278450         7.5770 
 206   0.0000       0.278954         7.5907 
 207   0.0000       0.281863         7.6699 
 208   0.0000       0.283101         7.7036 
 209   0.0000       0.284335         7.7372 
 210   0.0000       0.288265         7.8441 
 211   0.0000       0.289458         7.8765 
 212   0.0000       0.290713         7.9107 
 213   0.0000       0.293654         7.9907 
 214   0.0000       0.297395         8.0925 
 215   0.0000       0.298509         8.1228 
 216   0.0000       0.300187         8.1685 
 217   0.0000       0.300983         8.1902 
 218   0.0000       0.303514         8.2590 
 219   0.0000       0.304311         8.2807 
 220   0.0000       0.308163         8.3855 
 221   0.0000       0.309574         8.4239 
 222   0.0000       0.312076         8.4920 
 223   0.0000       0.315652         8.5893 
 224   0.0000       0.318937         8.6787 
 225   0.0000       0.319911         8.7052 
 226   0.0000       0.320798         8.7294 
 227   0.0000       0.322721         8.7817 
 228   0.0000       0.324848         8.8396 
 229   0.0000       0.326509         8.8848 
 230   0.0000       0.329045         8.9538 
 231   0.0000       0.332932         9.0595 
 232   0.0000       0.333351         9.0709 
 233   0.0000       0.335538         9.1304 
 234   0.0000       0.337714         9.1897 
 235   0.0000       0.338096         9.2000 
 236   0.0000       0.340876         9.2757 
 237   0.0000       0.342590         9.3223 
 238   0.0000       0.344808         9.3827 
 239   0.0000       0.348467         9.4823 
 240   0.0000       0.350140         9.5278 
 241   0.0000       0.354151         9.6369 
 242   0.0000       0.356844         9.7102 
 243   0.0000       0.357570         9.7300 
 244   0.0000       0.359312         9.7774 
 245   0.0000       0.363886         9.9018 
 246   0.0000       0.366062         9.9610 
 247   0.0000       0.369551        10.0560 
 248   0.0000       0.371240        10.1020 
 249   0.0000       0.373837        10.1726 
 250   0.0000       0.375705        10.2235 
 251   0.0000       0.377325        10.2675 
 252   0.0000       0.381520        10.3817 
 253   0.0000       0.385327        10.4853 
 254   0.0000       0.386476        10.5165 
 255   0.0000       0.387814        10.5529 
 256   0.0000       0.389845        10.6082 
 257   0.0000       0.390908        10.6371 
 258   0.0000       0.392182        10.6718 
 259   0.0000       0.393298        10.7022 
 260   0.0000       0.394985        10.7481 
 261   0.0000       0.399663        10.8754 
 262   0.0000       0.401593        10.9279 
 263   0.0000       0.402828        10.9615 
 264   0.0000       0.404849        11.0165 
 265   0.0000       0.407376        11.0853 
 266   0.0000       0.409114        11.1326 
 267   0.0000       0.410504        11.1704 
 268   0.0000       0.413557        11.2535 
 269   0.0000       0.417925        11.3723 
 270   0.0000       0.418629        11.3915 
 271   0.0000       0.422246        11.4899 
 272   0.0000       0.423132        11.5140 
 273   0.0000       0.425756        11.5854 
 274   0.0000       0.426502        11.6057 
 275   0.0000       0.428228        11.6527 
 276   0.0000       0.431484        11.7413 
 277   0.0000       0.434416        11.8210 
 278   0.0000       0.436116        11.8673 
 279   0.0000       0.437288        11.8992 
 280   0.0000       0.438846        11.9416 
 281   0.0000       0.444344        12.0912 
 282   0.0000       0.445947        12.1348 
 283   0.0000       0.447988        12.1904 
 284   0.0000       0.452168        12.3041 
 285   0.0000       0.453531        12.3412 
 286   0.0000       0.455319        12.3899 
 287   0.0000       0.459044        12.4912 
 288   0.0000       0.461703        12.5636 
 289   0.0000       0.464798        12.6478 
 290   0.0000       0.465973        12.6798 
 291   0.0000       0.468551        12.7499 
 292   0.0000       0.471862        12.8400 
 293   0.0000       0.473181        12.8759 
 294   0.0000       0.475129        12.9289 
 295   0.0000       0.478201        13.0125 
 296   0.0000       0.481303        13.0969 
 297   0.0000       0.483177        13.1479 
 298   0.0000       0.485030        13.1983 
 299   0.0000       0.486448        13.2369 
 300   0.0000       0.492105        13.3908 
 301   0.0000       0.494062        13.4441 
 302   0.0000       0.495046        13.4709 
 303   0.0000       0.496158        13.5011 
 304   0.0000       0.499805        13.6004 
 305   0.0000       0.501663        13.6509 
 306   0.0000       0.506157        13.7732 
 307   0.0000       0.508903        13.8480 
 308   0.0000       0.510439        13.8898 
 309   0.0000       0.511410        13.9162 
 310   0.0000       0.514352        13.9962 
 311   0.0000       0.518091        14.0980 
 312   0.0000       0.519880        14.1467 
 313   0.0000       0.523559        14.2468 
 314   0.0000       0.526761        14.3339 
 315   0.0000       0.530427        14.4336 
 316   0.0000       0.531274        14.4567 
 317   0.0000       0.537233        14.6189 
 318   0.0000       0.538862        14.6632 
 319   0.0000       0.540437        14.7060 
 320   0.0000       0.543004        14.7759 
 321   0.0000       0.544364        14.8129 
 322   0.0000       0.546659        14.8753 
 323   0.0000       0.547688        14.9033 
 324   0.0000       0.549872        14.9628 
 325   0.0000       0.553740        15.0680 
 326   0.0000       0.556702        15.1486 
 327   0.0000       0.560152        15.2425 
 328   0.0000       0.562763        15.3136 
 329   0.0000       0.563293        15.3280 
 330   0.0000       0.565255        15.3814 
 331   0.0000       0.569580        15.4991 
 332   0.0000       0.572201        15.5704 
 333   0.0000       0.574232        15.6256 
 334   0.0000       0.575799        15.6683 
 335   0.0000       0.579720        15.7750 
 336   0.0000       0.581429        15.8215 
 337   0.0000       0.584349        15.9010 
 338   0.0000       0.589154        16.0317 
 339   0.0000       0.590438        16.0666 
 340   0.0000       0.595800        16.2125 
 341   0.0000       0.597855        16.2685 
 342   0.0000       0.599747        16.3199 
 343   0.0000       0.603227        16.4146 
 344   0.0000       0.604137        16.4394 
 345   0.0000       0.605342        16.4722 
 346   0.0000       0.607812        16.5394 
 347   0.0000       0.611137        16.6299 
 348   0.0000       0.612111        16.6564 
 349   0.0000       0.614757        16.7284 
 350   0.0000       0.616204        16.7678 
 351   0.0000       0.616474        16.7751 
 352   0.0000       0.621272        16.9057 
 353   0.0000       0.622499        16.9391 
 354   0.0000       0.624167        16.9845 
 355   0.0000       0.627354        17.0712 
 356   0.0000       0.628895        17.1131 
 357   0.0000       0.631538        17.1850 
 358   0.0000       0.636995        17.3335 
 359   0.0000       0.638909        17.3856 
 360   0.0000       0.640470        17.4281 
 361   0.0000       0.642358        17.4794 
 362   0.0000       0.644569        17.5396 
 363   0.0000       0.647219        17.6117 
 364   0.0000       0.648123        17.6363 
 365   0.0000       0.649786        17.6816 
 366   0.0000       0.650547        17.7023 
 367   0.0000       0.652548        17.7567 
 368   0.0000       0.655736        17.8435 
 369   0.0000       0.657045        17.8791 
 370   0.0000       0.661641        18.0042 
 371   0.0000       0.663088        18.0436 
 372   0.0000       0.665911        18.1204 
 373   0.0000       0.666929        18.1481 
 374   0.0000       0.671112        18.2619 
 375   0.0000       0.671801        18.2806 
 376   0.0000       0.676758        18.4155 
 377   0.0000       0.677835        18.4448 
 378   0.0000       0.680945        18.5294 
 379   0.0000       0.684682        18.6311 
 380   0.0000       0.685543        18.6546 
 381   0.0000       0.686524        18.6813 
 382   0.0000       0.688718        18.7410 
 383   0.0000       0.693163        18.8619 
 384   0.0000       0.693776        18.8786 
 385   0.0000       0.694688        18.9034 
 386   0.0000       0.695133        18.9155 
 387   0.0000       0.697908        18.9910 
 388   0.0000       0.699401        19.0317 
 389   0.0000       0.702065        19.1042 
 390   0.0000       0.704681        19.1753 
 391   0.0000       0.705467        19.1967 
 392   0.0000       0.707857        19.2618 
 393   0.0000       0.709613        19.3096 
 394   0.0000       0.710668        19.3382 
 395   0.0000       0.712608        19.3910 
 396   0.0000       0.715346        19.4656 
 397   0.0000       0.717526        19.5249 
 398   0.0000       0.718965        19.5640 
 399   0.0000       0.720545        19.6070 
 400   0.0000       0.722623        19.6636 
 401   0.0000       0.724882        19.7251 
 402   0.0000       0.726450        19.7677 
 403   0.0000       0.728156        19.8141 
 404   0.0000       0.729896        19.8615 
 405   0.0000       0.730780        19.8855 
 406   0.0000       0.732068        19.9206 
 407   0.0000       0.734851        19.9963 
 408   0.0000       0.736409        20.0387 
 409   0.0000       0.737178        20.0596 
 410   0.0000       0.741102        20.1664 
 411   0.0000       0.741618        20.1804 
 412   0.0000       0.744839        20.2681 
 413   0.0000       0.746463        20.3123 
 414   0.0000       0.748489        20.3674 
 415   0.0000       0.749773        20.4024 
 416   0.0000       0.752619        20.4798 
 417   0.0000       0.753145        20.4941 
 418   0.0000       0.757458        20.6115 
 419   0.0000       0.757975        20.6255 
 420   0.0000       0.758691        20.6450 
 421   0.0000       0.764161        20.7939 
 422   0.0000       0.765072        20.8187 
 423   0.0000       0.769309        20.9340 
 424   0.0000       0.770878        20.9767 
 425   0.0000       0.775159        21.0931 
 426   0.0000       0.777349        21.1527 
 427   0.0000       0.778380        21.1808 
 428   0.0000       0.780057        21.2264 
 429   0.0000       0.782533        21.2938 
 430   0.0000       0.786360        21.3980 
 431   0.0000       0.787087        21.4177 
 432   0.0000       0.788601        21.4589 
 433   0.0000       0.789587        21.4858 
 434   0.0000       0.792027        21.5522 
 435   0.0000       0.795673        21.6514 
 436   0.0000       0.798157        21.7190 
 437   0.0000       0.800068        21.7710 
 438   0.0000       0.802368        21.8335 
 439   0.0000       0.802827        21.8460 
 440   0.0000       0.805553        21.9202 
 441   0.0000       0.809511        22.0279 
 442   0.0000       0.812382        22.1060 
 443   0.0000       0.815135        22.1810 
 444   0.0000       0.816056        22.2060 
 445   0.0000       0.818036        22.2599 
 446   0.0000       0.821119        22.3438 
 447   0.0000       0.823429        22.4067 
 448   0.0000       0.827747        22.5241 
 449   0.0000       0.828933        22.5564 
 450   0.0000       0.830917        22.6104 
 451   0.0000       0.834446        22.7064 
 452   0.0000       0.836969        22.7751 
 453   0.0000       0.839261        22.8374 
 454   0.0000       0.841870        22.9084 
 455   0.0000       0.843848        22.9623 
 456   0.0000       0.847214        23.0539 
 457   0.0000       0.849077        23.1046 
 458   0.0000       0.851809        23.1789 
 459   0.0000       0.853436        23.2232 
 460   0.0000       0.856141        23.2968 
 461   0.0000       0.860380        23.4121 
 462   0.0000       0.861549        23.4439 
 463   0.0000       0.862547        23.4711 
 464   0.0000       0.865898        23.5623 
 465   0.0000       0.868655        23.6373 
 466   0.0000       0.872620        23.7452 
 467   0.0000       0.874480        23.7958 
 468   0.0000       0.879881        23.9428 
 469   0.0000       0.882609        24.0170 
 470   0.0000       0.884330        24.0638 
 471   0.0000       0.886677        24.1277 
 472   0.0000       0.887058        24.1381 
 473   0.0000       0.891924        24.2705 
 474   0.0000       0.893377        24.3100 
 475   0.0000       0.895254        24.3611 
 476   0.0000       0.897665        24.4267 
 477   0.0000       0.903355        24.5815 
 478   0.0000       0.905470        24.6391 
 479   0.0000       0.907113        24.6838 
 480   0.0000       0.911442        24.8016 
 481   0.0000       0.914223        24.8773 
 482   0.0000       0.914585        24.8871 
 483   0.0000       0.919484        25.0204 
 484   0.0000       0.921993        25.0887 
 485   0.0000       0.924150        25.1474 
 486   0.0000       0.930180        25.3115 
 487   0.0000       0.937184        25.5021 
 488   0.0000       0.940577        25.5944 
 489   0.0000       0.944038        25.6886 
 490   0.0000       0.946050        25.7433 
 491   0.0000       0.948030        25.7972 
 492   0.0000       0.954506        25.9734 
 493   0.0000       0.955882        26.0109 
 494   0.0000       0.961466        26.1628 
 495   0.0000       0.962148        26.1814 
 496   0.0000       0.966585        26.3021 
 497   0.0000       0.970488        26.4083 
 498   0.0000       0.971736        26.4423 
 499   0.0000       0.972941        26.4751 
 500   0.0000       0.979090        26.6424 
 501   0.0000       0.982611        26.7382 
 502   0.0000       0.983849        26.7719 
 503   0.0000       0.987235        26.8640 
 504   0.0000       0.996573        27.1181 
 505   0.0000       0.998845        27.1799 
 506   0.0000       1.005530        27.3619 
 507   0.0000       1.008852        27.4523 
 508   0.0000       1.012381        27.5483 
 509   0.0000       1.018077        27.7033 
 510   0.0000       1.022739        27.8301 
 511   0.0000       1.025032        27.8925 
 512   0.0000       1.028898        27.9977 
 513   0.0000       1.030726        28.0475 
 514   0.0000       1.031160        28.0593 
 515   0.0000       1.037404        28.2292 
 516   0.0000       1.046078        28.4652 
 517   0.0000       1.048719        28.5371 
 518   0.0000       1.052234        28.6327 
 519   0.0000       1.053462        28.6662 
 520   0.0000       1.062999        28.9257 
 521   0.0000       1.067653        29.0523 
 522   0.0000       1.069698        29.1080 
 523   0.0000       1.071998        29.1705 
 524   0.0000       1.078331        29.3429 
 525   0.0000       1.082980        29.4694 
 526   0.0000       1.087420        29.5902 
 527   0.0000       1.089840        29.6560 
 528   0.0000       1.096307        29.8320 
 529   0.0000       1.097641        29.8683 
 530   0.0000       1.100224        29.9386 
 531   0.0000       1.105140        30.0724 
 532   0.0000       1.112332        30.2681 
 533   0.0000       1.119235        30.4559 
 534   0.0000       1.121389        30.5146 
 535   0.0000       1.122520        30.5453 
 536   0.0000       1.128644        30.7120 
 537   0.0000       1.131681        30.7946 
 538   0.0000       1.136568        30.9276 
 539   0.0000       1.140790        31.0425 
 540   0.0000       1.144845        31.1528 
 541   0.0000       1.149155        31.2701 
 542   0.0000       1.153241        31.3813 
 543   0.0000       1.158423        31.5223 
 544   0.0000       1.162760        31.6403 
 545   0.0000       1.164861        31.6975 
 546   0.0000       1.168183        31.7879 
 547   0.0000       1.176932        32.0260 
 548   0.0000       1.179250        32.0890 
 549   0.0000       1.186285        32.2805 
 550   0.0000       1.191111        32.4118 
 551   0.0000       1.194454        32.5027 
 552   0.0000       1.196944        32.5705 
 553   0.0000       1.203093        32.7378 
 554   0.0000       1.204195        32.7678 
 555   0.0000       1.209904        32.9232 
 556   0.0000       1.212668        32.9984 
 557   0.0000       1.216767        33.1099 
 558   0.0000       1.222383        33.2627 
 559   0.0000       1.229372        33.4529 
 560   0.0000       1.229652        33.4605 
 561   0.0000       1.233917        33.5766 
 562   0.0000       1.237904        33.6851 
 563   0.0000       1.242505        33.8103 
 564   0.0000       1.244277        33.8585 
 565   0.0000       1.247383        33.9430 
 566   0.0000       1.255644        34.1678 
 567   0.0000       1.260831        34.3090 
 568   0.0000       1.270625        34.5755 
 569   0.0000       1.274379        34.6776 
 570   0.0000       1.275146        34.6985 
 571   0.0000       1.280802        34.8524 
 572   0.0000       1.283317        34.9208 
 573   0.0000       1.284595        34.9556 
 574   0.0000       1.290162        35.1071 
 575   0.0000       1.293877        35.2082 
 576   0.0000       1.298615        35.3371 
 577   0.0000       1.299984        35.3744 
 578   0.0000       1.302381        35.4396 
 579   0.0000       1.307734        35.5853 
 580   0.0000       1.315722        35.8026 
 581   0.0000       1.318023        35.8652 
 582   0.0000       1.321207        35.9519 
 583   0.0000       1.325056        36.0566 
 584   0.0000       1.330861        36.2146 
 585   0.0000       1.331474        36.2313 
 586   0.0000       1.337777        36.4028 
 587   0.0000       1.342765        36.5385 
 588   0.0000       1.345181        36.6042 
 589   0.0000       1.351322        36.7713 
 590   0.0000       1.355805        36.8933 
 591   0.0000       1.357458        36.9383 
 592   0.0000       1.360842        37.0304 
 593   0.0000       1.365784        37.1649 
 594   0.0000       1.368633        37.2424 
 595   0.0000       1.374465        37.4011 
 596   0.0000       1.378268        37.5046 
 597   0.0000       1.379736        37.5445 
 598   0.0000       1.383788        37.6548 
 599   0.0000       1.385542        37.7025 
 600   0.0000       1.390172        37.8285 
 601   0.0000       1.390722        37.8435 
 602   0.0000       1.395131        37.9634 
 603   0.0000       1.398886        38.0656 
 604   0.0000       1.401265        38.1304 
 605   0.0000       1.405487        38.2453 
 606   0.0000       1.407969        38.3128 
 607   0.0000       1.408616        38.3304 
 608   0.0000       1.414573        38.4925 
 609   0.0000       1.416806        38.5532 
 610   0.0000       1.426242        38.8100 
 611   0.0000       1.428857        38.8812 
 612   0.0000       1.431659        38.9574 
 613   0.0000       1.432177        38.9715 
 614   0.0000       1.434373        39.0313 
 615   0.0000       1.437576        39.1184 
 616   0.0000       1.439240        39.1637 
 617   0.0000       1.445930        39.3458 
 618   0.0000       1.447120        39.3781 
 619   0.0000       1.452039        39.5120 
 620   0.0000       1.460335        39.7377 
 621   0.0000       1.465351        39.8742 
 622   0.0000       1.466534        39.9064 
 623   0.0000       1.469131        39.9771 
 624   0.0000       1.473701        40.1014 
 625   0.0000       1.478697        40.2374 
 626   0.0000       1.480903        40.2974 
 627   0.0000       1.482713        40.3467 
 628   0.0000       1.488321        40.4993 
 629   0.0000       1.492525        40.6137 
 630   0.0000       1.495305        40.6893 
 631   0.0000       1.501423        40.8558 
 632   0.0000       1.506539        40.9950 
 633   0.0000       1.510815        41.1114 
 634   0.0000       1.513602        41.1872 
 635   0.0000       1.517657        41.2975 
 636   0.0000       1.518677        41.3253 
 637   0.0000       1.520526        41.3756 
 638   0.0000       1.522635        41.4330 
 639   0.0000       1.529210        41.6119 
 640   0.0000       1.534733        41.7622 
 641   0.0000       1.537053        41.8253 
 642   0.0000       1.540850        41.9287 
 643   0.0000       1.544261        42.0215 
 644   0.0000       1.545000        42.0416 
 645   0.0000       1.549665        42.1685 
 646   0.0000       1.551893        42.2292 
 647   0.0000       1.552972        42.2585 
 648   0.0000       1.562883        42.5282 
 649   0.0000       1.565703        42.6049 
 650   0.0000       1.568756        42.6880 
 651   0.0000       1.574700        42.8498 
 652   0.0000       1.578554        42.9546 
 653   0.0000       1.580591        43.0101 
 654   0.0000       1.583661        43.0936 
 655   0.0000       1.587626        43.2015 
 656   0.0000       1.592969        43.3469 
 657   0.0000       1.595412        43.4134 
 658   0.0000       1.596637        43.4467 
 659   0.0000       1.601420        43.5769 
 660   0.0000       1.604583        43.6629 
 661   0.0000       1.608231        43.7622 
 662   0.0000       1.613667        43.9101 
 663   0.0000       1.615073        43.9484 
 664   0.0000       1.623775        44.1852 
 665   0.0000       1.625295        44.2265 
 666   0.0000       1.626139        44.2495 
 667   0.0000       1.632150        44.4131 
 668   0.0000       1.636160        44.5222 
 669   0.0000       1.640137        44.6304 
 670   0.0000       1.641377        44.6641 
 671   0.0000       1.643540        44.7230 
 672   0.0000       1.647978        44.8438 
 673   0.0000       1.651915        44.9509 
 674   0.0000       1.655813        45.0570 
 675   0.0000       1.659944        45.1694 
 676   0.0000       1.666041        45.3353 
 677   0.0000       1.667558        45.3766 
 678   0.0000       1.670372        45.4531 
 679   0.0000       1.676198        45.6117 
 680   0.0000       1.677212        45.6392 
 681   0.0000       1.683818        45.8190 
 682   0.0000       1.684498        45.8375 
 683   0.0000       1.690582        46.0031 
 684   0.0000       1.693910        46.0936 
 685   0.0000       1.698321        46.2137 
 686   0.0000       1.701365        46.2965 
 687   0.0000       1.702751        46.3342 
 688   0.0000       1.707974        46.4763 
 689   0.0000       1.710745        46.5517 
 690   0.0000       1.712405        46.5969 
 691   0.0000       1.716378        46.7050 
 692   0.0000       1.718562        46.7645 
 693   0.0000       1.723066        46.8870 
 694   0.0000       1.728008        47.0215 
 695   0.0000       1.737408        47.2773 
 696   0.0000       1.742156        47.4065 
 697   0.0000       1.748883        47.5895 
 698   0.0000       1.750740        47.6400 
 699   0.0000       1.752344        47.6837 
 700   0.0000       1.756860        47.8066 
 701   0.0000       1.762793        47.9680 
 702   0.0000       1.765222        48.0341 
 703   0.0000       1.768843        48.1327 
 704   0.0000       1.771979        48.2180 
 705   0.0000       1.776672        48.3457 
 706   0.0000       1.781929        48.4887 
 707   0.0000       1.787489        48.6400 
 708   0.0000       1.790877        48.7322 
 709   0.0000       1.794308        48.8256 
 710   0.0000       1.799115        48.9564 
 711   0.0000       1.804225        49.0955 
 712   0.0000       1.811707        49.2991 
 713   0.0000       1.812995        49.3341 
 714   0.0000       1.822262        49.5863 
 715   0.0000       1.824657        49.6514 
 716   0.0000       1.826223        49.6941 
 717   0.0000       1.831096        49.8267 
 718   0.0000       1.839644        50.0592 
 719   0.0000       1.841244        50.1028 
 720   0.0000       1.847573        50.2750 
 721   0.0000       1.856856        50.5276 
 722   0.0000       1.857289        50.5394 
 723   0.0000       1.859712        50.6053 
 724   0.0000       1.861052        50.6418 
 725   0.0000       1.865189        50.7544 
 726   0.0000       1.868728        50.8507 
 727   0.0000       1.875669        51.0395 
 728   0.0000       1.877009        51.0760 
 729   0.0000       1.882073        51.2138 
 730   0.0000       1.890483        51.4427 
 731   0.0000       1.902761        51.7768 
 732   0.0000       1.906566        51.8803 
 733   0.0000       1.910546        51.9886 
 734   0.0000       1.913987        52.0822 
 735   0.0000       1.916620        52.1539 
 736   0.0000       1.924338        52.3639 
 737   0.0000       1.926616        52.4259 
 738   0.0000       1.934488        52.6401 
 739   0.0000       1.940312        52.7986 
 740   0.0000       1.942762        52.8652 
 741   0.0000       1.949756        53.0556 
 742   0.0000       1.952792        53.1382 
 743   0.0000       1.958434        53.2917 
 744   0.0000       1.967628        53.5419 
 745   0.0000       1.973417        53.6994 
 746   0.0000       1.978076        53.8262 
 747   0.0000       1.982382        53.9434 
 748   0.0000       1.985340        54.0239 
 749   0.0000       1.988339        54.1055 
 750   0.0000       2.000013        54.4231 
 751   0.0000       2.002226        54.4833 
 752   0.0000       2.006696        54.6050 
 753   0.0000       2.009785        54.6890 
 754   0.0000       2.014380        54.8141 
 755   0.0000       2.018841        54.9355 
 756   0.0000       2.022651        55.0391 
 757   0.0000       2.024888        55.1000 
 758   0.0000       2.032932        55.3189 
 759   0.0000       2.039684        55.5026 
 760   0.0000       2.044706        55.6393 
 761   0.0000       2.049416        55.7674 
 762   0.0000       2.050692        55.8022 
 763   0.0000       2.061931        56.1080 
 764   0.0000       2.072023        56.3826 
 765   0.0000       2.074949        56.4622 
 766   0.0000       2.082516        56.6681 
 767   0.0000       2.088875        56.8412 
 768   0.0000       2.098715        57.1089 
 769   0.0000       2.101434        57.1829 
 770   0.0000       2.105440        57.2919 
 771   0.0000       2.112200        57.4759 
 772   0.0000       2.117101        57.6092 
 773   0.0000       2.121708        57.7346 
 774   0.0000       2.125966        57.8505 
 775   0.0000       2.132473        58.0275 
 776   0.0000       2.138426        58.1895 
 777   0.0000       2.150868        58.5281 
 778   0.0000       2.154482        58.6264 
 779   0.0000       2.158941        58.7478 
 780   0.0000       2.172132        59.1067 
 781   0.0000       2.184729        59.4495 
 782   0.0000       2.193196        59.6799 
 783   0.0000       2.194749        59.7222 
 784   0.0000       2.201813        59.9144 
 785   0.0000       2.215951        60.2991 
 786   0.0000       2.224132        60.5217 
 787   0.0000       2.253696        61.3262 
 788   0.0000       2.266629        61.6781 
 789   0.0000       2.273559        61.8667 
 790   0.0000       2.287006        62.2326 
 791   0.0000       2.291079        62.3434 
 792   0.0000       2.298550        62.5467 
 793   0.0000       2.304162        62.6994 
 794   0.0000       2.318271        63.0834 
 795   0.0000       2.326247        63.3004 
 796   0.0000       2.337390        63.6036 
 797   0.0000       2.339003        63.6475 
 798   0.0000       2.344572        63.7991 
 799   0.0000       2.348569        63.9078 
 800   0.0000       2.357931        64.1626 
 801   0.0000       2.373120        64.5759 
 802   0.0000       2.378214        64.7145 
 803   0.0000       2.385161        64.9035 
 804   0.0000       2.387336        64.9627 
 805   0.0000       2.396674        65.2168 
 806   0.0000       2.403982        65.4157 
 807   0.0000       2.411150        65.6107 
 808   0.0000       2.421628        65.8958 
 809   0.0000       2.423710        65.9525 
 810   0.0000       2.427146        66.0460 
 811   0.0000       2.439290        66.3765 
 812   0.0000       2.444091        66.5071 
 813   0.0000       2.447750        66.6067 
 814   0.0000       2.458379        66.8959 
 815   0.0000       2.461905        66.9918 
 816   0.0000       2.466520        67.1174 
 817   0.0000       2.473350        67.3033 
 818   0.0000       2.487823        67.6971 
 819   0.0000       2.501184        68.0607 
 820   0.0000       2.507160        68.2233 
 821   0.0000       2.529911        68.8424 
 822   0.0000       2.540976        69.1435 
 823   0.0000       2.549896        69.3862 
 824   0.0000       2.555286        69.5329 
 825   0.0000       2.568416        69.8901 
 826   0.0000       2.574975        70.0686 
 827   0.0000       2.591204        70.5102 
 828   0.0000       2.609880        71.0184 
 829   0.0000       2.620241        71.3004 
[...]
      dxz     :     0.008227
      dyz     :     0.003690
      dx2y2   :     0.005783
      dxy     :     0.006274
 34 H s       :     0.705550  s :     0.705550
      pz      :     0.106673  p :     0.339644
      px      :     0.136297
      py      :     0.096674
      dz2     :     0.006361  d :     0.030099
      dxz     :     0.007916
      dyz     :     0.004142
      dx2y2   :     0.005677
      dxy     :     0.006003
 35 H s       :     0.706452  s :     0.706452
      pz      :     0.102063  p :     0.318923
      px      :     0.092217
      py      :     0.124642
      dz2     :     0.005451  d :     0.029983
      dxz     :     0.003047
      dyz     :     0.008711
      dx2y2   :     0.006254
      dxy     :     0.006519
 36 H s       :     0.708807  s :     0.708807
      pz      :     0.109623  p :     0.323748
      px      :     0.090742
      py      :     0.123382
      dz2     :     0.006579  d :     0.030066
      dxz     :     0.004163
      dyz     :     0.008282
      dx2y2   :     0.005247
      dxy     :     0.005795
 37 H s       :     0.696203  s :     0.696203
      pz      :     0.122660  p :     0.360995
      px      :     0.139942
      py      :     0.098393
      dz2     :     0.005065  d :     0.030268
      dxz     :     0.008222
      dyz     :     0.002291
      dx2y2   :     0.007238
      dxy     :     0.007453
 38 H s       :     0.705737  s :     0.705737
      pz      :     0.102346  p :     0.318951
      px      :     0.094792
      py      :     0.121814
      dz2     :     0.005541  d :     0.030013
      dxz     :     0.003333
      dyz     :     0.008492
      dx2y2   :     0.006442
      dxy     :     0.006205
 39 H s       :     0.696732  s :     0.696732
      pz      :     0.124632  p :     0.360295
      px      :     0.137949
      py      :     0.097714
      dz2     :     0.005354  d :     0.030268
      dxz     :     0.007885
      dyz     :     0.002781
      dx2y2   :     0.007019
      dxy     :     0.007228
 40 H s       :     0.703005  s :     0.703005
      pz      :     0.109419  p :     0.335141
      px      :     0.091673
      py      :     0.134049
      dz2     :     0.006520  d :     0.030044
      dxz     :     0.004321
      dyz     :     0.008105
      dx2y2   :     0.005166
      dxy     :     0.005932
 41 H s       :     0.705004  s :     0.705004
      pz      :     0.087384  p :     0.315213
      px      :     0.138503
      py      :     0.089326
      dz2     :     0.002686  d :     0.030163
      dxz     :     0.009718
      dyz     :     0.000180
      dx2y2   :     0.008433
      dxy     :     0.009146
 42 H s       :     0.706382  s :     0.706382
      pz      :     0.091240  p :     0.320497
      px      :     0.092173
      py      :     0.137084
      dz2     :     0.003294  d :     0.030101
      dxz     :     0.000553
      dyz     :     0.009175
      dx2y2   :     0.008494
      dxy     :     0.008587
 43 H s       :     0.691781  s :     0.691781
      pz      :     0.132531  p :     0.336508
      px      :     0.111017
      py      :     0.092959
      dz2     :     0.010767  d :     0.030301
      dxz     :     0.007903
      dyz     :     0.008068
      dx2y2   :     0.002047
      dxy     :     0.001516
 44 H s       :     0.706346  s :     0.706346
      pz      :     0.090161  p :     0.312674
      px      :     0.131624
      py      :     0.090889
      dz2     :     0.003259  d :     0.029964
      dxz     :     0.008018
      dyz     :     0.001507
      dx2y2   :     0.009199
      dxy     :     0.007980
 45 H s       :     0.699804  s :     0.699804
      pz      :     0.136780  p :     0.351202
      px      :     0.104700
      py      :     0.109722
      dz2     :     0.010587  d :     0.030311
      dxz     :     0.007652
      dyz     :     0.007626
      dx2y2   :     0.002487
      dxy     :     0.001958
 46 H s       :     0.697697  s :     0.697697
      pz      :     0.094366  p :     0.344548
      px      :     0.099783
      py      :     0.150399
      dz2     :     0.002635  d :     0.030504
      dxz     :     0.000245
      dyz     :     0.010015
      dx2y2   :     0.007765
      dxy     :     0.009844
 47 H s       :     0.708500  s :     0.708500
      pz      :     0.085555  p :     0.314648
      px      :     0.137117
      py      :     0.091976
      dz2     :     0.003082  d :     0.029907
      dxz     :     0.009214
      dyz     :     0.000758
      dx2y2   :     0.007810
      dxy     :     0.009042
 48 H s       :     0.701396  s :     0.701396
      pz      :     0.123384  p :     0.329407
      px      :     0.107643
      py      :     0.098379
      dz2     :     0.008843  d :     0.030234
      dxz     :     0.006933
      dyz     :     0.007533
      dx2y2   :     0.003704
      dxy     :     0.003221
 49 H s       :     0.697954  s :     0.697954
      pz      :     0.136450  p :     0.357659
      px      :     0.100247
      py      :     0.120962
      dz2     :     0.008281  d :     0.030268
      dxz     :     0.005169
      dyz     :     0.007856
      dx2y2   :     0.004703
      dxy     :     0.004259
 50 H s       :     0.704704  s :     0.704704
      pz      :     0.089010  p :     0.316535
      px      :     0.135983
      py      :     0.091542
      dz2     :     0.002635  d :     0.030194
      dxz     :     0.009429
      dyz     :     0.000591
      dx2y2   :     0.008866
      dxy     :     0.008673
 51 H s       :     0.691051  s :     0.691051
      pz      :     0.130372  p :     0.336146
      px      :     0.114720
      py      :     0.091053
      dz2     :     0.010606  d :     0.030322
      dxz     :     0.007851
      dyz     :     0.007714
      dx2y2   :     0.002261
      dxy     :     0.001891
 52 H s       :     0.701841  s :     0.701841
      pz      :     0.095562  p :     0.328716
      px      :     0.091824
      py      :     0.141330
      dz2     :     0.003218  d :     0.030133
      dxz     :     0.000327
      dyz     :     0.009457
      dx2y2   :     0.008141
      dxy     :     0.008990
 53 H s       :     0.706468  s :     0.706468
      pz      :     0.093948  p :     0.312909
      px      :     0.133150
      py      :     0.085811
      dz2     :     0.003916  d :     0.029964
      dxz     :     0.008247
      dyz     :     0.001417
      dx2y2   :     0.008473
      dxy     :     0.007911
 54 H s       :     0.699203  s :     0.699203
      pz      :     0.094082  p :     0.343618
      px      :     0.097142
      py      :     0.152394
      dz2     :     0.002972  d :     0.030221
      dxz     :     0.000599
      dyz     :     0.009979
      dx2y2   :     0.007526
      dxy     :     0.009146
 55 H s       :     0.695735  s :     0.695735
      pz      :     0.134561  p :     0.358775
      px      :     0.106705
      py      :     0.117509
      dz2     :     0.009985  d :     0.030332
      dxz     :     0.006935
      dyz     :     0.007643
      dx2y2   :     0.003241
      dxy     :     0.002529
 56 H s       :     0.708534  s :     0.708534
      pz      :     0.084710  p :     0.313716
      px      :     0.137467
      py      :     0.091539
      dz2     :     0.003070  d :     0.029891
      dxz     :     0.009331
      dyz     :     0.000627
      dx2y2   :     0.007563
      dxy     :     0.009299
 57 H s       :     0.698005  s :     0.698005
      pz      :     0.138255  p :     0.359033
      px      :     0.101842
      py      :     0.118936
      dz2     :     0.008271  d :     0.030272
      dxz     :     0.005241
      dyz     :     0.007756
      dx2y2   :     0.004904
      dxy     :     0.004100
 58 H s       :     0.701842  s :     0.701842
      pz      :     0.122528  p :     0.326453
      px      :     0.106705
      py      :     0.097221
      dz2     :     0.008859  d :     0.030216
      dxz     :     0.007170
      dyz     :     0.007339
      dx2y2   :     0.003643
      dxy     :     0.003205


                      *****************************
                      * MAYER POPULATION ANALYSIS *
                      *****************************

  NA   - Mulliken gross atomic population
  ZA   - Total nuclear charge
  QA   - Mulliken gross atomic charge
  VA   - Mayer's total valence
  BVA  - Mayer's bonded valence
  FA   - Mayer's free valence

  ATOM       NA         ZA         QA         VA         BVA        FA
  0 Ru    17.3236    16.0000    -1.3236     5.5472     5.5472     0.0000
  1 P     13.5965    15.0000     1.4035     3.4767     3.4767     0.0000
  2 P     13.9954    15.0000     1.0046     3.4895     3.4895     0.0000
  3 P     14.0024    15.0000     0.9976     3.1756     3.1756     0.0000
  4 P     14.2802    15.0000     0.7198     3.5259     3.5259    -0.0000
  5 H      0.9546     1.0000     0.0454     1.0534     1.0534     0.0000
  6 C      6.5603     6.0000    -0.5603     4.2098     4.2098     0.0000
  7 C      6.0444     6.0000    -0.0444     3.2203     3.2203     0.0000
  8 H      0.9492     1.0000     0.0508     1.0983     1.0983     0.0000
  9 C      6.7134     6.0000    -0.7134     4.1079     4.1079    -0.0000
 10 C      6.6577     6.0000    -0.6577     4.0889     4.0889     0.0000
 11 C      6.6929     6.0000    -0.6929     4.3841     4.3841     0.0000
 12 C      6.7259     6.0000    -0.7259     4.0574     4.0574     0.0000
 13 C      6.6005     6.0000    -0.6005     3.9795     3.9795     0.0000
 14 C      6.6063     6.0000    -0.6063     3.9865     3.9865     0.0000
 15 C      6.6816     6.0000    -0.6816     4.0053     4.0053     0.0000
 16 C      6.5785     6.0000    -0.5785     3.9764     3.9764     0.0000
 17 C      6.6923     6.0000    -0.6923     4.0896     4.0896     0.0000
 18 C      6.6942     6.0000    -0.6942     3.9813     3.9813    -0.0000
 19 C      6.5721     6.0000    -0.5721     3.9420     3.9420     0.0000
 20 C      6.6138     6.0000    -0.6138     4.0094     4.0094     0.0000
 21 H      0.9397     1.0000     0.0603     1.0191     1.0191    -0.0000
 22 H      0.8806     1.0000     0.1194     1.1279     1.1279     0.0000
 23 H      0.8836     1.0000     0.1164     1.0484     1.0484    -0.0000
 24 H      0.8547     1.0000     0.1453     1.0447     1.0447    -0.0000
 25 H      0.8153     1.0000     0.1847     1.0797     1.0797     0.0000
 26 H      0.8809     1.0000     0.1191     1.0757     1.0757     0.0000
 27 H      0.8722     1.0000     0.1278     1.1226     1.1226     0.0000
 28 H      0.8317     1.0000     0.1683     1.0945     1.0945     0.0000
 29 H      0.8702     1.0000     0.1298     1.0639     1.0639     0.0000
 30 H      0.8256     1.0000     0.1744     1.0901     1.0901     0.0000
 31 H      0.8934     1.0000     0.1066     1.1459     1.1459     0.0000
 32 H      0.8270     1.0000     0.1730     1.0934     1.0934     0.0000
 33 H      0.9078     1.0000     0.0922     1.1686     1.1686     0.0000
 34 H      0.8916     1.0000     0.1084     1.1351     1.1351    -0.0000
 35 H      0.8172     1.0000     0.1828     1.1128     1.1128     0.0000
 36 H      0.8576     1.0000     0.1424     1.0820     1.0820     0.0000
 37 H      0.8418     1.0000     0.1582     1.0784     1.0784     0.0000
 38 H      0.8137     1.0000     0.1863     1.1030     1.1030     0.0000
 39 H      0.8476     1.0000     0.1524     1.0726     1.0726    -0.0000
 40 H      0.8257     1.0000     0.1743     1.1134     1.1134    -0.0000
 41 H      0.8369     1.0000     0.1631     1.0901     1.0901     0.0000
 42 H      0.8792     1.0000     0.1208     1.1025     1.1025    -0.0000
 43 H      0.8216     1.0000     0.1784     1.0405     1.0405     0.0000
 44 H      0.8350     1.0000     0.1650     1.0270     1.0270     0.0000
 45 H      0.9048     1.0000     0.0952     1.1468     1.1468     0.0000
 46 H      0.8174     1.0000     0.1826     1.0110     1.0110     0.0000
 47 H      0.8353     1.0000     0.1647     1.0995     1.0995    -0.0000
 48 H      0.8724     1.0000     0.1276     1.1160     1.1160    -0.0000
 49 H      0.8564     1.0000     0.1436     1.0635     1.0635     0.0000
 50 H      0.8165     1.0000     0.1835     1.0927     1.0927     0.0000
 51 H      0.8143     1.0000     0.1857     1.0326     1.0326     0.0000
 52 H      0.8634     1.0000     0.1366     1.1493     1.1493    -0.0000
 53 H      0.8264     1.0000     0.1736     1.1102     1.1102    -0.0000
 54 H      0.8598     1.0000     0.1402     1.0928     1.0928     0.0000
 55 H      0.8662     1.0000     0.1338     1.1804     1.1804     0.0000
 56 H      0.8329     1.0000     0.1671     1.1171     1.1171     0.0000
 57 H      0.8745     1.0000     0.1255     1.1041     1.1041     0.0000
 58 H      0.8731     1.0000     0.1269     1.1162     1.1162     0.0000

  Mayer bond orders larger than 0.100000
B(  0-Ru,  1-P ) :   0.6400 B(  0-Ru,  2-P ) :   0.7009 B(  0-Ru,  3-P ) :   0.5572 
B(  0-Ru,  4-P ) :   0.5581 B(  0-Ru,  6-C ) :   0.9262 B(  0-Ru,  7-C ) :   0.8149 
B(  0-Ru, 10-C ) :   0.1117 B(  0-Ru, 11-C ) :   0.1993 B(  0-Ru, 12-C ) :   0.1320 
B(  0-Ru, 15-C ) :   0.1189 B(  0-Ru, 17-C ) :   0.1062 B(  0-Ru, 20-C ) :   0.1450 
B(  1-P ,  2-P ) :   0.3577 B(  1-P ,  4-P ) :   0.2220 B(  1-P ,  9-C ) :   0.6315 
B(  1-P , 10-C ) :   0.6957 B(  1-P , 11-C ) :   0.8006 B(  2-P ,  3-P ) :   0.1872 
B(  2-P ,  4-P ) :   0.1918 B(  2-P ,  7-C ) :   0.1039 B(  2-P , 12-C ) :   0.8246 
B(  2-P , 13-C ) :   0.4500 B(  2-P , 14-C ) :   0.4539 B(  3-P ,  4-P ) :   0.2288 
B(  3-P ,  6-C ) :   0.2345 B(  3-P ,  7-C ) :  -0.2513 B(  3-P , 15-C ) :   0.5927 
B(  3-P , 16-C ) :   0.6728 B(  3-P , 17-C ) :   0.6958 B(  4-P ,  6-C ) :   0.2030 
B(  4-P ,  7-C ) :  -0.1930 B(  4-P , 14-C ) :   0.1108 B(  4-P , 18-C ) :   0.6601 
B(  4-P , 19-C ) :   0.7445 B(  4-P , 20-C ) :   0.5945 B(  5-H ,  6-C ) :   1.2651 
B(  5-H ,  7-C ) :  -0.1475 B(  6-C ,  7-C ) :   0.6110 B(  6-C ,  8-H ) :  -0.1500 
B(  6-C , 21-H ) :   1.1892 B(  6-C , 22-H ) :  -0.1284 B(  7-C ,  8-H ) :   1.1848 
B(  7-C , 21-H ) :  -0.1208 B(  7-C , 22-H ) :   1.1700 B(  9-C , 10-C ) :   0.1578 
B(  9-C , 11-C ) :   0.1743 B(  9-C , 23-H ) :   1.0292 B(  9-C , 24-H ) :   0.9653 
B(  9-C , 25-H ) :   0.9260 B( 10-C , 11-C ) :   0.1224 B( 10-C , 26-H ) :   0.9930 
B( 10-C , 27-H ) :   1.0163 B( 10-C , 28-H ) :   0.9502 B( 11-C , 29-H ) :   0.9831 
B( 11-C , 30-H ) :   0.9446 B( 11-C , 31-H ) :   0.9950 B( 12-C , 13-C ) :   0.1284 
B( 12-C , 14-C ) :   0.1363 B( 12-C , 32-H ) :   0.9401 B( 12-C , 33-H ) :   1.0172 
B( 12-C , 34-H ) :   1.0268 B( 13-C , 14-C ) :   0.2139 B( 13-C , 35-H ) :   0.9435 
B( 13-C , 36-H ) :   1.0149 B( 13-C , 37-H ) :   0.9694 B( 14-C , 38-H ) :   0.9331 
B( 14-C , 39-H ) :   0.9546 B( 14-C , 40-H ) :   1.0165 B( 15-C , 16-C ) :   0.1895 
B( 15-C , 17-C ) :   0.1596 B( 15-C , 41-H ) :   0.9528 B( 15-C , 42-H ) :   1.0149 
B( 15-C , 43-H ) :   0.9426 B( 16-C , 44-H ) :   0.9285 B( 16-C , 45-H ) :   1.0804 
B( 16-C , 46-H ) :   0.9269 B( 17-C , 47-H ) :   0.9631 B( 17-C , 48-H ) :   0.9916 
B( 17-C , 49-H ) :   0.9893 B( 18-C , 19-C ) :   0.1341 B( 18-C , 20-C ) :   0.1371 
B( 18-C , 22-H ) :   0.1010 B( 18-C , 50-H ) :   0.9212 B( 18-C , 51-H ) :   0.9529 
B( 18-C , 52-H ) :   1.0152 B( 19-C , 53-H ) :   0.9203 B( 19-C , 54-H ) :   0.9677 
B( 19-C , 55-H ) :   1.0297 B( 20-C , 56-H ) :   0.9406 B( 20-C , 57-H ) :   0.9919 
B( 20-C , 58-H ) :   0.9930 

-------
TIMINGS
-------

Total SCF time: 0 days 0 hours 42 min 40 sec 

Total time                  ....    2560.894 sec
Sum of individual times     ....    2558.450 sec  ( 99.9%)

Fock matrix formation       ....    2543.383 sec  ( 99.3%)
  XC integration            ....      32.945 sec  (  1.3% of F)
    Basis function eval.    ....       2.827 sec  (  8.6% of XC)
    Density eval.           ....      12.994 sec  ( 39.4% of XC)
    XC-Functional eval.     ....       0.191 sec  (  0.6% of XC)
    XC-Potential eval.      ....      13.787 sec  ( 41.8% of XC)
Diagonalization             ....       4.332 sec  (  0.2%)
Density matrix formation    ....       0.278 sec  (  0.0%)
Population analysis         ....       0.601 sec  (  0.0%)
Initial guess               ....       3.626 sec  (  0.1%)
Orbital Transformation      ....       0.000 sec  (  0.0%)
Orbital Orthonormalization  ....       0.000 sec  (  0.0%)
DIIS solution               ....       4.870 sec  (  0.2%)
Grid generation             ....       1.359 sec  (  0.1%)


-------------------------------------------------------------------------------
                          DFT DISPERSION CORRECTION                            
                                                                               
                              DFTD3 V3.1  Rev 1                                
                          USING Becke-Johnson damping                          
-------------------------------------------------------------------------------
The TPSSH functional is recognized
Active option DFTDOPT                   ...         4   

molecular C6(AA) [au] = 37647.970449 


            DFT-D V3
 parameters
 s6 scaling factor         :     1.0000 
 a1 scaling factor         :     0.4529 
 s8 scaling factor         :     2.2382 
 a2 scaling factor         :     4.6550 
 ad hoc parameters k1-k3   :    16.0000     1.3333    -4.0000 

 Edisp/kcal,au: -78.040461119348  -0.124365377768 
 E6   /kcal   : -35.176284371 
 E8   /kcal   : -42.864176749 
 % E8         :  54.925581082 

-------------------------   ----------------
Dispersion correction           -0.124365378
-------------------------   ----------------


-------------------------   --------------------
FINAL SINGLE POINT ENERGY     -2018.545929178411
-------------------------   --------------------


                            ***************************************
                            *     ORCA property calculations      *
                            ***************************************

                                    ---------------------
                                    Active property flags
                                    ---------------------
   (+) Dipole Moment


------------------------------------------------------------------------------
                       ORCA ELECTRIC PROPERTIES CALCULATION
------------------------------------------------------------------------------

Dipole Moment Calculation                       ... on
Quadrupole Moment Calculation                   ... off
Polarizability Calculation                      ... off
GBWName                                         ... MOR16_ed33.gbw
Electron density file                           ... MOR16_ed33.scfp
The origin for moment calculation is the CENTER OF MASS  = (-0.003158, -0.007776 -0.038309)

-------------
DIPOLE MOMENT
-------------
                                X             Y             Z
Electronic contribution:     -1.80814      -5.14810     -26.95690
Nuclear contribution   :      1.82563       5.30534      27.72313
                        -----------------------------------------
Total Dipole Moment    :      0.01750       0.15725       0.76624
                        -----------------------------------------
Magnitude (a.u.)       :      0.78240
Magnitude (Debye)      :      1.98870



--------------------
Rotational spectrum 
--------------------
 
Rotational constants in cm-1:     0.009351     0.007693     0.006898 
Rotational constants in MHz :   280.325632   230.636339   206.809498 

 Dipole components along the rotational axes: 
x,y,z [a.u.] :     0.017702    -0.157241     0.766232 
x,y,z [Debye]:     0.044995    -0.399675     1.947606 

 

Timings for individual modules:

Sum of individual times         ...     2571.079 sec (=  42.851 min)
GTO integral calculation        ...        9.563 sec (=   0.159 min)   0.4 %
SCF iterations                  ...     2561.515 sec (=  42.692 min)  99.6 %
                             ****ORCA TERMINATED NORMALLY****
TOTAL RUN TIME: 0 days 0 hours 42 minutes 51 seconds 943 msec
