
                                 *****************
                                 * O   R   C   A *
                                 *****************

           --- An Ab Initio, DFT and Semiempirical electronic structure package ---

                  #######################################################
                  #                        -***-                        #
                  #          Department of theory and spectroscopy      #
                  #               Directorship: Frank Neese             #
                  #        Max Planck Institute fuer Kohlenforschung    #
                  #                Kaiser Wilhelm Platz 1               #
                  #                 D-45470 Muelheim/Ruhr               #
                  #                      Germany                        #
                  #                                                     #
                  #                  All rights reserved                #
                  #                        -***-                        #
                  #######################################################


                         Program Version 4.2.0 -  RELEASE  -


 With contributions from (in alphabetic order):
   Daniel Aravena         : Magnetic Suceptibility
   Michael Atanasov       : Ab Initio Ligand Field Theory (pilot matlab implementation)
   Alexander A. Auer      : GIAO ZORA, VPT2
   Ute Becker             : Parallelization
   Giovanni Bistoni       : ED, misc. LED, open-shell LED, HFLED
   Martin Brehm           : Molecular dynamics
   Dmytro Bykov           : SCF Hessian
   Vijay G. Chilkuri      : MRCI spin determinant printing, contributions to CSF-ICE
   Dipayan Datta          : RHF DLPNO-CCSD density
   Achintya Kumar Dutta   : EOM-CC, STEOM-CC
   Dmitry Ganyushin       : Spin-Orbit,Spin-Spin,Magnetic field MRCI
   Miquel Garcia          : C-PCM Hessian, Gaussian charge scheme
   Yang Guo               : DLPNO-NEVPT2, CIM, IAO-localization
   Andreas Hansen         : Spin unrestricted coupled pair/coupled cluster methods
   Benjamin Helmich-Paris : CASSCF linear response (MC-RPA)
   Lee Huntington         : MR-EOM, pCC
   Robert Izsak           : Overlap fitted RIJCOSX, COSX-SCS-MP3, EOM
   Christian Kollmar      : KDIIS, OOCD, Brueckner-CCSD(T), CCSD density
   Simone Kossmann        : Meta GGA functionals, TD-DFT gradient, OOMP2, MP2 Hessian
   Martin Krupicka        : AUTO-CI
   Lucas Lang             : DCDCAS
   Dagmar Lenk            : GEPOL surface, SMD
   Dimitrios Liakos       : Extrapolation schemes; Compound Job, initial MDCI parallelization
   Dimitrios Manganas     : Further ROCIS development; embedding schemes
   Dimitrios Pantazis     : SARC Basis sets
   Taras Petrenko         : DFT Hessian,TD-DFT gradient, ASA, ECA, R-Raman, ABS, FL, XAS/XES, NRVS
   Peter Pinski           : DLPNO-MP2, DLPNO-MP2 Gradient
   Christoph Reimann      : Effective Core Potentials
   Marius Retegan         : Local ZFS, SOC
   Christoph Riplinger    : Optimizer, TS searches, QM/MM, DLPNO-CCSD(T), (RO)-DLPNO pert. Triples
   Tobias Risthaus        : Range-separated hybrids, TD-DFT gradient, RPA, STAB
   Michael Roemelt        : Original ROCIS implementation
   Masaaki Saitow         : Open-shell DLPNO-CCSD energy and density
   Barbara Sandhoefer     : DKH picture change effects
   Avijit Sen             : IP-ROCIS
   Kantharuban Sivalingam : CASSCF convergence, NEVPT2, FIC-MRCI
   Bernardo de Souza      : ESD, SOC TD-DFT
   Georgi Stoychev        : AutoAux, RI-MP2 NMR
   Willem Van den Heuvel  : Paramagnetic NMR
   Boris Wezisla          : Elementary symmetry handling
   Frank Wennmohs         : Technical directorship


 We gratefully acknowledge several colleagues who have allowed us to
 interface, adapt or use parts of their codes:
   Stefan Grimme, W. Hujo, H. Kruse,             : VdW corrections, initial TS optimization,
                  C. Bannwarth                     DFT functionals, gCP, sTDA/sTD-DF
   Ed Valeev, F. Pavosevic, A. Kumar             : LibInt (2-el integral package), F12 methods
   Garnet Chan, S. Sharma, J. Yang, R. Olivares  : DMRG
   Ulf Ekstrom                                   : XCFun DFT Library
   Mihaly Kallay                                 : mrcc  (arbitrary order and MRCC methods)
   Andreas Klamt, Michael Diedenhofen            : otool_cosmo (COSMO solvation model)
   Jiri Pittner, Ondrej Demel                    : Mk-CCSD
   Frank Weinhold                                : gennbo (NPA and NBO analysis)
   Christopher J. Cramer and Donald G. Truhlar   : smd solvation model
   Lars Goerigk                                  : TD-DFT with DH, B97 family of functionals
   V. Asgeirsson, H. Jonsson                     : NEB implementation
   FAccTs GmbH                                   : IRC, NEB, NEB-TS, Multilevel, MM, QM/MM, CI optimization
   S Lehtola, MJT Oliveira, MAL Marques          : LibXC Library


 Your calculation uses the libint2 library for the computation of 2-el integrals
 For citations please refer to: http://libint.valeyev.net

 Your ORCA version has been built with support for libXC version: 4.2.3
 For citations please refer to: https://tddft.org/programs/libxc/

 This ORCA versions uses:
   CBLAS   interface :  Fast vector & matrix operations
   LAPACKE interface :  Fast linear algebra routines
   SCALAPACK package :  Parallel linear algebra routines


Your calculation utilizes the atom-pairwise dispersion correction
with the Becke-Johnson damping scheme (D3BJ)
Cite in your paper:
S.Grimme, S.Ehrlich, L.Goerigk, J Comput Chem, (2011), 32, 1456–1465 
S.Grimme, J.Antony, S.Ehrlich and H.Krieg, J.Chem.Phys., 132, (2010), 154104 
   

----- Orbital basis set information -----
Your calculation utilizes the basis: def2-TZVPPD
   F. Weigend and R. Ahlrichs, Phys. Chem. Chem. Phys. 7, 3297 (2005).
   D. Rappoport and F. Furche, J. Chem. Phys. 133 134105 (2010).

----- AuxJK basis set information -----
Your calculation utilizes the auxiliary basis: def2/JK
   H-Ba, Hf-Rn: F. Weigend, J. Comput. Chem. 29, 167 (2008).

================================================================================
                                        WARNINGS
                       Please study these warnings very carefully!
================================================================================


INFO   : the flag for use of LIBINT has been found!

================================================================================
                                       INPUT FILE
================================================================================
NAME = MOR15_ed28.in
|  1> #
|  2> # MOR15_ed28 TPSSh-D3BJ/Def2-TZVPPD
|  3> #
|  4> ! tpssh d3bj def2-tzvppd def2/jk grid4 nofinalgrid
|  5> 
|  6> *xyz 0 1
|  7> P        2.231289   -0.430274   -0.463190 
|  8> P       -2.231227    0.430230   -0.463237 
|  9> C        0.601806    0.475539   -0.398801 
| 10> C       -0.601746   -0.475582   -0.398812 
| 11> H        0.558406    1.125089   -1.282007 
| 12> H        0.584231    1.127683    0.485308 
| 13> H       -0.558397   -1.125071   -1.282069 
| 14> H       -0.584133   -1.127767    0.485258 
| 15> C       -2.297387    1.057835    1.283006 
| 16> H       -3.294023    1.464895    1.482076 
| 17> H       -1.575039    1.869076    1.414857 
| 18> H       -2.084239    0.266904    2.013068 
| 19> C       -3.365229   -1.028103   -0.282748 
| 20> H       -3.089031   -1.663694    0.567640 
| 21> H       -3.336618   -1.627593   -1.198231 
| 22> H       -4.392612   -0.676718   -0.143291 
| 23> C        3.365219    1.028123   -0.282780 
| 24> H        4.392633    0.676869   -0.143242 
| 25> H        3.088901    1.663766    0.567523 
| 26> H        3.336575    1.627522   -1.198328 
| 27> C        2.297280   -1.057763    1.283073 
| 28> H        1.574883   -1.868971    1.414841 
| 29> H        2.084009   -0.266765    2.013028 
| 30> H        3.293857   -1.464863    1.482348 
| 31> *
| 32> 
| 33> %maxcore 5000
| 34> 
| 35> %pal
| 36> nprocs = 24
| 37> end
| 38> 
| 39> 
| 40>                          ****END OF INPUT****
================================================================================

                       ****************************
                       * Single Point Calculation *
                       ****************************

---------------------------------
CARTESIAN COORDINATES (ANGSTROEM)
---------------------------------
  P      2.231289   -0.430274   -0.463190
  P     -2.231227    0.430230   -0.463237
  C      0.601806    0.475539   -0.398801
  C     -0.601746   -0.475582   -0.398812
  H      0.558406    1.125089   -1.282007
  H      0.584231    1.127683    0.485308
  H     -0.558397   -1.125071   -1.282069
  H     -0.584133   -1.127767    0.485258
  C     -2.297387    1.057835    1.283006
  H     -3.294023    1.464895    1.482076
  H     -1.575039    1.869076    1.414857
  H     -2.084239    0.266904    2.013068
  C     -3.365229   -1.028103   -0.282748
  H     -3.089031   -1.663694    0.567640
  H     -3.336618   -1.627593   -1.198231
  H     -4.392612   -0.676718   -0.143291
  C      3.365219    1.028123   -0.282780
  H      4.392633    0.676869   -0.143242
  H      3.088901    1.663766    0.567523
  H      3.336575    1.627522   -1.198328
  C      2.297280   -1.057763    1.283073
  H      1.574883   -1.868971    1.414841
  H      2.084009   -0.266765    2.013028
  H      3.293857   -1.464863    1.482348

----------------------------
CARTESIAN COORDINATES (A.U.)
----------------------------
  NO LB      ZA    FRAG     MASS         X           Y           Z
   0 P    15.0000    0    30.974    4.216525   -0.813100   -0.875302
   1 P    15.0000    0    30.974   -4.216408    0.813017   -0.875391
   2 C     6.0000    0    12.011    1.137249    0.898638   -0.753625
   3 C     6.0000    0    12.011   -1.137135   -0.898720   -0.753645
   4 H     1.0000    0     1.008    1.055234    2.126110   -2.422642
   5 H     1.0000    0     1.008    1.104037    2.131012    0.917099
   6 H     1.0000    0     1.008   -1.055217   -2.126076   -2.422759
   7 H     1.0000    0     1.008   -1.103851   -2.131171    0.917005
   8 C     6.0000    0    12.011   -4.341432    1.999018    2.424530
   9 H     1.0000    0     1.008   -6.224801    2.768250    2.800718
  10 H     1.0000    0     1.008   -2.976392    3.532042    2.673692
  11 H     1.0000    0     1.008   -3.938641    0.504375    3.804147
  12 C     6.0000    0    12.011   -6.359361   -1.942833   -0.534316
  13 H     1.0000    0     1.008   -5.837423   -3.143926    1.072684
  14 H     1.0000    0     1.008   -6.305294   -3.075705   -2.264328
  15 H     1.0000    0     1.008   -8.300834   -1.278812   -0.270781
  16 C     6.0000    0    12.011    6.359342    1.942871   -0.534377
  17 H     1.0000    0     1.008    8.300873    1.279097   -0.270688
  18 H     1.0000    0     1.008    5.837177    3.144062    1.072463
  19 H     1.0000    0     1.008    6.305213    3.075571   -2.264512
  20 C     6.0000    0    12.011    4.341230   -1.998882    2.424657
  21 H     1.0000    0     1.008    2.976098   -3.531843    2.673662
  22 H     1.0000    0     1.008    3.938206   -0.504113    3.804072
  23 H     1.0000    0     1.008    6.224488   -2.768190    2.801232

--------------------------------
INTERNAL COORDINATES (ANGSTROEM)
--------------------------------
 P      0   0   0     0.000000000000     0.00000000     0.00000000
 P      1   0   0     4.544723994533     0.00000000     0.00000000
 C      1   2   0     1.865437745297    18.25878722     0.00000000
 C      3   1   2     1.534004098256   112.59856264     5.18673385
 H      3   1   2     1.097201713878   107.11145876   244.59206200
 H      3   1   2     1.098749016492   109.26586659   128.78377392
 H      4   3   1     1.097204641337   109.63525465   303.41570458
 H      4   3   1     1.098742579904   110.82090466    61.55367006
 C      2   1   3     1.856779415190    95.68021169   295.39853301
 H      9   2   1     1.094810497299   109.21515329   172.53236715
 H      9   2   1     1.094204404755   109.90133183    54.63603152
 H      9   2   1     1.097266804615   112.03502578   293.26674905
 C      2   1   3     1.856144378548   116.81629160   192.58227770
 H     13   2   1     1.097005471741   112.13377164    50.40437151
 H     13   2   1     1.094676195370   109.44981178   289.40299078
 H     13   2   1     1.094730789630   109.48504914   171.36006737
 C      1   2  13     1.856142996272   116.81357789   192.50738701
 H     17   1   2     1.094728164138   109.48910105   171.35783181
 H     17   1   2     1.096999932717   112.13141009    50.40009392
 H     17   1   2     1.094681588518   109.44766045   289.40227442
 C      1   2  13     1.856753005214    95.67558576   295.32457475
 H     21   1   2     1.094202289660   109.89751991    54.63623817
 H     21   1   2     1.097267814834   112.03246312   293.27106320
 H     21   1   2     1.094808957103   109.22046579   172.53215046

---------------------------
INTERNAL COORDINATES (A.U.)
---------------------------
 P      0   0   0     0.000000000000     0.00000000     0.00000000
 P      1   0   0     8.588283703927     0.00000000     0.00000000
 C      1   2   0     3.525166458491    18.25878722     0.00000000
 C      3   1   2     2.898847634017   112.59856264     5.18673385
 H      3   1   2     2.073410752898   107.11145876   244.59206200
 H      3   1   2     2.076334731085   109.26586659   128.78377392
 H      4   3   1     2.073416284994   109.63525465   303.41570458
 H      4   3   1     2.076322567697   110.82090466    61.55367006
 C      2   1   3     3.508804585812    95.68021169   295.39853301
 H      9   2   1     2.068892008437   109.21515329   172.53236715
 H      9   2   1     2.067746659518   109.90133183    54.63603152
 H      9   2   1     2.073533756564   112.03502578   293.26674905
 C      2   1   3     3.507604540472   116.81629160   192.58227770
 H     13   2   1     2.073039909003   112.13377164    50.40437151
 H     13   2   1     2.068638214572   109.44981178   289.40299078
 H     13   2   1     2.068741382771   109.48504914   171.36006737
 C      1   2  13     3.507601928350   116.81357789   192.50738701
 H     17   1   2     2.068736421310   109.48910105   171.35783181
 H     17   1   2     2.073029441766   112.13141009    50.40009392
 H     17   1   2     2.068648406146   109.44766045   289.40227442
 C      1   2  13     3.508754678190    95.67558576   295.32457475
 H     21   1   2     2.067742662567   109.89751991    54.63623817
 H     21   1   2     2.073535665602   112.03246312   293.27106320
 H     21   1   2     2.068889097890   109.22046579   172.53215046

---------------------
BASIS SET INFORMATION
---------------------
There are 3 groups of distinct atoms

 Group   1 Type P   : 15s9p4d1f contracted to 6s5p4d1f pattern {732111/51111/1111/1}
 Group   2 Type C   : 12s6p3d1f contracted to 6s3p3d1f pattern {621111/411/111/1}
 Group   3 Type H   : 5s3p1d contracted to 3s3p1d pattern {311/111/1}

Atom   0P    basis set group =>   1
Atom   1P    basis set group =>   1
Atom   2C    basis set group =>   2
Atom   3C    basis set group =>   2
Atom   4H    basis set group =>   3
Atom   5H    basis set group =>   3
Atom   6H    basis set group =>   3
Atom   7H    basis set group =>   3
Atom   8C    basis set group =>   2
Atom   9H    basis set group =>   3
Atom  10H    basis set group =>   3
Atom  11H    basis set group =>   3
Atom  12C    basis set group =>   2
Atom  13H    basis set group =>   3
Atom  14H    basis set group =>   3
Atom  15H    basis set group =>   3
Atom  16C    basis set group =>   2
Atom  17H    basis set group =>   3
Atom  18H    basis set group =>   3
Atom  19H    basis set group =>   3
Atom  20C    basis set group =>   2
Atom  21H    basis set group =>   3
Atom  22H    basis set group =>   3
Atom  23H    basis set group =>   3
----------------------------------
AUXILIARY/JK BASIS SET INFORMATION
----------------------------------
There are 3 groups of distinct atoms

 Group   1 Type P   : 16s12p10d4f1g contracted to 13s11p9d4f1g pattern {4111111111111/21111111111/211111111/1111/1}
 Group   2 Type C   : 14s10p6d2f1g contracted to 10s8p5d1f1g pattern {5111111111/31111111/21111/2/1}
 Group   3 Type H   : 4s2p2d contracted to 2s2p2d pattern {31/11/11}

Atom   0P    basis set group =>   1
Atom   1P    basis set group =>   1
Atom   2C    basis set group =>   2
Atom   3C    basis set group =>   2
Atom   4H    basis set group =>   3
Atom   5H    basis set group =>   3
Atom   6H    basis set group =>   3
Atom   7H    basis set group =>   3
Atom   8C    basis set group =>   2
Atom   9H    basis set group =>   3
Atom  10H    basis set group =>   3
Atom  11H    basis set group =>   3
Atom  12C    basis set group =>   2
Atom  13H    basis set group =>   3
Atom  14H    basis set group =>   3
Atom  15H    basis set group =>   3
Atom  16C    basis set group =>   2
Atom  17H    basis set group =>   3
Atom  18H    basis set group =>   3
Atom  19H    basis set group =>   3
Atom  20C    basis set group =>   2
Atom  21H    basis set group =>   3
Atom  22H    basis set group =>   3
Atom  23H    basis set group =>   3


           ************************************************************
           *        Program running with 24 parallel MPI-processes    *
           *              working on a common directory               *
           ************************************************************
------------------------------------------------------------------------------
                           ORCA GTO INTEGRAL CALCULATION
------------------------------------------------------------------------------

                         BASIS SET STATISTICS AND STARTUP INFO

 # of primitive gaussian shells          ...  334
 # of primitive gaussian functions       ...  754
 # of contracted shells                  ...  222
 # of contracted basis functions         ...  590
 Highest angular momentum                ...    3
 Maximum contraction depth               ...    7
 Integral package used                   ... LIBINT
 Integral threshhold            Thresh   ...  1.000e-10
 Primitive cut-off              TCut     ...  1.000e-11


------------------------------ INTEGRAL EVALUATION ----------------------------


 * One electron integrals 
 Pre-screening matrix                    ... done
 Shell pair data                         ... done (   0.006 sec)



           ************************************************************
           *        Program running with 24 parallel MPI-processes    *
           *              working on a common directory               *
           ************************************************************
-------------------------------------------------------------------------------
                                 ORCA SCF
-------------------------------------------------------------------------------

------------
SCF SETTINGS
------------
Hamiltonian:
 Density Functional     Method          .... DFT(GTOs)
 Exchange Functional    Exchange        .... TPSS
 Correlation Functional Correlation     .... TPSS
 LDA part of GGA corr.  LDAOpt          .... PW91-LDA
 Gradients option       PostSCFGGA      .... off
 Hybrid DFT is turned on
   Fraction HF Exchange ScalHFX         ....  0.100000
   Scaling of DF-GGA-X  ScalDFX         ....  0.900000
   Scaling of DF-GGA-C  ScalDFC         ....  1.000000
   Scaling of DF-LDA-C  ScalLDAC        ....  1.000000
   Perturbative correction              ....  0.000000
   Density functional embedding theory  .... OFF
   NL short-range parameter             ....  5.200000


General Settings:
 Integral files         IntName         .... MOR15_ed28
 Hartree-Fock type      HFTyp           .... RHF
 Total Charge           Charge          ....    0
 Multiplicity           Mult            ....    1
 Number of Electrons    NEL             ....   82
 Basis Dimension        Dim             ....  590
 Nuclear Repulsion      ENuc            ....    544.3422911657 Eh

Convergence Acceleration:
 DIIS                   CNVDIIS         .... on
   Start iteration      DIISMaxIt       ....    12
   Startup error        DIISStart       ....  0.200000
   # of expansion vecs  DIISMaxEq       ....     5
   Bias factor          DIISBfac        ....   1.050
   Max. coefficient     DIISMaxC        ....  10.000
 Newton-Raphson         CNVNR           .... off
 SOSCF                  CNVSOSCF        .... on
   Start iteration      SOSCFMaxIt      ....   150
   Startup grad/error   SOSCFStart      ....  0.003300
 Level Shifting         CNVShift        .... on
   Level shift para.    LevelShift      ....    0.2500
   Turn off err/grad.   ShiftErr        ....    0.0010
 Zerner damping         CNVZerner       .... off
 Static damping         CNVDamp         .... on
   Fraction old density DampFac         ....    0.7000
   Max. Damping (<1)    DampMax         ....    0.9800
   Min. Damping (>=0)   DampMin         ....    0.0000
   Turn off err/grad.   DampErr         ....    0.1000
 Fernandez-Rico         CNVRico         .... off

SCF Procedure:
 Maximum # iterations   MaxIter         ....   125
 SCF integral mode      SCFMode         .... Direct
   Integral package                     .... LIBINT
 Reset frequency        DirectResetFreq ....    20
 Integral Threshold     Thresh          ....  1.000e-10 Eh
 Primitive CutOff       TCut            ....  1.000e-11 Eh

Convergence Tolerance:
 Convergence Check Mode ConvCheckMode   .... Total+1el-Energy
 Convergence forced     ConvForced      .... 0
 Energy Change          TolE            ....  1.000e-06 Eh
 1-El. energy change                    ....  1.000e-03 Eh
 Orbital Gradient       TolG            ....  5.000e-05
 Orbital Rotation angle TolX            ....  5.000e-05
 DIIS Error             TolErr          ....  1.000e-06


Diagonalization of the overlap matrix:
Smallest eigenvalue                        ... 4.034e-06
Time for diagonalization                   ...    0.049 sec
Threshold for overlap eigenvalues          ... 1.000e-08
Number of eigenvalues below threshold      ... 0
Time for construction of square roots      ...    0.056 sec
Total time needed                          ...    0.106 sec

-------------------
DFT GRID GENERATION
-------------------

General Integration Accuracy     IntAcc      ...  4.670
Radial Grid Type                 RadialGrid  ... Gauss-Chebyshev
Angular Grid (max. acc.)         AngularGrid ... Lebedev-302
Angular grid pruning method      GridPruning ... 3 (G Style)
Weight generation scheme         WeightScheme... Becke
Basis function cutoff            BFCut       ...    1.0000e-10
Integration weight cutoff        WCut        ...    1.0000e-14
Grids for H and He will be reduced by one unit

# of grid points (after initial pruning)     ... 105268 (   0.0 sec)
# of grid points (after weights+screening)   ...  94752 (   0.0 sec)
nearest neighbour list constructed           ...    0.0 sec
Grid point re-assignment to atoms done       ...    0.0 sec
Grid point division into batches done        ...    0.3 sec
Reduced shell lists constructed in    0.3 sec

Total number of grid points                  ...    94752
Total number of batches                      ...     1492
Average number of points per batch           ...       63
Average number of grid points per atom       ...     3948
Average number of shells per batch           ...   137.17 (61.79%)
Average number of basis functions per batch  ...   363.45 (61.60%)
Average number of large shells per batch     ...   106.38 (77.55%)
Average number of large basis fcns per batch ...   281.97 (77.58%)
Maximum spatial batch extension              ...   8.99, 13.38, 13.20 au
Average spatial batch extension              ...   0.08,  0.08,  0.08 au

Time for grid setup =    0.408 sec

------------------------------
INITIAL GUESS: MODEL POTENTIAL
------------------------------
Loading Hartree-Fock densities                     ... done
Calculating cut-offs                               ... done
Setting up the integral package                    ... done
Initializing the effective Hamiltonian             ... done
Starting the Coulomb interaction                   ... done (   0.0 sec)
Reading the grid                                   ... done
Mapping shells                                     ... done
Starting the XC term evaluation                    ... done (   0.2 sec)
  promolecular density results
     # of electrons  =     81.992887947
     EX              =    -80.425383640
     EC              =     -2.820273450
     EX+EC           =    -83.245657090
Transforming the Hamiltonian                       ... done (   0.0 sec)
Diagonalizing the Hamiltonian                      ... done (   0.0 sec)
Back transforming the eigenvectors                 ... done (   0.0 sec)
Now organizing SCF variables                       ... done
                      ------------------
                      INITIAL GUESS DONE (   0.8 sec)
                      ------------------
--------------
SCF ITERATIONS
--------------
ITER       Energy         Delta-E        Max-DP      RMS-DP      [F,P]     Damp
               ***  Starting incremental Fock matrix formation  ***
  0   -920.8222285828   0.000000000000 0.09608040  0.00075781  0.1950557 0.7000
  1   -920.9891520085  -0.166923425648 0.08312393  0.00064515  0.0971951 0.7000
                               ***Turning on DIIS***
  2   -921.0519781201  -0.062826111633 0.18362336  0.00153127  0.0323523 0.0000
  3   -921.1350621261  -0.083084005962 0.02390950  0.00032494  0.0592707 0.0000
  4   -921.1656441509  -0.030582024778 0.00992914  0.00013070  0.0132521 0.0000
                      *** Initiating the SOSCF procedure ***
                           *** Shutting down DIIS ***
                      *** Re-Reading the Fockian *** 
                      *** Removing any level shift *** 
ITER      Energy       Delta-E        Grad      Rot      Max-DP    RMS-DP
  5   -921.16717920  -0.0015350464  0.000983  0.000983  0.005070  0.000053
               *** Restarting incremental Fock matrix formation ***
  6   -921.16730093  -0.0001217331  0.000438  0.001191  0.002489  0.000054
  7   -921.16729985   0.0000010769  0.000375  0.000534  0.000680  0.000011
  8   -921.16731528  -0.0000154268  0.000062  0.000211  0.000779  0.000007
  9   -921.16731507   0.0000002090  0.000077  0.000089  0.000186  0.000003
                 **** Energy Check signals convergence ****
              ***Rediagonalizing the Fockian in SOSCF/NRSCF***

               *****************************************************
               *                     SUCCESS                       *
               *           SCF CONVERGED AFTER  10 CYCLES          *
               *****************************************************


----------------
TOTAL SCF ENERGY
----------------

Total Energy       :         -921.16731563 Eh          -25066.23700 eV

Components:
Nuclear Repulsion  :          544.34229117 Eh           14812.30679 eV
Electronic Energy  :        -1465.50960680 Eh          -39878.54379 eV
One Electron Energy:        -2345.85171276 Eh          -63833.87036 eV
Two Electron Energy:          880.34210596 Eh           23955.32657 eV

Virial components:
Potential Energy   :        -1839.45873500 Eh          -50054.21689 eV
Kinetic Energy     :          918.29141937 Eh           24987.97989 eV
Virial Ratio       :            2.00313179


DFT components:
N(Alpha)           :       41.000205970954 electrons
N(Beta)            :       41.000205970954 electrons
N(Total)           :       82.000411941908 electrons
E(X)               :      -74.176635899353 Eh       
E(C)               :       -2.823324878618 Eh       
E(XC)              :      -76.999960777971 Eh       
DFET-embed. en.    :        0.000000000000 Eh       

---------------
SCF CONVERGENCE
---------------

  Last Energy change         ...   -5.5856e-07  Tolerance :   1.0000e-06
  Last MAX-Density change    ...    1.0174e-03  Tolerance :   1.0000e-05
  Last RMS-Density change    ...    4.8657e-06  Tolerance :   1.0000e-06
  Last Orbital Gradient      ...    9.0287e-06  Tolerance :   5.0000e-05
  Last Orbital Rotation      ...    2.8406e-05  Tolerance :   5.0000e-05

             **** THE GBW FILE WAS UPDATED (MOR15_ed28.gbw) ****
             **** DENSITY FILE WAS UPDATED (MOR15_ed28.scfp) ****
             **** ENERGY FILE WAS UPDATED (MOR15_ed28.en.tmp) ****
             **** THE GBW FILE WAS UPDATED (MOR15_ed28.gbw) ****
             **** DENSITY FILE WAS UPDATED (MOR15_ed28.scfp) ****
----------------
ORBITAL ENERGIES
----------------

  NO   OCC          E(Eh)            E(eV) 
   0   2.0000     -76.907985     -2092.7727 
   1   2.0000     -76.907983     -2092.7726 
   2   2.0000     -10.117455      -275.3100 
   3   2.0000     -10.117293      -275.3055 
   4   2.0000     -10.110019      -275.1076 
   5   2.0000     -10.110019      -275.1076 
   6   2.0000     -10.109576      -275.0955 
   7   2.0000     -10.109575      -275.0955 
   8   2.0000      -6.463273      -175.8746 
   9   2.0000      -6.463271      -175.8745 
  10   2.0000      -4.612910      -125.5237 
  11   2.0000      -4.612908      -125.5236 
  12   2.0000      -4.612808      -125.5209 
  13   2.0000      -4.612807      -125.5209 
  14   2.0000      -4.607803      -125.3847 
  15   2.0000      -4.607802      -125.3847 
  16   2.0000      -0.767740       -20.8913 
  17   2.0000      -0.729403       -19.8481 
  18   2.0000      -0.700393       -19.0587 
  19   2.0000      -0.671647       -18.2764 
  20   2.0000      -0.671402       -18.2698 
  21   2.0000      -0.610371       -16.6090 
  22   2.0000      -0.512990       -13.9592 
  23   2.0000      -0.505726       -13.7615 
  24   2.0000      -0.448016       -12.1911 
  25   2.0000      -0.417789       -11.3686 
  26   2.0000      -0.413602       -11.2547 
  27   2.0000      -0.411790       -11.2054 
  28   2.0000      -0.407725       -11.0948 
  29   2.0000      -0.386747       -10.5239 
  30   2.0000      -0.385017       -10.4769 
  31   2.0000      -0.384098       -10.4519 
  32   2.0000      -0.383165       -10.4265 
  33   2.0000      -0.360272        -9.8035 
  34   2.0000      -0.351600        -9.5675 
  35   2.0000      -0.341945        -9.3048 
  36   2.0000      -0.310323        -8.4443 
  37   2.0000      -0.307901        -8.3784 
  38   2.0000      -0.278324        -7.5736 
  39   2.0000      -0.217241        -5.9114 
  40   2.0000      -0.214477        -5.8362 
  41   0.0000       0.000964         0.0262 
  42   0.0000       0.008528         0.2321 
  43   0.0000       0.011392         0.3100 
  44   0.0000       0.012091         0.3290 
  45   0.0000       0.017749         0.4830 
  46   0.0000       0.037807         1.0288 
  47   0.0000       0.041993         1.1427 
  48   0.0000       0.050260         1.3676 
  49   0.0000       0.050955         1.3866 
  50   0.0000       0.054498         1.4830 
  51   0.0000       0.062271         1.6945 
  52   0.0000       0.065050         1.7701 
  53   0.0000       0.069895         1.9019 
  54   0.0000       0.073183         1.9914 
  55   0.0000       0.077955         2.1213 
  56   0.0000       0.084950         2.3116 
  57   0.0000       0.094961         2.5840 
  58   0.0000       0.101013         2.7487 
  59   0.0000       0.104603         2.8464 
  60   0.0000       0.107412         2.9228 
  61   0.0000       0.109758         2.9867 
  62   0.0000       0.113209         3.0806 
  63   0.0000       0.117948         3.2095 
  64   0.0000       0.123581         3.3628 
  65   0.0000       0.127301         3.4640 
  66   0.0000       0.131042         3.5658 
  67   0.0000       0.132809         3.6139 
  68   0.0000       0.141789         3.8583 
  69   0.0000       0.153863         4.1868 
  70   0.0000       0.157774         4.2933 
  71   0.0000       0.165297         4.4980 
  72   0.0000       0.167482         4.5574 
  73   0.0000       0.182088         4.9549 
  74   0.0000       0.182195         4.9578 
  75   0.0000       0.187373         5.0987 
  76   0.0000       0.190762         5.1909 
  77   0.0000       0.196323         5.3422 
  78   0.0000       0.202913         5.5215 
  79   0.0000       0.206143         5.6094 
  80   0.0000       0.207345         5.6421 
  81   0.0000       0.212215         5.7747 
  82   0.0000       0.216267         5.8849 
  83   0.0000       0.221402         6.0246 
  84   0.0000       0.227634         6.1942 
  85   0.0000       0.231844         6.3088 
  86   0.0000       0.235501         6.4083 
  87   0.0000       0.242119         6.5884 
  88   0.0000       0.248735         6.7684 
  89   0.0000       0.250418         6.8142 
  90   0.0000       0.255398         6.9497 
  91   0.0000       0.255568         6.9543 
  92   0.0000       0.258115         7.0237 
  93   0.0000       0.261193         7.1074 
  94   0.0000       0.261455         7.1145 
  95   0.0000       0.271385         7.3848 
  96   0.0000       0.273975         7.4552 
  97   0.0000       0.276741         7.5305 
  98   0.0000       0.280620         7.6361 
  99   0.0000       0.285033         7.7561 
 100   0.0000       0.285291         7.7632 
 101   0.0000       0.290618         7.9081 
 102   0.0000       0.296384         8.0650 
 103   0.0000       0.299000         8.1362 
 104   0.0000       0.303390         8.2557 
 105   0.0000       0.306515         8.3407 
 106   0.0000       0.315419         8.5830 
 107   0.0000       0.321294         8.7428 
 108   0.0000       0.322657         8.7800 
 109   0.0000       0.327765         8.9189 
 110   0.0000       0.329348         8.9620 
 111   0.0000       0.331483         9.0201 
 112   0.0000       0.343270         9.3409 
 113   0.0000       0.348819         9.4918 
 114   0.0000       0.353012         9.6059 
 115   0.0000       0.357448         9.7267 
 116   0.0000       0.358875         9.7655 
 117   0.0000       0.361405         9.8343 
 118   0.0000       0.370295        10.0762 
 119   0.0000       0.372124        10.1260 
 120   0.0000       0.375331        10.2133 
 121   0.0000       0.377789        10.2802 
 122   0.0000       0.385519        10.4905 
 123   0.0000       0.388394        10.5687 
 124   0.0000       0.393484        10.7072 
 125   0.0000       0.399947        10.8831 
 126   0.0000       0.402472        10.9518 
 127   0.0000       0.404618        11.0102 
 128   0.0000       0.407263        11.0822 
 129   0.0000       0.411720        11.2035 
 130   0.0000       0.414410        11.2767 
 131   0.0000       0.415611        11.3094 
 132   0.0000       0.425318        11.5735 
 133   0.0000       0.432594        11.7715 
 134   0.0000       0.435069        11.8388 
 135   0.0000       0.436828        11.8867 
 136   0.0000       0.439999        11.9730 
 137   0.0000       0.449111        12.2209 
 138   0.0000       0.455002        12.3812 
 139   0.0000       0.459957        12.5161 
 140   0.0000       0.461667        12.5626 
 141   0.0000       0.470693        12.8082 
 142   0.0000       0.472003        12.8439 
 143   0.0000       0.479928        13.0595 
 144   0.0000       0.479938        13.0598 
 145   0.0000       0.484787        13.1917 
 146   0.0000       0.484970        13.1967 
 147   0.0000       0.490808        13.3556 
 148   0.0000       0.491591        13.3769 
 149   0.0000       0.507801        13.8180 
 150   0.0000       0.525673        14.3043 
 151   0.0000       0.526231        14.3195 
 152   0.0000       0.529981        14.4215 
 153   0.0000       0.533269        14.5110 
 154   0.0000       0.542356        14.7582 
 155   0.0000       0.548415        14.9231 
 156   0.0000       0.550856        14.9896 
 157   0.0000       0.553418        15.0593 
 158   0.0000       0.554389        15.0857 
 159   0.0000       0.557548        15.1717 
 160   0.0000       0.559342        15.2205 
 161   0.0000       0.568868        15.4797 
 162   0.0000       0.576323        15.6826 
 163   0.0000       0.578411        15.7393 
 164   0.0000       0.587476        15.9860 
 165   0.0000       0.590873        16.0785 
 166   0.0000       0.595620        16.2076 
 167   0.0000       0.602287        16.3891 
 168   0.0000       0.610055        16.6004 
 169   0.0000       0.622005        16.9256 
 170   0.0000       0.628255        17.0957 
 171   0.0000       0.635279        17.2868 
 172   0.0000       0.638104        17.3637 
 173   0.0000       0.642942        17.4953 
 174   0.0000       0.653658        17.7869 
 175   0.0000       0.658338        17.9143 
 176   0.0000       0.671177        18.2637 
 177   0.0000       0.674612        18.3571 
 178   0.0000       0.678500        18.4629 
 179   0.0000       0.681337        18.5401 
 180   0.0000       0.682115        18.5613 
 181   0.0000       0.682175        18.5629 
 182   0.0000       0.689572        18.7642 
 183   0.0000       0.692582        18.8461 
 184   0.0000       0.702843        19.1253 
 185   0.0000       0.711614        19.3640 
 186   0.0000       0.717515        19.5246 
 187   0.0000       0.719021        19.5656 
 188   0.0000       0.725356        19.7379 
 189   0.0000       0.727521        19.7969 
 190   0.0000       0.728720        19.8295 
 191   0.0000       0.730176        19.8691 
 192   0.0000       0.740829        20.1590 
 193   0.0000       0.743409        20.2292 
 194   0.0000       0.746757        20.3203 
 195   0.0000       0.752105        20.4658 
 196   0.0000       0.765612        20.8334 
 197   0.0000       0.768537        20.9130 
 198   0.0000       0.773025        21.0351 
 199   0.0000       0.780219        21.2308 
 200   0.0000       0.789641        21.4872 
 201   0.0000       0.794580        21.6216 
 202   0.0000       0.796674        21.6786 
 203   0.0000       0.804521        21.8921 
 204   0.0000       0.806171        21.9370 
 205   0.0000       0.823842        22.4179 
 206   0.0000       0.829126        22.5617 
 207   0.0000       0.834123        22.6976 
 208   0.0000       0.854773        23.2596 
 209   0.0000       0.861451        23.4413 
 210   0.0000       0.865942        23.5635 
 211   0.0000       0.875326        23.8188 
 212   0.0000       0.886346        24.1187 
 213   0.0000       0.893305        24.3081 
 214   0.0000       0.916913        24.9505 
 215   0.0000       0.919799        25.0290 
 216   0.0000       0.930515        25.3206 
 217   0.0000       0.931060        25.3354 
 218   0.0000       0.944496        25.7011 
 219   0.0000       0.953453        25.9448 
 220   0.0000       0.962362        26.1872 
 221   0.0000       0.974759        26.5246 
 222   0.0000       0.985565        26.8186 
 223   0.0000       1.014855        27.6156 
 224   0.0000       1.029617        28.0173 
 225   0.0000       1.032621        28.0990 
 226   0.0000       1.045152        28.4400 
 227   0.0000       1.052644        28.6439 
 228   0.0000       1.077421        29.3181 
 229   0.0000       1.081490        29.4288 
 230   0.0000       1.090631        29.6776 
 231   0.0000       1.106608        30.1123 
 232   0.0000       1.113825        30.3087 
 233   0.0000       1.125146        30.6168 
 234   0.0000       1.127893        30.6915 
 235   0.0000       1.141239        31.0547 
 236   0.0000       1.141861        31.0716 
 237   0.0000       1.161576        31.6081 
 238   0.0000       1.184641        32.2357 
 239   0.0000       1.195266        32.5248 
 240   0.0000       1.207106        32.8470 
 241   0.0000       1.208337        32.8805 
 242   0.0000       1.214090        33.0371 
 243   0.0000       1.218561        33.1587 
 244   0.0000       1.219018        33.1712 
 245   0.0000       1.229437        33.4547 
 246   0.0000       1.243406        33.8348 
 247   0.0000       1.250783        34.0355 
 248   0.0000       1.257751        34.2251 
 249   0.0000       1.263138        34.3717 
 250   0.0000       1.279491        34.8167 
 251   0.0000       1.282437        34.8969 
 252   0.0000       1.291392        35.1406 
 253   0.0000       1.299788        35.3690 
 254   0.0000       1.316360        35.8200 
 255   0.0000       1.320174        35.9238 
 256   0.0000       1.326399        36.0932 
 257   0.0000       1.331721        36.2380 
 258   0.0000       1.348278        36.6885 
 259   0.0000       1.353705        36.8362 
 260   0.0000       1.361526        37.0490 
 261   0.0000       1.364511        37.1302 
 262   0.0000       1.376740        37.4630 
 263   0.0000       1.378048        37.4986 
 264   0.0000       1.387183        37.7472 
 265   0.0000       1.394609        37.9492 
 266   0.0000       1.413441        38.4617 
 267   0.0000       1.424268        38.7563 
 268   0.0000       1.443178        39.2709 
 269   0.0000       1.445513        39.3344 
 270   0.0000       1.452847        39.5340 
 271   0.0000       1.466301        39.9001 
 272   0.0000       1.468322        39.9551 
 273   0.0000       1.476764        40.1848 
 274   0.0000       1.515679        41.2437 
 275   0.0000       1.518526        41.3212 
 276   0.0000       1.529655        41.6240 
 277   0.0000       1.537842        41.8468 
 278   0.0000       1.547643        42.1135 
 279   0.0000       1.558645        42.4129 
 280   0.0000       1.569610        42.7113 
 281   0.0000       1.572568        42.7917 
 282   0.0000       1.579579        42.9825 
 283   0.0000       1.597474        43.4695 
 284   0.0000       1.602785        43.6140 
 285   0.0000       1.625139        44.2223 
 286   0.0000       1.625292        44.2264 
 287   0.0000       1.627783        44.2942 
 288   0.0000       1.632026        44.4097 
 289   0.0000       1.643624        44.7253 
 290   0.0000       1.643843        44.7312 
 291   0.0000       1.650634        44.9160 
 292   0.0000       1.655470        45.0476 
 293   0.0000       1.666616        45.3509 
 294   0.0000       1.668652        45.4063 
 295   0.0000       1.684878        45.8479 
 296   0.0000       1.685724        45.8709 
 297   0.0000       1.692212        46.0474 
 298   0.0000       1.711415        46.5700 
 299   0.0000       1.711979        46.5853 
 300   0.0000       1.720669        46.8218 
 301   0.0000       1.727170        46.9987 
 302   0.0000       1.752854        47.6976 
 303   0.0000       1.760128        47.8955 
 304   0.0000       1.779774        48.4301 
 305   0.0000       1.795485        48.8576 
 306   0.0000       1.796701        48.8907 
 307   0.0000       1.816407        49.4269 
 308   0.0000       1.851096        50.3709 
 309   0.0000       1.858395        50.5695 
 310   0.0000       1.862512        50.6815 
 311   0.0000       1.875202        51.0268 
 312   0.0000       1.880614        51.1741 
 313   0.0000       1.889211        51.4081 
 314   0.0000       1.896593        51.6089 
 315   0.0000       1.906092        51.8674 
 316   0.0000       1.917384        52.1747 
 317   0.0000       1.932924        52.5975 
 318   0.0000       1.933388        52.6102 
 319   0.0000       1.952191        53.1218 
 320   0.0000       1.956651        53.2432 
 321   0.0000       1.976041        53.7708 
 322   0.0000       2.005189        54.5640 
 323   0.0000       2.005734        54.5788 
 324   0.0000       2.049739        55.7762 
 325   0.0000       2.068438        56.2851 
 326   0.0000       2.085239        56.7422 
 327   0.0000       2.098185        57.0945 
 328   0.0000       2.126904        57.8760 
 329   0.0000       2.136764        58.1443 
 330   0.0000       2.193038        59.6756 
 331   0.0000       2.200212        59.8708 
 332   0.0000       2.243948        61.0609 
 333   0.0000       2.248902        61.1957 
 334   0.0000       2.269280        61.7502 
 335   0.0000       2.282160        62.1007 
 336   0.0000       2.288950        62.2855 
 337   0.0000       2.323620        63.2289 
 338   0.0000       2.329251        63.3821 
 339   0.0000       2.339307        63.6558 
 340   0.0000       2.397266        65.2329 
 341   0.0000       2.413599        65.6774 
 342   0.0000       2.421714        65.8982 
 343   0.0000       2.531738        68.8921 
 344   0.0000       2.569201        69.9115 
 345   0.0000       2.572383        69.9981 
 346   0.0000       2.604785        70.8798 
 347   0.0000       2.634376        71.6850 
 348   0.0000       2.669432        72.6389 
 349   0.0000       2.751783        74.8798 
 350   0.0000       2.790029        75.9206 
 351   0.0000       2.806814        76.3773 
 352   0.0000       2.836269        77.1788 
 353   0.0000       2.844316        77.3978 
 354   0.0000       2.846601        77.4600 
 355   0.0000       2.851144        77.5836 
 356   0.0000       2.873275        78.1858 
 357   0.0000       2.881185        78.4010 
 358   0.0000       2.891039        78.6692 
 359   0.0000       2.899126        78.8892 
 360   0.0000       2.903106        78.9975 
 361   0.0000       2.928287        79.6827 
 362   0.0000       2.929126        79.7056 
 363   0.0000       2.941158        80.0330 
 364   0.0000       2.945692        80.1563 
 365   0.0000       2.946666        80.1828 
 366   0.0000       2.961900        80.5974 
 367   0.0000       2.981528        81.1315 
 368   0.0000       2.997247        81.5592 
 369   0.0000       3.009276        81.8866 
 370   0.0000       3.019826        82.1736 
 371   0.0000       3.021423        82.2171 
 372   0.0000       3.027491        82.3822 
 373   0.0000       3.032473        82.5178 
 374   0.0000       3.035763        82.6073 
 375   0.0000       3.039616        82.7122 
 376   0.0000       3.048805        82.9622 
 377   0.0000       3.056996        83.1851 
 378   0.0000       3.067277        83.4649 
 379   0.0000       3.072879        83.6173 
 380   0.0000       3.098020        84.3014 
 381   0.0000       3.102961        84.4358 
 382   0.0000       3.104616        84.4809 
 383   0.0000       3.120137        84.9032 
 384   0.0000       3.135880        85.3316 
 385   0.0000       3.139942        85.4422 
 386   0.0000       3.159845        85.9837 
 387   0.0000       3.170993        86.2871 
 388   0.0000       3.171344        86.2967 
 389   0.0000       3.184999        86.6682 
 390   0.0000       3.199878        87.0731 
 391   0.0000       3.223769        87.7232 
 392   0.0000       3.226954        87.8099 
 393   0.0000       3.230393        87.9035 
 394   0.0000       3.241018        88.1926 
 395   0.0000       3.261084        88.7386 
 396   0.0000       3.263950        88.8166 
 397   0.0000       3.265479        88.8582 
 398   0.0000       3.271770        89.0294 
 399   0.0000       3.275063        89.1190 
 400   0.0000       3.283338        89.3442 
 401   0.0000       3.303978        89.9058 
 402   0.0000       3.320547        90.3567 
 403   0.0000       3.329506        90.6005 
 404   0.0000       3.359824        91.4255 
 405   0.0000       3.390931        92.2719 
 406   0.0000       3.400724        92.5384 
 407   0.0000       3.402674        92.5915 
 408   0.0000       3.421070        93.0920 
 409   0.0000       3.444342        93.7253 
 410   0.0000       3.461030        94.1794 
 411   0.0000       3.477330        94.6230 
 412   0.0000       3.486768        94.8798 
 413   0.0000       3.495136        95.1075 
 414   0.0000       3.495761        95.1245 
 415   0.0000       3.510970        95.5384 
 416   0.0000       3.540497        96.3418 
 417   0.0000       3.542773        96.4038 
 418   0.0000       3.546794        96.5132 
 419   0.0000       3.555216        96.7423 
 420   0.0000       3.567546        97.0779 
 421   0.0000       3.572049        97.2004 
 422   0.0000       3.594820        97.8200 
 423   0.0000       3.600566        97.9764 
 424   0.0000       3.601471        98.0010 
 425   0.0000       3.613493        98.3281 
 426   0.0000       3.615599        98.3855 
 427   0.0000       3.619364        98.4879 
 428   0.0000       3.622093        98.5622 
 429   0.0000       3.637751        98.9882 
 430   0.0000       3.664407        99.7136 
 431   0.0000       3.671526        99.9073 
 432   0.0000       3.679978       100.1373 
 433   0.0000       3.713641       101.0533 
 434   0.0000       3.718498       101.1855 
 435   0.0000       3.733845       101.6031 
 436   0.0000       3.737330       101.6979 
 437   0.0000       3.752717       102.1166 
 438   0.0000       3.763622       102.4134 
 439   0.0000       3.780374       102.8692 
 440   0.0000       3.795015       103.2676 
 441   0.0000       3.797626       103.3386 
 442   0.0000       3.811876       103.7264 
 443   0.0000       3.823142       104.0330 
 444   0.0000       3.849107       104.7395 
 445   0.0000       3.850711       104.7832 
 446   0.0000       3.881224       105.6135 
 447   0.0000       3.896913       106.0404 
 448   0.0000       3.900597       106.1406 
 449   0.0000       3.914093       106.5079 
 450   0.0000       3.936941       107.1296 
 451   0.0000       3.954021       107.5944 
 452   0.0000       3.960005       107.7572 
 453   0.0000       3.976806       108.2144 
 454   0.0000       3.977284       108.2274 
 455   0.0000       3.992692       108.6467 
 456   0.0000       4.010663       109.1357 
 457   0.0000       4.040485       109.9472 
 458   0.0000       4.070003       110.7504 
 459   0.0000       4.084270       111.1386 
 460   0.0000       4.091643       111.3393 
 461   0.0000       4.104489       111.6888 
 462   0.0000       4.107772       111.7782 
 463   0.0000       4.129844       112.3788 
 464   0.0000       4.130054       112.3845 
 465   0.0000       4.167004       113.3899 
 466   0.0000       4.173814       113.5752 
 467   0.0000       4.184923       113.8776 
 468   0.0000       4.193498       114.1109 
 469   0.0000       4.198502       114.2470 
 470   0.0000       4.209761       114.5534 
 471   0.0000       4.212140       114.6181 
 472   0.0000       4.252850       115.7259 
 473   0.0000       4.261167       115.9523 
 474   0.0000       4.268837       116.1610 
 475   0.0000       4.281495       116.5054 
 476   0.0000       4.287445       116.6673 
 477   0.0000       4.299554       116.9968 
 478   0.0000       4.318269       117.5061 
 479   0.0000       4.331138       117.8563 
 480   0.0000       4.331502       117.8662 
 481   0.0000       4.361509       118.6827 
 482   0.0000       4.379569       119.1741 
 483   0.0000       4.385188       119.3270 
 484   0.0000       4.389855       119.4540 
 485   0.0000       4.392436       119.5243 
 486   0.0000       4.395706       119.6132 
 487   0.0000       4.424409       120.3943 
 488   0.0000       4.430182       120.5514 
 489   0.0000       4.440600       120.8349 
 490   0.0000       4.464553       121.4867 
 491   0.0000       4.474823       121.7661 
 492   0.0000       4.489766       122.1727 
 493   0.0000       4.493444       122.2728 
 494   0.0000       4.503778       122.5540 
 495   0.0000       4.535788       123.4251 
 496   0.0000       4.549084       123.7869 
 497   0.0000       4.580018       124.6286 
 498   0.0000       4.582101       124.6853 
 499   0.0000       4.691636       127.6659 
 500   0.0000       4.698893       127.8634 
 501   0.0000       4.710126       128.1690 
 502   0.0000       4.725001       128.5738 
 503   0.0000       4.725933       128.5992 
 504   0.0000       4.726399       128.6119 
 505   0.0000       4.740229       128.9882 
 506   0.0000       4.740292       128.9899 
 507   0.0000       4.749536       129.2414 
 508   0.0000       4.751444       129.2934 
 509   0.0000       4.762374       129.5908 
 510   0.0000       4.777585       130.0047 
 511   0.0000       4.788638       130.3055 
 512   0.0000       4.813757       130.9890 
 513   0.0000       4.855387       132.1218 
 514   0.0000       4.879242       132.7709 
 515   0.0000       4.895739       133.2198 
 516   0.0000       4.941379       134.4618 
 517   0.0000       4.973566       135.3376 
 518   0.0000       5.091830       138.5557 
 519   0.0000       5.117057       139.2422 
 520   0.0000       5.184291       141.0717 
 521   0.0000       5.190201       141.2325 
 522   0.0000       5.191351       141.2639 
 523   0.0000       5.201406       141.5374 
 524   0.0000       5.221434       142.0824 
 525   0.0000       5.234301       142.4326 
 526   0.0000       5.237123       142.5094 
 527   0.0000       5.240036       142.5886 
 528   0.0000       5.241941       142.6405 
 529   0.0000       5.244738       142.7166 
 530   0.0000       5.258265       143.0847 
 531   0.0000       5.258898       143.1019 
 532   0.0000       5.262829       143.2088 
 533   0.0000       5.271937       143.4567 
 534   0.0000       5.325495       144.9141 
 535   0.0000       5.336817       145.2222 
 536   0.0000       5.351877       145.6320 
 537   0.0000       5.353338       145.6717 
 538   0.0000       5.368469       146.0835 
 539   0.0000       5.385874       146.5571 
 540   0.0000       5.405099       147.0802 
 541   0.0000       5.419390       147.4691 
 542   0.0000       5.439702       148.0218 
 543   0.0000       5.453348       148.3932 
 544   0.0000       5.471005       148.8736 
 545   0.0000       5.477921       149.0618 
 546   0.0000       5.539686       150.7425 
 547   0.0000       5.540642       150.7685 
 548   0.0000       5.544171       150.8646 
 549   0.0000       5.612512       152.7242 
 550   0.0000       5.622760       153.0031 
 551   0.0000       5.631241       153.2338 
 552   0.0000       5.646398       153.6463 
 553   0.0000       5.689523       154.8198 
 554   0.0000       5.702655       155.1771 
 555   0.0000       5.721334       155.6854 
 556   0.0000       5.747443       156.3959 
 557   0.0000       5.750305       156.4737 
 558   0.0000       5.757134       156.6596 
 559   0.0000       5.758195       156.6884 
 560   0.0000       5.785796       157.4395 
 561   0.0000       5.815119       158.2374 
 562   0.0000       5.834362       158.7611 
 563   0.0000       5.839178       158.8921 
 564   0.0000       5.840437       158.9264 
 565   0.0000       5.909579       160.8078 
 566   0.0000       5.966509       162.3570 
 567   0.0000       5.973592       162.5497 
 568   0.0000       5.992409       163.0617 
 569   0.0000       6.003199       163.3554 
 570   0.0000       6.013370       163.6321 
 571   0.0000       6.019460       163.7978 
 572   0.0000       6.385463       173.7573 
 573   0.0000       6.391882       173.9320 
 574   0.0000       6.408469       174.3833 
 575   0.0000       6.456923       175.7018 
 576   0.0000       7.809027       212.4944 
 577   0.0000       7.825381       212.9394 
 578   0.0000       7.917567       215.4479 
 579   0.0000       7.918424       215.4713 
 580   0.0000       8.030052       218.5088 
 581   0.0000       8.063859       219.4288 
 582   0.0000      15.363805       418.0704 
 583   0.0000      15.502528       421.8452 
 584   0.0000      23.531549       640.3260 
 585   0.0000      23.603140       642.2741 
 586   0.0000      23.696476       644.8139 
 587   0.0000      23.704520       645.0328 
 588   0.0000      23.765091       646.6810 
 589   0.0000      23.782354       647.1508 

                    ********************************
                    * MULLIKEN POPULATION ANALYSIS *
                    ********************************

-----------------------
MULLIKEN ATOMIC CHARGES
-----------------------
   0 P :   -0.281332
   1 P :   -0.281297
   2 C :   -0.072055
   3 C :   -0.072020
   4 H :    0.084200
   5 H :    0.140649
   6 H :    0.084160
   7 H :    0.140660
   8 C :   -0.244353
   9 H :    0.089888
  10 H :    0.079424
  11 H :    0.140613
  12 C :   -0.236917
  13 H :    0.126210
  14 H :    0.085223
  15 H :    0.088414
  16 C :   -0.236891
  17 H :    0.088400
  18 H :    0.126211
  19 H :    0.085232
  20 C :   -0.244383
  21 H :    0.079438
  22 H :    0.140641
  23 H :    0.089884
Sum of atomic charges:   -0.0000000

--------------------------------
MULLIKEN REDUCED ORBITAL CHARGES
--------------------------------
  0 P s       :     6.013640  s :     6.013640
      pz      :     3.046983  p :     8.920107
      px      :     2.876801
      py      :     2.996323
      dz2     :     0.081868  d :     0.315649
      dxz     :     0.034390
      dyz     :     0.060458
      dx2y2   :     0.056134
      dxy     :     0.082799
      f0      :     0.006478  f :     0.031936
      f+1     :     0.004531
      f-1     :     0.004512
      f+2     :     0.001181
      f-2     :     0.004185
      f+3     :     0.005693
      f-3     :     0.005356
  1 P s       :     6.013601  s :     6.013601
      pz      :     3.046994  p :     8.920110
      px      :     2.876797
      py      :     2.996319
      dz2     :     0.081864  d :     0.315651
      dxz     :     0.034391
      dyz     :     0.060459
      dx2y2   :     0.056135
      dxy     :     0.082803
      f0      :     0.006478  f :     0.031935
      f+1     :     0.004530
      f-1     :     0.004512
      f+2     :     0.001181
      f-2     :     0.004186
      f+3     :     0.005693
      f-3     :     0.005356
  2 C s       :     3.042363  s :     3.042363
      pz      :     1.062257  p :     2.787183
      px      :     0.900166
      py      :     0.824760
      dz2     :     0.022393  d :     0.237860
      dxz     :     0.040787
      dyz     :     0.083146
      dx2y2   :     0.075634
      dxy     :     0.015900
      f0      :     0.000458  f :     0.004648
      f+1     :     0.000410
      f-1     :     0.000781
      f+2     :     0.000303
      f-2     :     0.000740
      f+3     :     0.001077
      f-3     :     0.000879
  3 C s       :     3.042314  s :     3.042314
      pz      :     1.062232  p :     2.787181
      px      :     0.900154
      py      :     0.824795
      dz2     :     0.022400  d :     0.237877
      dxz     :     0.040784
      dyz     :     0.083160
      dx2y2   :     0.075632
      dxy     :     0.015900
      f0      :     0.000458  f :     0.004648
      f+1     :     0.000410
      f-1     :     0.000781
      f+2     :     0.000303
      f-2     :     0.000740
      f+3     :     0.001077
      f-3     :     0.000879
  4 H s       :     0.877598  s :     0.877598
      pz      :     0.030787  p :     0.036401
      px      :     0.005137
      py      :     0.000477
      dz2     :     0.000554  d :     0.001802
      dxz     :     0.000464
      dyz     :     0.000262
      dx2y2   :     0.000159
      dxy     :     0.000363
  5 H s       :     0.815858  s :     0.815858
      pz      :     0.020374  p :     0.041687
      px      :     0.021449
      py      :    -0.000135
      dz2     :     0.000576  d :     0.001806
      dxz     :     0.000462
      dyz     :     0.000257
      dx2y2   :     0.000157
      dxy     :     0.000353
  6 H s       :     0.877629  s :     0.877629
      pz      :     0.030788  p :     0.036409
      px      :     0.005143
      py      :     0.000478
      dz2     :     0.000554  d :     0.001802
      dxz     :     0.000464
      dyz     :     0.000262
      dx2y2   :     0.000159
      dxy     :     0.000363
  7 H s       :     0.815837  s :     0.815837
      pz      :     0.020381  p :     0.041697
      px      :     0.021443
      py      :    -0.000127
      dz2     :     0.000576  d :     0.001805
      dxz     :     0.000462
      dyz     :     0.000257
      dx2y2   :     0.000157
      dxy     :     0.000353
  8 C s       :     3.008700  s :     3.008700
      pz      :     0.949735  p :     3.143226
      px      :     1.095229
      py      :     1.098262
      dz2     :     0.012330  d :     0.089966
      dxz     :     0.008580
      dyz     :     0.030985
      dx2y2   :     0.014455
      dxy     :     0.023616
      f0      :     0.000476  f :     0.002461
      f+1     :     0.000221
      f-1     :     0.000595
      f+2     :     0.000314
      f-2     :     0.000279
      f+3     :     0.000254
      f-3     :     0.000322
  9 H s       :     0.849452  s :     0.849452
      pz      :     0.014378  p :     0.058984
      px      :     0.028983
      py      :     0.015623
      dz2     :     0.000175  d :     0.001676
      dxz     :     0.000520
      dyz     :     0.000151
      dx2y2   :     0.000400
      dxy     :     0.000430
 10 H s       :     0.851113  s :     0.851113
      pz      :     0.017073  p :     0.067772
      px      :     0.026218
      py      :     0.024481
      dz2     :     0.000143  d :     0.001692
      dxz     :     0.000266
      dyz     :     0.000444
      dx2y2   :     0.000639
      dxy     :     0.000199
 11 H s       :     0.802902  s :     0.802902
      pz      :     0.025306  p :     0.054825
      px      :     0.005745
      py      :     0.023774
      dz2     :     0.000614  d :     0.001661
      dxz     :     0.000222
      dyz     :     0.000217
      dx2y2   :     0.000243
      dxy     :     0.000364
 12 C s       :     3.009118  s :     3.009118
      pz      :     1.082507  p :     3.131330
      px      :     1.047732
      py      :     1.001091
      dz2     :     0.018098  d :     0.093985
      dxz     :     0.004115
      dyz     :     0.038801
      dx2y2   :     0.020811
      dxy     :     0.012160
      f0      :     0.000163  f :     0.002483
      f+1     :     0.000270
      f-1     :     0.000616
      f+2     :     0.000311
      f-2     :     0.000280
      f+3     :     0.000440
      f-3     :     0.000403
 13 H s       :     0.818953  s :     0.818953
      pz      :     0.024087  p :     0.053170
      px      :     0.008710
      py      :     0.020373
      dz2     :     0.000537  d :     0.001668
      dxz     :     0.000349
      dyz     :     0.000259
      dx2y2   :     0.000243
      dxy     :     0.000279
 14 H s       :     0.852022  s :     0.852022
      pz      :     0.027615  p :     0.061079
      px      :     0.013466
      py      :     0.019997
      dz2     :     0.000536  d :     0.001677
      dxz     :     0.000438
      dyz     :     0.000290
      dx2y2   :     0.000155
      dxy     :     0.000258
 15 H s       :     0.850033  s :     0.850033
      pz      :     0.011991  p :     0.059870
      px      :     0.031700
      py      :     0.016180
      dz2     :     0.000087  d :     0.001682
      dxz     :     0.000514
      dyz     :     0.000126
      dx2y2   :     0.000356
      dxy     :     0.000599
 16 C s       :     3.009128  s :     3.009128
      pz      :     1.082502  p :     3.131304
      px      :     1.047708
      py      :     1.001093
      dz2     :     0.018095  d :     0.093975
      dxz     :     0.004113
      dyz     :     0.038800
      dx2y2   :     0.020811
      dxy     :     0.012157
      f0      :     0.000163  f :     0.002483
      f+1     :     0.000270
      f-1     :     0.000616
      f+2     :     0.000311
      f-2     :     0.000280
      f+3     :     0.000440
      f-3     :     0.000403
 17 H s       :     0.850054  s :     0.850054
      pz      :     0.011989  p :     0.059864
      px      :     0.031697
      py      :     0.016178
      dz2     :     0.000087  d :     0.001682
      dxz     :     0.000514
      dyz     :     0.000126
      dx2y2   :     0.000356
      dxy     :     0.000599
 18 H s       :     0.818953  s :     0.818953
      pz      :     0.024081  p :     0.053168
      px      :     0.008709
      py      :     0.020379
      dz2     :     0.000537  d :     0.001668
      dxz     :     0.000349
      dyz     :     0.000259
      dx2y2   :     0.000244
      dxy     :     0.000279
 19 H s       :     0.852008  s :     0.852008
      pz      :     0.027615  p :     0.061083
      px      :     0.013466
      py      :     0.020002
      dz2     :     0.000536  d :     0.001677
      dxz     :     0.000438
      dyz     :     0.000290
      dx2y2   :     0.000155
      dxy     :     0.000258
 20 C s       :     3.008722  s :     3.008722
      pz      :     0.949719  p :     3.143221
      px      :     1.095232
      py      :     1.098269
      dz2     :     0.012328  d :     0.089979
      dxz     :     0.008587
      dyz     :     0.030987
      dx2y2   :     0.014455
      dxy     :     0.023623
      f0      :     0.000476  f :     0.002461
      f+1     :     0.000221
      f-1     :     0.000595
      f+2     :     0.000314
      f-2     :     0.000279
      f+3     :     0.000254
      f-3     :     0.000322
 21 H s       :     0.851089  s :     0.851089
      pz      :     0.017077  p :     0.067781
      px      :     0.026224
      py      :     0.024480
      dz2     :     0.000143  d :     0.001692
      dxz     :     0.000267
      dyz     :     0.000444
      dx2y2   :     0.000639
      dxy     :     0.000199
 22 H s       :     0.802876  s :     0.802876
      pz      :     0.025303  p :     0.054822
      px      :     0.005744
      py      :     0.023775
      dz2     :     0.000614  d :     0.001661
      dxz     :     0.000222
      dyz     :     0.000217
      dx2y2   :     0.000243
      dxy     :     0.000364
 23 H s       :     0.849458  s :     0.849458
      pz      :     0.014373  p :     0.058981
      px      :     0.028982
      py      :     0.015626
      dz2     :     0.000175  d :     0.001676
      dxz     :     0.000520
      dyz     :     0.000151
      dx2y2   :     0.000400
      dxy     :     0.000430


                     *******************************
                     * LOEWDIN POPULATION ANALYSIS *
                     *******************************

----------------------
LOEWDIN ATOMIC CHARGES
----------------------
   0 P :    0.915180
   1 P :    0.915188
   2 C :   -0.296058
   3 C :   -0.296055
   4 H :   -0.034917
   5 H :   -0.039250
   6 H :   -0.034918
   7 H :   -0.039252
   8 C :   -0.075662
   9 H :   -0.066324
  10 H :   -0.072450
  11 H :   -0.056568
  12 C :   -0.081102
  13 H :   -0.059878
  14 H :   -0.066284
  15 H :   -0.066692
  16 C :   -0.081097
  17 H :   -0.066691
  18 H :   -0.059886
  19 H :   -0.066279
  20 C :   -0.075670
  21 H :   -0.072453
  22 H :   -0.056565
  23 H :   -0.066317

-------------------------------
LOEWDIN REDUCED ORBITAL CHARGES
-------------------------------
  0 P s       :     4.800247  s :     4.800247
      pz      :     2.893477  p :     8.387759
      px      :     2.661575
      py      :     2.832707
      dz2     :     0.172820  d :     0.799019
      dxz     :     0.120427
      dyz     :     0.166485
      dx2y2   :     0.144732
      dxy     :     0.194555
      f0      :     0.019826  f :     0.097795
      f+1     :     0.013339
      f-1     :     0.013696
      f+2     :     0.003851
      f-2     :     0.012281
      f+3     :     0.017458
      f-3     :     0.017343
  1 P s       :     4.800248  s :     4.800248
      pz      :     2.893497  p :     8.387756
      px      :     2.661570
      py      :     2.832688
      dz2     :     0.172812  d :     0.799017
      dxz     :     0.120427
      dyz     :     0.166482
      dx2y2   :     0.144737
      dxy     :     0.194559
      f0      :     0.019824  f :     0.097792
      f+1     :     0.013338
      f-1     :     0.013695
      f+2     :     0.003852
      f-2     :     0.012282
      f+3     :     0.017458
      f-3     :     0.017343
  2 C s       :     2.690151  s :     2.690151
      pz      :     0.929994  p :     2.748909
      px      :     0.903916
      py      :     0.914999
      dz2     :     0.101568  d :     0.824552
      dxz     :     0.131829
      dyz     :     0.186303
      dx2y2   :     0.190775
      dxy     :     0.214077
      f0      :     0.002525  f :     0.032446
      f+1     :     0.004107
      f-1     :     0.005831
      f+2     :     0.004227
      f-2     :     0.004150
      f+3     :     0.005638
      f-3     :     0.005967
  3 C s       :     2.690152  s :     2.690152
      pz      :     0.929996  p :     2.748916
      px      :     0.903918
      py      :     0.915002
      dz2     :     0.101565  d :     0.824542
      dxz     :     0.131829
      dyz     :     0.186300
      dx2y2   :     0.190773
      dxy     :     0.214074
      f0      :     0.002525  f :     0.032445
      f+1     :     0.004107
      f-1     :     0.005831
      f+2     :     0.004227
      f-2     :     0.004150
      f+3     :     0.005638
      f-3     :     0.005967
  4 H s       :     0.700900  s :     0.700900
      pz      :     0.111283  p :     0.303753
      px      :     0.091798
      py      :     0.100672
      dz2     :     0.008845  d :     0.030264
      dxz     :     0.005924
      dyz     :     0.008617
      dx2y2   :     0.002966
      dxy     :     0.003912
  5 H s       :     0.690974  s :     0.690974
      pz      :     0.120947  p :     0.317905
      px      :     0.096351
      py      :     0.100607
      dz2     :     0.008825  d :     0.030371
      dxz     :     0.005953
      dyz     :     0.008712
      dx2y2   :     0.003012
      dxy     :     0.003868
  6 H s       :     0.700900  s :     0.700900
      pz      :     0.111287  p :     0.303754
      px      :     0.091797
      py      :     0.100670
      dz2     :     0.008846  d :     0.030264
      dxz     :     0.005925
      dyz     :     0.008617
      dx2y2   :     0.002965
      dxy     :     0.003911
  7 H s       :     0.690979  s :     0.690979
      pz      :     0.120942  p :     0.317903
      px      :     0.096352
      py      :     0.100608
      dz2     :     0.008825  d :     0.030371
      dxz     :     0.005952
      dyz     :     0.008712
      dx2y2   :     0.003013
      dxy     :     0.003868
  8 C s       :     2.710743  s :     2.710743
      pz      :     0.951824  p :     2.835209
      px      :     0.939581
      py      :     0.943803
      dz2     :     0.176432  d :     0.507943
      dxz     :     0.060358
      dyz     :     0.125492
      dx2y2   :     0.052480
      dxy     :     0.093181
      f0      :     0.003611  f :     0.021767
      f+1     :     0.002645
      f-1     :     0.003447
      f+2     :     0.003611
      f-2     :     0.002505
      f+3     :     0.002636
      f-3     :     0.003311
  9 H s       :     0.722438  s :     0.722438
      pz      :     0.093877  p :     0.314064
      px      :     0.130173
      py      :     0.090014
      dz2     :     0.002990  d :     0.029822
      dxz     :     0.008082
      dyz     :     0.001872
      dx2y2   :     0.008115
      dxy     :     0.008763
 10 H s       :     0.719441  s :     0.719441
      pz      :     0.093002  p :     0.323148
      px      :     0.116863
      py      :     0.113283
      dz2     :     0.002766  d :     0.029861
      dxz     :     0.004049
      dyz     :     0.005821
      dx2y2   :     0.009597
      dxy     :     0.007629
 11 H s       :     0.713974  s :     0.713974
      pz      :     0.113855  p :     0.312826
      px      :     0.082962
      py      :     0.116009
      dz2     :     0.008118  d :     0.029768
      dxz     :     0.004033
      dyz     :     0.007716
      dx2y2   :     0.004594
      dxy     :     0.005307
 12 C s       :     2.713420  s :     2.713420
      pz      :     0.948471  p :     2.841232
      px      :     0.941274
      py      :     0.951487
      dz2     :     0.076151  d :     0.504698
      dxz     :     0.043489
      dyz     :     0.156621
      dx2y2   :     0.125831
      dxy     :     0.102605
      f0      :     0.001246  f :     0.021752
      f+1     :     0.003404
      f-1     :     0.005060
      f+2     :     0.003714
      f-2     :     0.002069
      f+3     :     0.003470
      f-3     :     0.002788
 13 H s       :     0.715062  s :     0.715062
      pz      :     0.118939  p :     0.315038
      px      :     0.090216
      py      :     0.105884
      dz2     :     0.008467  d :     0.029778
      dxz     :     0.005578
      dyz     :     0.008148
      dx2y2   :     0.003863
      dxy     :     0.003722
 14 H s       :     0.723214  s :     0.723214
      pz      :     0.120051  p :     0.313292
      px      :     0.085032
      py      :     0.108209
      dz2     :     0.008922  d :     0.029778
      dxz     :     0.006592
      dyz     :     0.008429
      dx2y2   :     0.002672
      dxy     :     0.003163
 15 H s       :     0.723123  s :     0.723123
      pz      :     0.084350  p :     0.313787
      px      :     0.137088
      py      :     0.092350
      dz2     :     0.002875  d :     0.029781
      dxz     :     0.008189
      dyz     :     0.001378
      dx2y2   :     0.008682
      dxy     :     0.008657
 16 C s       :     2.713421  s :     2.713421
      pz      :     0.948468  p :     2.841232
      px      :     0.941275
      py      :     0.951488
      dz2     :     0.076152  d :     0.504693
      dxz     :     0.043492
      dyz     :     0.156605
      dx2y2   :     0.125849
      dxy     :     0.102596
      f0      :     0.001246  f :     0.021752
      f+1     :     0.003404
      f-1     :     0.005060
      f+2     :     0.003714
      f-2     :     0.002070
      f+3     :     0.003471
      f-3     :     0.002787
 17 H s       :     0.723128  s :     0.723128
      pz      :     0.084350  p :     0.313782
      px      :     0.137087
      py      :     0.092344
      dz2     :     0.002876  d :     0.029781
      dxz     :     0.008190
      dyz     :     0.001378
      dx2y2   :     0.008681
      dxy     :     0.008657
 18 H s       :     0.715060  s :     0.715060
      pz      :     0.118932  p :     0.315047
      px      :     0.090223
      py      :     0.105891
      dz2     :     0.008466  d :     0.029779
      dxz     :     0.005577
      dyz     :     0.008148
      dx2y2   :     0.003865
      dxy     :     0.003723
 19 H s       :     0.723211  s :     0.723211
      pz      :     0.120055  p :     0.313291
      px      :     0.085031
      py      :     0.108204
      dz2     :     0.008923  d :     0.029778
      dxz     :     0.006593
      dyz     :     0.008429
      dx2y2   :     0.002671
      dxy     :     0.003162
 20 C s       :     2.710738  s :     2.710738
      pz      :     0.951827  p :     2.835207
      px      :     0.939580
      py      :     0.943799
      dz2     :     0.176424  d :     0.507958
      dxz     :     0.060380
      dyz     :     0.125491
      dx2y2   :     0.052472
      dxy     :     0.093190
      f0      :     0.003612  f :     0.021768
      f+1     :     0.002645
      f-1     :     0.003446
      f+2     :     0.003611
      f-2     :     0.002506
      f+3     :     0.002636
      f-3     :     0.003312
 21 H s       :     0.719432  s :     0.719432
      pz      :     0.093005  p :     0.323159
      px      :     0.116874
      py      :     0.113280
      dz2     :     0.002766  d :     0.029862
      dxz     :     0.004049
      dyz     :     0.005820
      dx2y2   :     0.009597
      dxy     :     0.007629
 22 H s       :     0.713967  s :     0.713967
      pz      :     0.113850  p :     0.312830
      px      :     0.082966
      py      :     0.116014
      dz2     :     0.008117  d :     0.029768
      dxz     :     0.004032
      dyz     :     0.007716
      dx2y2   :     0.004595
      dxy     :     0.005308
 23 H s       :     0.722441  s :     0.722441
      pz      :     0.093878  p :     0.314054
      px      :     0.130164
      py      :     0.090013
      dz2     :     0.002990  d :     0.029821
      dxz     :     0.008081
      dyz     :     0.001873
      dx2y2   :     0.008114
      dxy     :     0.008762


                      *****************************
                      * MAYER POPULATION ANALYSIS *
                      *****************************

  NA   - Mulliken gross atomic population
  ZA   - Total nuclear charge
  QA   - Mulliken gross atomic charge
  VA   - Mayer's total valence
  BVA  - Mayer's bonded valence
  FA   - Mayer's free valence

  ATOM       NA         ZA         QA         VA         BVA        FA
  0 P     15.2813    15.0000    -0.2813     2.9040     2.9040    -0.0000
  1 P     15.2813    15.0000    -0.2813     2.9041     2.9041    -0.0000
  2 C      6.0721     6.0000    -0.0721     4.0895     4.0895    -0.0000
  3 C      6.0720     6.0000    -0.0720     4.0895     4.0895    -0.0000
  4 H      0.9158     1.0000     0.0842     1.0477     1.0477    -0.0000
  5 H      0.8594     1.0000     0.1406     1.0026     1.0026    -0.0000
  6 H      0.9158     1.0000     0.0842     1.0478     1.0478     0.0000
  7 H      0.8593     1.0000     0.1407     1.0026     1.0026    -0.0000
  8 C      6.2444     6.0000    -0.2444     4.0248     4.0248    -0.0000
  9 H      0.9101     1.0000     0.0899     1.0856     1.0856     0.0000
 10 H      0.9206     1.0000     0.0794     1.0964     1.0964    -0.0000
 11 H      0.8594     1.0000     0.1406     1.0681     1.0681     0.0000
 12 C      6.2369     6.0000    -0.2369     4.0298     4.0298     0.0000
 13 H      0.8738     1.0000     0.1262     1.0721     1.0721     0.0000
 14 H      0.9148     1.0000     0.0852     1.0909     1.0909     0.0000
 15 H      0.9116     1.0000     0.0884     1.0943     1.0943     0.0000
 16 C      6.2369     6.0000    -0.2369     4.0297     4.0297    -0.0000
 17 H      0.9116     1.0000     0.0884     1.0943     1.0943    -0.0000
 18 H      0.8738     1.0000     0.1262     1.0721     1.0721    -0.0000
 19 H      0.9148     1.0000     0.0852     1.0909     1.0909    -0.0000
 20 C      6.2444     6.0000    -0.2444     4.0249     4.0249    -0.0000
 21 H      0.9206     1.0000     0.0794     1.0964     1.0964    -0.0000
 22 H      0.8594     1.0000     0.1406     1.0680     1.0680    -0.0000
 23 H      0.9101     1.0000     0.0899     1.0857     1.0857    -0.0000

  Mayer bond orders larger than 0.100000
B(  0-P ,  2-C ) :   0.6500 B(  0-P ,  3-C ) :   0.2406 B(  0-P , 16-C ) :   0.9087 
B(  0-P , 20-C ) :   0.8668 B(  1-P ,  2-C ) :   0.2406 B(  1-P ,  3-C ) :   0.6501 
B(  1-P ,  8-C ) :   0.8668 B(  1-P , 12-C ) :   0.9087 B(  2-C ,  3-C ) :   1.1249 
B(  2-C ,  4-H ) :   0.9961 B(  2-C ,  5-H ) :   0.8971 B(  3-C ,  6-H ) :   0.9960 
B(  3-C ,  7-H ) :   0.8971 B(  8-C ,  9-H ) :   0.9997 B(  8-C , 10-H ) :   1.0031 
B(  8-C , 11-H ) :   0.9420 B( 12-C , 13-H ) :   0.9503 B( 12-C , 14-H ) :   0.9974 
B( 12-C , 15-H ) :   0.9966 B( 16-C , 17-H ) :   0.9966 B( 16-C , 18-H ) :   0.9503 
B( 16-C , 19-H ) :   0.9974 B( 20-C , 21-H ) :   1.0031 B( 20-C , 22-H ) :   0.9420 
B( 20-C , 23-H ) :   0.9997 

-------
TIMINGS
-------

Total SCF time: 0 days 0 hours 1 min 37 sec 

Total time                  ....      97.235 sec
Sum of individual times     ....      96.607 sec  ( 99.4%)

Fock matrix formation       ....      94.655 sec  ( 97.3%)
  XC integration            ....       4.530 sec  (  4.8% of F)
    Basis function eval.    ....       0.414 sec  (  9.1% of XC)
    Density eval.           ....       1.186 sec  ( 26.2% of XC)
    XC-Functional eval.     ....       0.078 sec  (  1.7% of XC)
    XC-Potential eval.      ....       2.201 sec  ( 48.6% of XC)
Diagonalization             ....       0.482 sec  (  0.5%)
Density matrix formation    ....       0.039 sec  (  0.0%)
Population analysis         ....       0.067 sec  (  0.1%)
Initial guess               ....       0.386 sec  (  0.4%)
Orbital Transformation      ....       0.000 sec  (  0.0%)
Orbital Orthonormalization  ....       0.000 sec  (  0.0%)
DIIS solution               ....       0.218 sec  (  0.2%)
SOSCF solution              ....       0.352 sec  (  0.4%)
Grid generation             ....       0.408 sec  (  0.4%)


-------------------------------------------------------------------------------
                          DFT DISPERSION CORRECTION                            
                                                                               
                              DFTD3 V3.1  Rev 1                                
                          USING Becke-Johnson damping                          
-------------------------------------------------------------------------------
The TPSSH functional is recognized
Active option DFTDOPT                   ...         4   

molecular C6(AA) [au] = 6087.420632 


            DFT-D V3
 parameters
 s6 scaling factor         :     1.0000 
 a1 scaling factor         :     0.4529 
 s8 scaling factor         :     2.2382 
 a2 scaling factor         :     4.6550 
 ad hoc parameters k1-k3   :    16.0000     1.3333    -4.0000 

 Edisp/kcal,au: -18.275882856893  -0.029124470088 
 E6   /kcal   :  -8.580983626 
 E8   /kcal   :  -9.694899231 
 % E8         :  53.047501492 

-------------------------   ----------------
Dispersion correction           -0.029124470
-------------------------   ----------------


-------------------------   --------------------
FINAL SINGLE POINT ENERGY      -921.196440099978
-------------------------   --------------------


                            ***************************************
                            *     ORCA property calculations      *
                            ***************************************

                                    ---------------------
                                    Active property flags
                                    ---------------------
   (+) Dipole Moment


------------------------------------------------------------------------------
                       ORCA ELECTRIC PROPERTIES CALCULATION
------------------------------------------------------------------------------

Dipole Moment Calculation                       ... on
Quadrupole Moment Calculation                   ... off
Polarizability Calculation                      ... off
GBWName                                         ... MOR15_ed28.gbw
Electron density file                           ... MOR15_ed28.scfp
The origin for moment calculation is the CENTER OF MASS  = ( 0.000008, -0.000005 -0.094579)

-------------
DIPOLE MOMENT
-------------
                                X             Y             Z
Electronic contribution:      0.00066      -0.00041      -7.05415
Nuclear contribution   :     -0.00067       0.00041       7.75547
                        -----------------------------------------
Total Dipole Moment    :     -0.00001       0.00001       0.70132
                        -----------------------------------------
Magnitude (a.u.)       :      0.70132
Magnitude (Debye)      :      1.78261



--------------------
Rotational spectrum 
--------------------
 
Rotational constants in cm-1:     0.093884     0.018404     0.018105 
Rotational constants in MHz :  2814.581921   551.745538   542.775536 

 Dipole components along the rotational axes: 
x,y,z [a.u.] :    -0.000014    -0.000008     0.701319 
x,y,z [Debye]:    -0.000037    -0.000019     1.782611 

 

Timings for individual modules:

Sum of individual times         ...       98.521 sec (=   1.642 min)
GTO integral calculation        ...        0.894 sec (=   0.015 min)   0.9 %
SCF iterations                  ...       97.627 sec (=   1.627 min)  99.1 %
                             ****ORCA TERMINATED NORMALLY****
TOTAL RUN TIME: 0 days 0 hours 1 minutes 39 seconds 82 msec
