
                                 *****************
                                 * O   R   C   A *
                                 *****************

           --- An Ab Initio, DFT and Semiempirical electronic structure package ---

                  #######################################################
                  #                        -***-                        #
                  #          Department of theory and spectroscopy      #
                  #               Directorship: Frank Neese             #
                  #        Max Planck Institute fuer Kohlenforschung    #
                  #                Kaiser Wilhelm Platz 1               #
                  #                 D-45470 Muelheim/Ruhr               #
                  #                      Germany                        #
                  #                                                     #
                  #                  All rights reserved                #
                  #                        -***-                        #
                  #######################################################


                         Program Version 4.2.0 -  RELEASE  -


 With contributions from (in alphabetic order):
   Daniel Aravena         : Magnetic Suceptibility
   Michael Atanasov       : Ab Initio Ligand Field Theory (pilot matlab implementation)
   Alexander A. Auer      : GIAO ZORA, VPT2
   Ute Becker             : Parallelization
   Giovanni Bistoni       : ED, misc. LED, open-shell LED, HFLED
   Martin Brehm           : Molecular dynamics
   Dmytro Bykov           : SCF Hessian
   Vijay G. Chilkuri      : MRCI spin determinant printing, contributions to CSF-ICE
   Dipayan Datta          : RHF DLPNO-CCSD density
   Achintya Kumar Dutta   : EOM-CC, STEOM-CC
   Dmitry Ganyushin       : Spin-Orbit,Spin-Spin,Magnetic field MRCI
   Miquel Garcia          : C-PCM Hessian, Gaussian charge scheme
   Yang Guo               : DLPNO-NEVPT2, CIM, IAO-localization
   Andreas Hansen         : Spin unrestricted coupled pair/coupled cluster methods
   Benjamin Helmich-Paris : CASSCF linear response (MC-RPA)
   Lee Huntington         : MR-EOM, pCC
   Robert Izsak           : Overlap fitted RIJCOSX, COSX-SCS-MP3, EOM
   Christian Kollmar      : KDIIS, OOCD, Brueckner-CCSD(T), CCSD density
   Simone Kossmann        : Meta GGA functionals, TD-DFT gradient, OOMP2, MP2 Hessian
   Martin Krupicka        : AUTO-CI
   Lucas Lang             : DCDCAS
   Dagmar Lenk            : GEPOL surface, SMD
   Dimitrios Liakos       : Extrapolation schemes; Compound Job, initial MDCI parallelization
   Dimitrios Manganas     : Further ROCIS development; embedding schemes
   Dimitrios Pantazis     : SARC Basis sets
   Taras Petrenko         : DFT Hessian,TD-DFT gradient, ASA, ECA, R-Raman, ABS, FL, XAS/XES, NRVS
   Peter Pinski           : DLPNO-MP2, DLPNO-MP2 Gradient
   Christoph Reimann      : Effective Core Potentials
   Marius Retegan         : Local ZFS, SOC
   Christoph Riplinger    : Optimizer, TS searches, QM/MM, DLPNO-CCSD(T), (RO)-DLPNO pert. Triples
   Tobias Risthaus        : Range-separated hybrids, TD-DFT gradient, RPA, STAB
   Michael Roemelt        : Original ROCIS implementation
   Masaaki Saitow         : Open-shell DLPNO-CCSD energy and density
   Barbara Sandhoefer     : DKH picture change effects
   Avijit Sen             : IP-ROCIS
   Kantharuban Sivalingam : CASSCF convergence, NEVPT2, FIC-MRCI
   Bernardo de Souza      : ESD, SOC TD-DFT
   Georgi Stoychev        : AutoAux, RI-MP2 NMR
   Willem Van den Heuvel  : Paramagnetic NMR
   Boris Wezisla          : Elementary symmetry handling
   Frank Wennmohs         : Technical directorship


 We gratefully acknowledge several colleagues who have allowed us to
 interface, adapt or use parts of their codes:
   Stefan Grimme, W. Hujo, H. Kruse,             : VdW corrections, initial TS optimization,
                  C. Bannwarth                     DFT functionals, gCP, sTDA/sTD-DF
   Ed Valeev, F. Pavosevic, A. Kumar             : LibInt (2-el integral package), F12 methods
   Garnet Chan, S. Sharma, J. Yang, R. Olivares  : DMRG
   Ulf Ekstrom                                   : XCFun DFT Library
   Mihaly Kallay                                 : mrcc  (arbitrary order and MRCC methods)
   Andreas Klamt, Michael Diedenhofen            : otool_cosmo (COSMO solvation model)
   Jiri Pittner, Ondrej Demel                    : Mk-CCSD
   Frank Weinhold                                : gennbo (NPA and NBO analysis)
   Christopher J. Cramer and Donald G. Truhlar   : smd solvation model
   Lars Goerigk                                  : TD-DFT with DH, B97 family of functionals
   V. Asgeirsson, H. Jonsson                     : NEB implementation
   FAccTs GmbH                                   : IRC, NEB, NEB-TS, Multilevel, MM, QM/MM, CI optimization
   S Lehtola, MJT Oliveira, MAL Marques          : LibXC Library


 Your calculation uses the libint2 library for the computation of 2-el integrals
 For citations please refer to: http://libint.valeyev.net

 Your ORCA version has been built with support for libXC version: 4.2.3
 For citations please refer to: https://tddft.org/programs/libxc/

 This ORCA versions uses:
   CBLAS   interface :  Fast vector & matrix operations
   LAPACKE interface :  Fast linear algebra routines
   SCALAPACK package :  Parallel linear algebra routines


Your calculation utilizes the atom-pairwise dispersion correction
with the Becke-Johnson damping scheme (D3BJ)
Cite in your paper:
S.Grimme, S.Ehrlich, L.Goerigk, J Comput Chem, (2011), 32, 1456–1465 
S.Grimme, J.Antony, S.Ehrlich and H.Krieg, J.Chem.Phys., 132, (2010), 154104 
   

----- Orbital basis set information -----
Your calculation utilizes the basis: def2-TZVPPD
   F. Weigend and R. Ahlrichs, Phys. Chem. Chem. Phys. 7, 3297 (2005).
   D. Rappoport and F. Furche, J. Chem. Phys. 133 134105 (2010).

----- AuxJK basis set information -----
Your calculation utilizes the auxiliary basis: def2/JK
   H-Ba, Hf-Rn: F. Weigend, J. Comput. Chem. 29, 167 (2008).

cite the ECPs for Pd [Def2-ECP], I  [Def2-ECP] as follows:
Ce-Yb(ecp-28): M. Dolg, H. Stoll, H.Preuss, J. Chem. Phys., 1989, 90, 1730-1734.
Y-Cd(ecp-28), Hf-Hg(ecp-46): D. Andrae,U. Haeussermann, M. Dolg, H. Stoll, H. Preuss, Theor. Chim. Acta, 1990, 77, 123-141.
In-Sb(ecp-28), Tl-Bi(ecp-46): B. Metz, H. Stoll, M. Dolg, J. Chem. Phys., 2000, 113, 2563-2569.
Te-Xe(ecp-28), Po-Rn(ecp-46): K. A. Peterson, D. Figgen, E. Goll, H. Stoll, M. Dolg, J. Chem. Phys., 2003, 119, 11113-11123.
Rb(ecp-28), Cs(ecp-46): T. Leininger, A. Nicklass, W. Kuechle, H. Stoll, M. Dolg, A. Bergner, Chem. Phys. Lett., 1996, 255, 274-280.
Sr(ecp-28), Ba(ecp-46): M. Kaupp, P. V. Schleyer, H. Stoll and H. Preuss, J. Chem. Phys., 1991, 94, 1360-1366.
La(ecp-46): M. Dolg, H. Stoll, A. Savin, H. Preuss, Theor. Chim. Acta, 1989, 75, 173-194.
Lu(ecp-28): X. Cao, M. Dolg, J. Chem. Phys., 2001, 115, 7348-7355.

ECP parameters for Pd [Def2-ECP], I  [Def2-ECP] have been obtained from:
TURBOMOLE (7.0.2)

================================================================================
                                        WARNINGS
                       Please study these warnings very carefully!
================================================================================


INFO   : the flag for use of LIBINT has been found!

================================================================================
                                       INPUT FILE
================================================================================
NAME = MOR11_ed11.in
|  1> #
|  2> # MOR11_ed11 TPSSh-D3BJ/Def2-TZVPPD
|  3> #
|  4> ! tpssh d3bj def2-tzvppd def2/jk grid4 nofinalgrid
|  5> 
|  6> *xyz 0 1
|  7> C       -0.215143    2.474912    0.000943 
|  8> C        0.405007    3.719049    0.001069 
|  9> C        1.797844    3.776033    0.000678 
| 10> C        2.518886    2.587780    0.000166 
| 11> H       -1.296303    2.357179    0.001183 
| 12> H       -0.198474    4.620568    0.001502 
| 13> H        2.316345    4.729851    0.000789 
| 14> H        3.602578    2.611029   -0.000041 
| 15> N        0.477795    1.324684    0.000439 
| 16> C        1.835277    1.367244    0.000057 
| 17> C        2.509992    0.059887   -0.000357 
| 18> N        1.694840   -1.036421    0.000876 
| 19> C        2.257001   -2.260308    0.000535 
| 20> C        4.472096   -1.347919   -0.002398 
| 21> C        3.629983   -2.459360   -0.001050 
| 22> H        1.562821   -3.092687    0.001515 
| 23> H        4.023772   -3.470102   -0.001337 
| 24> C        3.900751   -0.081941   -0.002040 
| 25> H        4.532932    0.798314   -0.003223 
| 26> H        5.551118   -1.464051   -0.003853 
| 27> Pd      -0.336917   -0.654572    0.001071 
| 28> C       -0.858975   -2.626404    0.002691 
| 29> H       -0.413078   -3.060930    0.907026 
| 30> H       -0.415091   -3.062278   -0.901950 
| 31> H       -1.933716   -2.807010    0.004117 
| 32> I       -2.840745   -0.024929   -0.001244 
| 33> *
| 34> 
| 35> %maxcore 5000
| 36> 
| 37> %pal
| 38> nprocs = 24
| 39> end
| 40> 
| 41> 
| 42>                          ****END OF INPUT****
================================================================================

                       ****************************
                       * Single Point Calculation *
                       ****************************

---------------------------------
CARTESIAN COORDINATES (ANGSTROEM)
---------------------------------
  C     -0.215143    2.474912    0.000943
  C      0.405007    3.719049    0.001069
  C      1.797844    3.776033    0.000678
  C      2.518886    2.587780    0.000166
  H     -1.296303    2.357179    0.001183
  H     -0.198474    4.620568    0.001502
  H      2.316345    4.729851    0.000789
  H      3.602578    2.611029   -0.000041
  N      0.477795    1.324684    0.000439
  C      1.835277    1.367244    0.000057
  C      2.509992    0.059887   -0.000357
  N      1.694840   -1.036421    0.000876
  C      2.257001   -2.260308    0.000535
  C      4.472096   -1.347919   -0.002398
  C      3.629983   -2.459360   -0.001050
  H      1.562821   -3.092687    0.001515
  H      4.023772   -3.470102   -0.001337
  C      3.900751   -0.081941   -0.002040
  H      4.532932    0.798314   -0.003223
  H      5.551118   -1.464051   -0.003853
  Pd    -0.336917   -0.654572    0.001071
  C     -0.858975   -2.626404    0.002691
  H     -0.413078   -3.060930    0.907026
  H     -0.415091   -3.062278   -0.901950
  H     -1.933716   -2.807010    0.004117
  I     -2.840745   -0.024929   -0.001244

----------------------------
CARTESIAN COORDINATES (A.U.)
----------------------------
  NO LB      ZA    FRAG     MASS         X           Y           Z
   0 C     6.0000    0    12.011   -0.406561    4.676906    0.001782
   1 C     6.0000    0    12.011    0.765352    7.027984    0.002020
   2 C     6.0000    0    12.011    3.397433    7.135668    0.001281
   3 C     6.0000    0    12.011    4.760005    4.890195    0.000314
   4 H     1.0000    0     1.008   -2.449658    4.454423    0.002236
   5 H     1.0000    0     1.008   -0.375062    8.731608    0.002838
   6 H     1.0000    0     1.008    4.377258    8.938123    0.001491
   7 H     1.0000    0     1.008    6.807886    4.934130   -0.000077
   8 N     7.0000    0    14.007    0.902902    2.503290    0.000830
   9 C     6.0000    0    12.011    3.468171    2.583717    0.000108
  10 C     6.0000    0    12.011    4.743197    0.113170   -0.000675
  11 N     7.0000    0    14.007    3.202783   -1.958552    0.001655
  12 C     6.0000    0    12.011    4.265114   -4.271363    0.001011
  13 C     6.0000    0    12.011    8.451037   -2.547198   -0.004532
  14 C     6.0000    0    12.011    6.859674   -4.647517   -0.001984
  15 H     1.0000    0     1.008    2.953304   -5.844331    0.002863
  16 H     1.0000    0     1.008    7.603827   -6.557542   -0.002527
  17 C     6.0000    0    12.011    7.371351   -0.154846   -0.003855
  18 H     1.0000    0     1.008    8.566000    1.508595   -0.006091
  19 H     1.0000    0     1.008   10.490093   -2.766655   -0.007281
  20 Pd   18.0000*   0   106.400   -0.636681   -1.236962    0.002024
  21 C     6.0000    0    12.011   -1.623228   -4.963184    0.005085
  22 H     1.0000    0     1.008   -0.780604   -5.784319    1.714031
  23 H     1.0000    0     1.008   -0.784408   -5.786867   -1.704438
  24 H     1.0000    0     1.008   -3.654194   -5.304480    0.007780
  25 I    25.0000*   0   126.900   -5.368230   -0.047109   -0.002351
* core charge reduced due to ECP

--------------------------------
INTERNAL COORDINATES (ANGSTROEM)
--------------------------------
 C      0   0   0     0.000000000000     0.00000000     0.00000000
 C      1   0   0     1.390130538167     0.00000000     0.00000000
 C      2   1   0     1.394002237339   118.83711176     0.00000000
 C      3   2   1     1.389908996991   118.90694601     0.00000000
 H      1   2   3     1.087551406826   122.70906397   180.00284307
 H      2   1   3     1.084862208859   119.70713808   180.00216069
 H      3   2   1     1.085639017559   120.87154500   180.00165553
 H      4   3   2     1.083941377434   120.02072603   180.00626221
 N      1   2   3     1.342828275635   122.43942809     0.00000000
 C      9   1   2     1.358149063928   119.27049038     0.00000000
 C     10   9   1     1.471197752877   115.50208954   179.99455671
 N     11  10   9     1.366149894505   116.06974155   359.94470710
 C     12  11  10     1.346820142028   118.69711968   179.99840289
 C     13  12  11     2.395643577170    92.28391119     0.00000000
 C     13  12  11     1.387336939338   122.91960657     0.00000000
 H     13  12  11     1.083854986814   115.50237785   180.00257567
 H     15  13  12     1.084743863524   119.53522378   180.00543293
 C     14  13  12     1.388933235859    88.09655549     0.00000000
 H     18  14  13     1.083744933679   120.02483225   180.01107621
 H     14  13  12     1.085254456306   151.47051943   180.02007691
 Pd    12  11  10     2.067328034898   115.98835512     0.06244482
 C     21  12  11     2.039771706831    94.18524209   179.99033678
 H     22  21  12     1.097933864816   106.21819733    59.04752517
 H     22  21  12     1.097904589759   106.23938293   300.85984525
 H     22  21  12     1.089811349635   114.36850026   179.94039775
 I     21  12  11     2.581784328765   176.52795742     0.88253711

---------------------------
INTERNAL COORDINATES (A.U.)
---------------------------
 C      0   0   0     0.000000000000     0.00000000     0.00000000
 C      1   0   0     2.626966007537     0.00000000     0.00000000
 C      2   1   0     2.634282458644   118.83711176     0.00000000
 C      3   2   1     2.626547355386   118.90694601     0.00000000
 H      1   2   3     2.055174315462   122.70906397   180.00284307
 H      2   1   3     2.050092467785   119.70713808   180.00216069
 H      3   2   1     2.051560423485   120.87154500   180.00165553
 H      4   3   2     2.048352348576   120.02072603   180.00626221
 N      1   2   3     2.537577685835   122.43942809     0.00000000
 C      9   1   2     2.566529779865   119.27049038     0.00000000
 C     10   9   1     2.780160841778   115.50208954   179.99455671
 N     11  10   9     2.581649158501   116.06974155   359.94470710
 C     12  11  10     2.545121220081   118.69711968   179.99840289
 C     13  12  11     4.527110275338    92.28391119     0.00000000
 C     13  12  11     2.621686870822   122.91960657     0.00000000
 H     13  12  11     2.048189093963   115.50237785   180.00257567
 H     15  13  12     2.049868827513   119.53522378   180.00543293
 C     14  13  12     2.624703434074    88.09655549     0.00000000
 H     18  14  13     2.047981123678   120.02483225   180.01107621
 H     14  13  12     2.050833708037   151.47051943   180.02007691
 Pd    12  11  10     3.906683814935   115.98835512     0.06244482
 C     21  12  11     3.854609901632    94.18524209   179.99033678
 H     22  21  12     2.074794317660   106.21819733    59.04752517
 H     22  21  12     2.074738995819   106.23938293   300.85984525
 H     22  21  12     2.059444988449   114.36850026   179.94039775
 I     21  12  11     4.878865318216   176.52795742     0.88253711

---------------------
BASIS SET INFORMATION
---------------------
There are 5 groups of distinct atoms

 Group   1 Type C   : 12s6p3d1f contracted to 6s3p3d1f pattern {621111/411/111/1}
 Group   2 Type H   : 5s3p1d contracted to 3s3p1d pattern {311/111/1}
 Group   3 Type N   : 12s6p3d1f contracted to 6s3p3d1f pattern {621111/411/111/1}
 Group   4 Type Pd  : 7s7p6d2f1g contracted to 6s4p3d2f1g pattern {211111/4111/411/11/1}
 Group   5 Type I   : 12s11p9d2f contracted to 7s6p4d2f pattern {5211111/341111/6111/11}

Atom   0C    basis set group =>   1
Atom   1C    basis set group =>   1
Atom   2C    basis set group =>   1
Atom   3C    basis set group =>   1
Atom   4H    basis set group =>   2
Atom   5H    basis set group =>   2
Atom   6H    basis set group =>   2
Atom   7H    basis set group =>   2
Atom   8N    basis set group =>   3
Atom   9C    basis set group =>   1
Atom  10C    basis set group =>   1
Atom  11N    basis set group =>   3
Atom  12C    basis set group =>   1
Atom  13C    basis set group =>   1
Atom  14C    basis set group =>   1
Atom  15H    basis set group =>   2
Atom  16H    basis set group =>   2
Atom  17C    basis set group =>   1
Atom  18H    basis set group =>   2
Atom  19H    basis set group =>   2
Atom  20Pd   basis set group =>   4
Atom  21C    basis set group =>   1
Atom  22H    basis set group =>   2
Atom  23H    basis set group =>   2
Atom  24H    basis set group =>   2
Atom  25I    basis set group =>   5
----------------------------------
AUXILIARY/JK BASIS SET INFORMATION
----------------------------------
There are 5 groups of distinct atoms

 Group   1 Type C   : 14s10p6d2f1g contracted to 10s8p5d1f1g pattern {5111111111/31111111/21111/2/1}
 Group   2 Type H   : 4s2p2d contracted to 2s2p2d pattern {31/11/11}
 Group   3 Type N   : 14s10p6d2f1g contracted to 10s8p4d2f1g pattern {5111111111/31111111/3111/11/1}
 Group   4 Type Pd  : 13s12p10d9f6g3h2i contracted to 11s10p9d8f6g3h2i pattern {31111111111/3111111111/211111111/21111111/111111/111/11}
 Group   5 Type I   : 13s12p11d8f6g3h contracted to 11s10p10d7f5g3h pattern {31111111111/3111111111/2111111111/2111111/21111/111}

Atom   0C    basis set group =>   1
Atom   1C    basis set group =>   1
Atom   2C    basis set group =>   1
Atom   3C    basis set group =>   1
Atom   4H    basis set group =>   2
Atom   5H    basis set group =>   2
Atom   6H    basis set group =>   2
Atom   7H    basis set group =>   2
Atom   8N    basis set group =>   3
Atom   9C    basis set group =>   1
Atom  10C    basis set group =>   1
Atom  11N    basis set group =>   3
Atom  12C    basis set group =>   1
Atom  13C    basis set group =>   1
Atom  14C    basis set group =>   1
Atom  15H    basis set group =>   2
Atom  16H    basis set group =>   2
Atom  17C    basis set group =>   1
Atom  18H    basis set group =>   2
Atom  19H    basis set group =>   2
Atom  20Pd   basis set group =>   4
Atom  21C    basis set group =>   1
Atom  22H    basis set group =>   2
Atom  23H    basis set group =>   2
Atom  24H    basis set group =>   2
Atom  25I    basis set group =>   5
-------------------------
ECP PARAMETER INFORMATION
-------------------------

 Group 1, Type Pd ECP Def2-ECP (replacing 28 core electrons, lmax=3)
 Group 2, Type I  ECP Def2-ECP (replacing 28 core electrons, lmax=3)

Atom  20Pd   ECP group =>   1
Atom  25I    ECP group =>   2



           ************************************************************
           *        Program running with 24 parallel MPI-processes    *
           *              working on a common directory               *
           ************************************************************
------------------------------------------------------------------------------
                           ORCA GTO INTEGRAL CALCULATION
------------------------------------------------------------------------------

                         BASIS SET STATISTICS AND STARTUP INFO

 # of primitive gaussian shells          ...  442
 # of primitive gaussian functions       ... 1070
 # of contracted shells                  ...  281
 # of contracted basis functions         ...  783
 Highest angular momentum                ...    4
 Maximum contraction depth               ...    6
 Integral package used                   ... LIBINT
 Integral threshhold            Thresh   ...  1.000e-10
 Primitive cut-off              TCut     ...  1.000e-11


------------------------------ INTEGRAL EVALUATION ----------------------------


 * One electron integrals 

   ECP integrals                         ... done
 Pre-screening matrix                    ... done
 Shell pair data                         ... done (   0.009 sec)



           ************************************************************
           *        Program running with 24 parallel MPI-processes    *
           *              working on a common directory               *
           ************************************************************
-------------------------------------------------------------------------------
                                 ORCA SCF
-------------------------------------------------------------------------------

------------
SCF SETTINGS
------------
Hamiltonian:
 Density Functional     Method          .... DFT(GTOs)
 Exchange Functional    Exchange        .... TPSS
 Correlation Functional Correlation     .... TPSS
 LDA part of GGA corr.  LDAOpt          .... PW91-LDA
 Gradients option       PostSCFGGA      .... off
 Hybrid DFT is turned on
   Fraction HF Exchange ScalHFX         ....  0.100000
   Scaling of DF-GGA-X  ScalDFX         ....  0.900000
   Scaling of DF-GGA-C  ScalDFC         ....  1.000000
   Scaling of DF-LDA-C  ScalLDAC        ....  1.000000
   Perturbative correction              ....  0.000000
   Density functional embedding theory  .... OFF
   NL short-range parameter             ....  5.200000


General Settings:
 Integral files         IntName         .... MOR11_ed11
 Hartree-Fock type      HFTyp           .... RHF
 Total Charge           Charge          ....    0
 Multiplicity           Mult            ....    1
 Number of Electrons    NEL             ....  134
 Basis Dimension        Dim             ....  783
 Nuclear Repulsion      ENuc            ....   1306.7874881661 Eh

Convergence Acceleration:
 DIIS                   CNVDIIS         .... on
   Start iteration      DIISMaxIt       ....    12
   Startup error        DIISStart       ....  0.200000
   # of expansion vecs  DIISMaxEq       ....     5
   Bias factor          DIISBfac        ....   1.050
   Max. coefficient     DIISMaxC        ....  10.000
 Newton-Raphson         CNVNR           .... off
 SOSCF                  CNVSOSCF        .... off
 Level Shifting         CNVShift        .... on
   Level shift para.    LevelShift      ....    0.2500
   Turn off err/grad.   ShiftErr        ....    0.0010
 Zerner damping         CNVZerner       .... off
 Static damping         CNVDamp         .... on
   Fraction old density DampFac         ....    0.7000
   Max. Damping (<1)    DampMax         ....    0.9800
   Min. Damping (>=0)   DampMin         ....    0.0000
   Turn off err/grad.   DampErr         ....    0.1000
 Fernandez-Rico         CNVRico         .... off

SCF Procedure:
 Maximum # iterations   MaxIter         ....   125
 SCF integral mode      SCFMode         .... Direct
   Integral package                     .... LIBINT
 Reset frequency        DirectResetFreq ....    20
 Integral Threshold     Thresh          ....  1.000e-10 Eh
 Primitive CutOff       TCut            ....  1.000e-11 Eh

Convergence Tolerance:
 Convergence Check Mode ConvCheckMode   .... Total+1el-Energy
 Convergence forced     ConvForced      .... 0
 Energy Change          TolE            ....  1.000e-06 Eh
 1-El. energy change                    ....  1.000e-03 Eh
 DIIS Error             TolErr          ....  1.000e-06


Diagonalization of the overlap matrix:
Smallest eigenvalue                        ... 1.861e-07
Time for diagonalization                   ...    0.117 sec
Threshold for overlap eigenvalues          ... 1.000e-08
Number of eigenvalues below threshold      ... 0
Time for construction of square roots      ...    0.077 sec
Total time needed                          ...    0.197 sec

-------------------
DFT GRID GENERATION
-------------------

General Integration Accuracy     IntAcc      ...  4.670
Radial Grid Type                 RadialGrid  ... Gauss-Chebyshev
Angular Grid (max. acc.)         AngularGrid ... Lebedev-302
Angular grid pruning method      GridPruning ... 3 (G Style)
Weight generation scheme         WeightScheme... Becke
Basis function cutoff            BFCut       ...    1.0000e-10
Integration weight cutoff        WCut        ...    1.0000e-14
Grids for H and He will be reduced by one unit

# of grid points (after initial pruning)     ... 139514 (   0.0 sec)
# of grid points (after weights+screening)   ... 124806 (   0.1 sec)
nearest neighbour list constructed           ...    0.0 sec
Grid point re-assignment to atoms done       ...    0.0 sec
Grid point division into batches done        ...    0.5 sec
Reduced shell lists constructed in    0.6 sec

Total number of grid points                  ...   124806
Total number of batches                      ...     1963
Average number of points per batch           ...       63
Average number of grid points per atom       ...     4800
Average number of shells per batch           ...   156.45 (55.67%)
Average number of basis functions per batch  ...   433.31 (55.34%)
Average number of large shells per batch     ...   117.80 (75.29%)
Average number of large basis fcns per batch ...   328.42 (75.79%)
Maximum spatial batch extension              ...   3.57,  3.80, 16.24 au
Average spatial batch extension              ...   0.06,  0.06,  0.09 au

Time for grid setup =    0.712 sec

------------------------------
INITIAL GUESS: MODEL POTENTIAL
------------------------------
Loading Hartree-Fock densities                     ... done
  calling /sw/apps/orca/orca_4_2_0_linux_x86-64_openmpi314/orca MOR11_ed11_atom46.inp > MOR11_ed11_atom46.out in order to generate an atomic fitting density for atom 20 (Pd with ECP) on-the-fly... 
    atom 20 (Pd), assumed electronic state with S=3: 1s2 2s2 2p6 3s2 3p6 4s2 3d10 4p6 5s2 4d8           ... done
  calling /sw/apps/orca/orca_4_2_0_linux_x86-64_openmpi314/orca MOR11_ed11_atom53.inp > MOR11_ed11_atom53.out in order to generate an atomic fitting density for atom 25 (I  with ECP) on-the-fly... 
    atom 25 (I ), assumed electronic state with S=2: 1s2 2s2 2p6 3s2 3p6 4s2 3d10 4p6 5s2 4d10 5p5           ... done
Calculating cut-offs                               ... done
Setting up the integral package                    ... done
Initializing the effective Hamiltonian             ... done
Starting the Coulomb interaction                   ... done (   0.1 sec)
Reading the grid                                   ... done
Mapping shells                                     ... done
Starting the XC term evaluation                    ... done (   0.3 sec)
  promolecular density results
     # of electrons  =    189.988200233
     EX              =   -384.325607796
     EC              =     -8.356266142
     EX+EC           =   -392.681873937
Transforming the Hamiltonian                       ... done (   0.1 sec)
Diagonalizing the Hamiltonian                      ... done (   0.1 sec)
Back transforming the eigenvectors                 ... done (   0.0 sec)
Now organizing SCF variables                       ... done
                      ------------------
                      INITIAL GUESS DONE (   3.5 sec)
                      ------------------
--------------
SCF ITERATIONS
--------------
ITER       Energy         Delta-E        Max-DP      RMS-DP      [F,P]     Damp
               ***  Starting incremental Fock matrix formation  ***
  0   -684.1115467751   0.000000000000152.94284540  0.43008842  6.8441404 0.7000
  1   -861.1477242974-177.036177522314145.25113532  0.43246470  2.6522082 0.7000
  2   -890.3541233018 -29.20639900434796.94698780  0.26976789  0.8136504 0.7000
  3   -909.9611342115 -19.607010909726101.32955527  0.26364760  0.6384088 0.7000
  4   -921.8835534844 -11.92241927288038.23832397  0.12941996  0.4701080 0.7000
  5   -931.7331663801  -9.84961289572863.31652339  0.16598309  0.3390423 0.7000
  6   -937.6413825663  -5.90821618624218.64369159  0.06604236  0.2387820 0.7000
  7   -942.6048557450  -4.96347317867039.23622824  0.10665688  0.2230717 0.7000
  8   -945.1969108266  -2.592055081621 7.62622436  0.04974840  0.2492181 0.7000
  9   -947.9817527030  -2.78484187636927.75873541  0.08125065  0.2196849 0.7000
 10   -948.9927140863  -1.010961383290 8.31245498  0.04944962  0.2816260 0.7000
 11   -950.6597836736  -1.66706958730121.98455569  0.06961439  0.2178143 0.7000
                               ***Turning on DIIS***
 12   -950.8785421213  -0.21875844775211.88450832  0.05289107  0.2936529 0.7000
 13   -952.0001508930  -1.12160877168811.94350962  0.04696505  0.2158532 0.7000
 14   -953.6975518113  -1.69740091827414.81443951  0.05350831  0.3498038 0.7000
 15   -955.1403621136  -1.44281030227112.83691972  0.04608446  0.4204995 0.7000
 16   -956.3054345329  -1.16507241936010.40127633  0.03722245  0.4549449 0.7000
 17   -957.2341803645  -0.92874583159712.73649835  0.04767355  0.4623692 0.7000
 18   -957.8066073037  -0.572426939184 5.81481570  0.02287181  0.1374083 0.7000
 19   -958.8550455965  -1.048438292808 3.85924886  0.01556197  0.1226662 0.7000
               *** Restarting incremental Fock matrix formation ***
                                   *** Resetting DIIS ***
 20   -959.6110149451  -0.755969348592 5.37126980  0.02039471  0.0845841 0.0000
 21   -960.6005407484  -0.989525803301 2.49934902  0.00712055  0.3134776 0.7000
 22   -960.7327822403  -0.132241491872 2.39991037  0.00666800  0.2547723 0.7000
 23   -960.8441363729  -0.111354132642 1.83574950  0.00486194  0.1994131 0.7000
 24   -960.9206100890  -0.076473716075 1.44031001  0.00377185  0.1635806 0.7000
 25   -960.9749281235  -0.054318034514 1.80442313  0.00483131  0.1389055 0.7000
 26   -961.0271991891  -0.052271065591 1.63197900  0.00470570  0.1087979 0.7000
 27   -961.0642919578  -0.037092768700 3.45695444  0.00992627  0.0654646 0.0000
 28   -961.1077683740  -0.043476416171 0.72922625  0.00227006  0.0227830 0.0000
 29   -961.1091517051  -0.001383331102 0.09196989  0.00051734  0.0067092 0.0000
 30   -961.1093968241  -0.000245119065 0.22257388  0.00097889  0.0023643 0.0000
 31   -961.1094355933  -0.000038769184 0.11376163  0.00082395  0.0006526 0.0000
 32   -961.1094504219  -0.000014828536 0.09370767  0.00028574  0.0011003 0.0000
 33   -961.1094544455  -0.000004023595 0.68793557  0.00381433  0.0004194 0.0000
 34   -961.1094540677   0.000000377748 0.09550018  0.00044085  0.0003950 0.0000
                 **** Energy Check signals convergence ****

               *****************************************************
               *                     SUCCESS                       *
               *           SCF CONVERGED AFTER  35 CYCLES          *
               *****************************************************


----------------
TOTAL SCF ENERGY
----------------

Total Energy       :         -961.10945470 Eh          -26153.11786 eV

Components:
Nuclear Repulsion  :         1306.78748817 Eh           35559.49536 eV
Electronic Energy  :        -2267.89694287 Eh          -61712.61322 eV
One Electron Energy:        -4067.52960980 Eh         -110683.10770 eV
Two Electron Energy:         1799.63266693 Eh           48970.49448 eV

Virial components:
Potential Energy   :        -1655.35409490 Eh          -45044.47494 eV
Kinetic Energy     :          694.24464020 Eh           18891.35708 eV
Virial Ratio       :            2.38439593


DFT components:
N(Alpha)           :       66.999985872518 electrons
N(Beta)            :       66.999985872518 electrons
N(Total)           :      133.999971745037 electrons
E(X)               :      -96.895235959538 Eh       
E(C)               :       -4.981350681123 Eh       
E(XC)              :     -101.876586640662 Eh       
DFET-embed. en.    :        0.000000000000 Eh       

---------------
SCF CONVERGENCE
---------------

  Last Energy change         ...   -6.3714e-07  Tolerance :   1.0000e-06
  Last MAX-Density change    ...    5.5491e-01  Tolerance :   1.0000e-05
  Last RMS-Density change    ...    2.1720e-03  Tolerance :   1.0000e-06
  Last DIIS Error            ...    8.7409e-05  Tolerance :   1.0000e-06

             **** THE GBW FILE WAS UPDATED (MOR11_ed11.gbw) ****
             **** DENSITY FILE WAS UPDATED (MOR11_ed11.scfp) ****
             **** ENERGY FILE WAS UPDATED (MOR11_ed11.en.tmp) ****
             **** THE GBW FILE WAS UPDATED (MOR11_ed11.gbw) ****
             **** DENSITY FILE WAS UPDATED (MOR11_ed11.scfp) ****
----------------
ORBITAL ENERGIES
----------------

  NO   OCC          E(Eh)            E(eV) 
   0   2.0000     -14.319647      -389.6574 
   1   2.0000     -14.304026      -389.2323 
   2   2.0000     -10.200329      -277.5651 
   3   2.0000     -10.195695      -277.4390 
   4   2.0000     -10.184122      -277.1241 
   5   2.0000     -10.173836      -276.8442 
   6   2.0000     -10.167966      -276.6844 
   7   2.0000     -10.164813      -276.5986 
   8   2.0000     -10.163606      -276.5658 
   9   2.0000     -10.160824      -276.4901 
  10   2.0000     -10.159334      -276.4495 
  11   2.0000     -10.152624      -276.2669 
  12   2.0000     -10.078113      -274.2394 
  13   2.0000      -6.687735      -181.9825 
  14   2.0000      -4.721214      -128.4708 
  15   2.0000      -4.715591      -128.3178 
  16   2.0000      -4.715127      -128.3051 
  17   2.0000      -3.397674       -92.4554 
  18   2.0000      -2.098855       -57.1127 
  19   2.0000      -2.094900       -57.0051 
  20   2.0000      -2.071077       -56.3569 
  21   2.0000      -1.794723       -48.8369 
  22   2.0000      -1.792873       -48.7865 
  23   2.0000      -1.792626       -48.7798 
  24   2.0000      -1.787778       -48.6479 
  25   2.0000      -1.787771       -48.6477 
  26   2.0000      -0.978396       -26.6235 
  27   2.0000      -0.951901       -25.9026 
  28   2.0000      -0.826500       -22.4902 
  29   2.0000      -0.816254       -22.2114 
  30   2.0000      -0.812046       -22.0969 
  31   2.0000      -0.758002       -20.6263 
  32   2.0000      -0.675255       -18.3746 
  33   2.0000      -0.666120       -18.1261 
  34   2.0000      -0.636057       -17.3080 
  35   2.0000      -0.628812       -17.1108 
  36   2.0000      -0.620780       -16.8923 
  37   2.0000      -0.596178       -16.2228 
  38   2.0000      -0.559902       -15.2357 
  39   2.0000      -0.521586       -14.1931 
  40   2.0000      -0.517914       -14.0932 
  41   2.0000      -0.500367       -13.6157 
  42   2.0000      -0.480853       -13.0847 
  43   2.0000      -0.462157       -12.5759 
  44   2.0000      -0.449165       -12.2224 
  45   2.0000      -0.448874       -12.2145 
  46   2.0000      -0.440626       -11.9901 
  47   2.0000      -0.429476       -11.6866 
  48   2.0000      -0.412774       -11.2322 
  49   2.0000      -0.394823       -10.7437 
  50   2.0000      -0.382065       -10.3965 
  51   2.0000      -0.363104        -9.8806 
  52   2.0000      -0.361460        -9.8358 
  53   2.0000      -0.349790        -9.5183 
  54   2.0000      -0.345039        -9.3890 
  55   2.0000      -0.329920        -8.9776 
  56   2.0000      -0.318220        -8.6592 
  57   2.0000      -0.314342        -8.5537 
  58   2.0000      -0.266380        -7.2486 
  59   2.0000      -0.254078        -6.9138 
  60   2.0000      -0.249896        -6.8000 
  61   2.0000      -0.243303        -6.6206 
  62   2.0000      -0.240842        -6.5536 
  63   2.0000      -0.220686        -6.0052 
  64   2.0000      -0.202088        -5.4991 
  65   2.0000      -0.188698        -5.1347 
  66   2.0000      -0.185476        -5.0471 
  67   0.0000      -0.111457        -3.0329 
  68   0.0000      -0.081852        -2.2273 
  69   0.0000      -0.069172        -1.8823 
  70   0.0000      -0.042110        -1.1459 
  71   0.0000      -0.025488        -0.6936 
  72   0.0000      -0.017980        -0.4893 
  73   0.0000      -0.002223        -0.0605 
  74   0.0000       0.009064         0.2466 
  75   0.0000       0.020084         0.5465 
  76   0.0000       0.024520         0.6672 
  77   0.0000       0.030318         0.8250 
  78   0.0000       0.035238         0.9589 
  79   0.0000       0.041339         1.1249 
  80   0.0000       0.045100         1.2272 
  81   0.0000       0.053343         1.4515 
  82   0.0000       0.054120         1.4727 
  83   0.0000       0.062297         1.6952 
  84   0.0000       0.064972         1.7680 
  85   0.0000       0.068449         1.8626 
  86   0.0000       0.081260         2.2112 
  87   0.0000       0.086975         2.3667 
  88   0.0000       0.091909         2.5010 
  89   0.0000       0.093156         2.5349 
  90   0.0000       0.102716         2.7951 
  91   0.0000       0.103279         2.8104 
  92   0.0000       0.107839         2.9344 
  93   0.0000       0.112312         3.0562 
  94   0.0000       0.112919         3.0727 
  95   0.0000       0.115233         3.1356 
  96   0.0000       0.119832         3.2608 
  97   0.0000       0.128254         3.4900 
  98   0.0000       0.133904         3.6437 
  99   0.0000       0.135886         3.6976 
 100   0.0000       0.138498         3.7687 
 101   0.0000       0.149461         4.0670 
 102   0.0000       0.149933         4.0799 
 103   0.0000       0.151507         4.1227 
 104   0.0000       0.156100         4.2477 
 105   0.0000       0.158228         4.3056 
 106   0.0000       0.159300         4.3348 
 107   0.0000       0.166478         4.5301 
 108   0.0000       0.171531         4.6676 
 109   0.0000       0.174259         4.7418 
 110   0.0000       0.174633         4.7520 
 111   0.0000       0.177647         4.8340 
 112   0.0000       0.181481         4.9384 
 113   0.0000       0.186195         5.0666 
 114   0.0000       0.190615         5.1869 
 115   0.0000       0.194311         5.2875 
 116   0.0000       0.195425         5.3178 
 117   0.0000       0.196496         5.3469 
 118   0.0000       0.204826         5.5736 
 119   0.0000       0.207842         5.6557 
 120   0.0000       0.208906         5.6846 
 121   0.0000       0.211077         5.7437 
 122   0.0000       0.215886         5.8745 
 123   0.0000       0.222253         6.0478 
 124   0.0000       0.224835         6.1181 
 125   0.0000       0.231646         6.3034 
 126   0.0000       0.234382         6.3779 
 127   0.0000       0.237376         6.4593 
 128   0.0000       0.240172         6.5354 
 129   0.0000       0.247596         6.7374 
 130   0.0000       0.248112         6.7515 
 131   0.0000       0.252578         6.8730 
 132   0.0000       0.254468         6.9244 
 133   0.0000       0.254769         6.9326 
 134   0.0000       0.257696         7.0123 
 135   0.0000       0.267778         7.2866 
 136   0.0000       0.273490         7.4420 
 137   0.0000       0.273795         7.4503 
 138   0.0000       0.280067         7.6210 
 139   0.0000       0.282060         7.6753 
 140   0.0000       0.282175         7.6784 
 141   0.0000       0.283564         7.7162 
 142   0.0000       0.288225         7.8430 
 143   0.0000       0.288524         7.8511 
 144   0.0000       0.289488         7.8774 
 145   0.0000       0.298450         8.1212 
 146   0.0000       0.300339         8.1726 
 147   0.0000       0.303041         8.2462 
 148   0.0000       0.305541         8.3142 
 149   0.0000       0.306345         8.3361 
 150   0.0000       0.310272         8.4429 
 151   0.0000       0.312599         8.5063 
 152   0.0000       0.316493         8.6122 
 153   0.0000       0.321145         8.7388 
 154   0.0000       0.326469         8.8837 
 155   0.0000       0.329931         8.9779 
 156   0.0000       0.333604         9.0778 
 157   0.0000       0.337642         9.1877 
 158   0.0000       0.337940         9.1958 
 159   0.0000       0.339344         9.2340 
 160   0.0000       0.346242         9.4217 
 161   0.0000       0.348404         9.4805 
 162   0.0000       0.353166         9.6101 
 163   0.0000       0.356104         9.6901 
 164   0.0000       0.361045         9.8245 
 165   0.0000       0.362691         9.8693 
 166   0.0000       0.366259         9.9664 
 167   0.0000       0.369679        10.0595 
 168   0.0000       0.370454        10.0806 
 169   0.0000       0.376993        10.2585 
 170   0.0000       0.379190        10.3183 
 171   0.0000       0.381710        10.3869 
 172   0.0000       0.381902        10.3921 
 173   0.0000       0.387688        10.5495 
 174   0.0000       0.391112        10.6427 
 175   0.0000       0.398734        10.8501 
 176   0.0000       0.403379        10.9765 
 177   0.0000       0.409742        11.1496 
 178   0.0000       0.411463        11.1965 
 179   0.0000       0.413049        11.2396 
 180   0.0000       0.415731        11.3126 
 181   0.0000       0.424601        11.5540 
 182   0.0000       0.432973        11.7818 
 183   0.0000       0.434850        11.8329 
 184   0.0000       0.437135        11.8950 
 185   0.0000       0.445426        12.1207 
 186   0.0000       0.445660        12.1270 
 187   0.0000       0.449388        12.2285 
 188   0.0000       0.455139        12.3850 
 189   0.0000       0.458764        12.4836 
 190   0.0000       0.460516        12.5313 
 191   0.0000       0.469440        12.7741 
 192   0.0000       0.474133        12.9018 
 193   0.0000       0.481295        13.0967 
 194   0.0000       0.481463        13.1013 
 195   0.0000       0.484635        13.1876 
 196   0.0000       0.489713        13.3258 
 197   0.0000       0.490643        13.3511 
 198   0.0000       0.496229        13.5031 
 199   0.0000       0.497495        13.5375 
 200   0.0000       0.499446        13.5906 
 201   0.0000       0.504924        13.7397 
 202   0.0000       0.505082        13.7440 
 203   0.0000       0.519623        14.1397 
 204   0.0000       0.520786        14.1713 
 205   0.0000       0.525845        14.3090 
 206   0.0000       0.530151        14.4261 
 207   0.0000       0.537364        14.6224 
 208   0.0000       0.537995        14.6396 
 209   0.0000       0.543337        14.7850 
 210   0.0000       0.551145        14.9974 
 211   0.0000       0.551723        15.0131 
 212   0.0000       0.559561        15.2264 
 213   0.0000       0.564246        15.3539 
 214   0.0000       0.564873        15.3710 
 215   0.0000       0.568140        15.4599 
 216   0.0000       0.573653        15.6099 
 217   0.0000       0.574867        15.6429 
 218   0.0000       0.579062        15.7571 
 219   0.0000       0.582314        15.8456 
 220   0.0000       0.590460        16.0672 
 221   0.0000       0.592977        16.1357 
 222   0.0000       0.598186        16.2775 
 223   0.0000       0.602395        16.3920 
 224   0.0000       0.606935        16.5155 
 225   0.0000       0.607339        16.5265 
 226   0.0000       0.610167        16.6035 
 227   0.0000       0.612805        16.6753 
 228   0.0000       0.617507        16.8032 
 229   0.0000       0.618132        16.8202 
 230   0.0000       0.623899        16.9772 
 231   0.0000       0.631145        17.1743 
 232   0.0000       0.632184        17.2026 
 233   0.0000       0.637065        17.3354 
 234   0.0000       0.639067        17.3899 
 235   0.0000       0.642689        17.4885 
 236   0.0000       0.655084        17.8257 
 237   0.0000       0.657073        17.8799 
 238   0.0000       0.660783        17.9808 
 239   0.0000       0.664935        18.0938 
 240   0.0000       0.669781        18.2257 
 241   0.0000       0.675775        18.3888 
 242   0.0000       0.676734        18.4149 
 243   0.0000       0.679228        18.4827 
 244   0.0000       0.687922        18.7193 
 245   0.0000       0.690511        18.7898 
 246   0.0000       0.692193        18.8355 
 247   0.0000       0.692352        18.8398 
 248   0.0000       0.698825        19.0160 
 249   0.0000       0.702529        19.1168 
 250   0.0000       0.707450        19.2507 
 251   0.0000       0.712781        19.3958 
 252   0.0000       0.713329        19.4107 
 253   0.0000       0.717274        19.5180 
 254   0.0000       0.722038        19.6477 
 255   0.0000       0.725116        19.7314 
 256   0.0000       0.727962        19.8089 
 257   0.0000       0.737098        20.0575 
 258   0.0000       0.740443        20.1485 
 259   0.0000       0.743196        20.2234 
 260   0.0000       0.745203        20.2780 
 261   0.0000       0.755414        20.5559 
 262   0.0000       0.759565        20.6688 
 263   0.0000       0.761409        20.7190 
 264   0.0000       0.772751        21.0276 
 265   0.0000       0.777982        21.1700 
 266   0.0000       0.779597        21.2139 
 267   0.0000       0.787862        21.4388 
 268   0.0000       0.793500        21.5922 
 269   0.0000       0.795431        21.6448 
 270   0.0000       0.803335        21.8598 
 271   0.0000       0.808939        22.0124 
 272   0.0000       0.810291        22.0491 
 273   0.0000       0.812637        22.1130 
 274   0.0000       0.814332        22.1591 
 275   0.0000       0.815035        22.1782 
 276   0.0000       0.828196        22.5364 
 277   0.0000       0.830954        22.6114 
 278   0.0000       0.835668        22.7397 
 279   0.0000       0.840965        22.8838 
 280   0.0000       0.842766        22.9328 
 281   0.0000       0.853545        23.2262 
 282   0.0000       0.856306        23.3013 
 283   0.0000       0.866706        23.5843 
 284   0.0000       0.872476        23.7413 
 285   0.0000       0.872923        23.7535 
 286   0.0000       0.891926        24.2705 
 287   0.0000       0.897181        24.4135 
 288   0.0000       0.910815        24.7845 
 289   0.0000       0.915271        24.9058 
 290   0.0000       0.915452        24.9107 
 291   0.0000       0.918615        24.9968 
 292   0.0000       0.923060        25.1177 
 293   0.0000       0.930512        25.3205 
 294   0.0000       0.937357        25.5068 
 295   0.0000       0.944799        25.7093 
 296   0.0000       0.950149        25.8549 
 297   0.0000       0.950665        25.8689 
 298   0.0000       0.954485        25.9729 
 299   0.0000       0.961059        26.1517 
 300   0.0000       0.963431        26.2163 
 301   0.0000       0.970667        26.4132 
 302   0.0000       0.977757        26.6061 
 303   0.0000       0.981800        26.7161 
 304   0.0000       0.994801        27.0699 
 305   0.0000       1.001435        27.2504 
 306   0.0000       1.008809        27.4511 
 307   0.0000       1.015685        27.6382 
 308   0.0000       1.017646        27.6916 
 309   0.0000       1.024712        27.8838 
 310   0.0000       1.029710        28.0198 
 311   0.0000       1.041694        28.3459 
 312   0.0000       1.044135        28.4124 
 313   0.0000       1.057277        28.7700 
 314   0.0000       1.065653        28.9979 
 315   0.0000       1.073445        29.2099 
 316   0.0000       1.075309        29.2606 
 317   0.0000       1.083585        29.4859 
 318   0.0000       1.092565        29.7302 
 319   0.0000       1.099713        29.9247 
 320   0.0000       1.107940        30.1486 
 321   0.0000       1.113554        30.3014 
 322   0.0000       1.125286        30.6206 
 323   0.0000       1.136127        30.9156 
 324   0.0000       1.141703        31.0673 
 325   0.0000       1.153444        31.3868 
 326   0.0000       1.160965        31.5915 
 327   0.0000       1.171011        31.8648 
 328   0.0000       1.183626        32.2081 
 329   0.0000       1.184664        32.2364 
 330   0.0000       1.190482        32.3947 
 331   0.0000       1.195384        32.5281 
 332   0.0000       1.206630        32.8341 
 333   0.0000       1.206827        32.8394 
 334   0.0000       1.207427        32.8558 
 335   0.0000       1.225906        33.3586 
 336   0.0000       1.228502        33.4292 
 337   0.0000       1.241427        33.7810 
 338   0.0000       1.242921        33.8216 
 339   0.0000       1.248781        33.9811 
 340   0.0000       1.256691        34.1963 
 341   0.0000       1.257677        34.2231 
 342   0.0000       1.267997        34.5039 
 343   0.0000       1.274097        34.6699 
 344   0.0000       1.293420        35.1958 
 345   0.0000       1.294260        35.2186 
 346   0.0000       1.296901        35.2905 
 347   0.0000       1.307506        35.5791 
 348   0.0000       1.319043        35.8930 
 349   0.0000       1.322457        35.9859 
 350   0.0000       1.338437        36.4207 
 351   0.0000       1.342502        36.5313 
 352   0.0000       1.343040        36.5460 
 353   0.0000       1.347661        36.6717 
 354   0.0000       1.351965        36.7888 
 355   0.0000       1.373352        37.3708 
 356   0.0000       1.374180        37.3933 
 357   0.0000       1.387745        37.7625 
 358   0.0000       1.391007        37.8512 
 359   0.0000       1.396269        37.9944 
 360   0.0000       1.401278        38.1307 
 361   0.0000       1.402792        38.1719 
 362   0.0000       1.419592        38.6291 
 363   0.0000       1.428364        38.8678 
 364   0.0000       1.438926        39.1552 
 365   0.0000       1.444060        39.2949 
 366   0.0000       1.446765        39.3685 
 367   0.0000       1.455699        39.6116 
 368   0.0000       1.477858        40.2146 
 369   0.0000       1.485449        40.4211 
 370   0.0000       1.487181        40.4683 
 371   0.0000       1.495914        40.7059 
 372   0.0000       1.506902        41.0049 
 373   0.0000       1.513505        41.1846 
 374   0.0000       1.531001        41.6607 
 375   0.0000       1.535667        41.7876 
 376   0.0000       1.536133        41.8003 
 377   0.0000       1.546718        42.0883 
 378   0.0000       1.558408        42.4064 
 379   0.0000       1.565202        42.5913 
 380   0.0000       1.570237        42.7283 
 381   0.0000       1.577564        42.9277 
 382   0.0000       1.580441        43.0060 
 383   0.0000       1.597317        43.4652 
 384   0.0000       1.601036        43.5664 
 385   0.0000       1.604669        43.6653 
 386   0.0000       1.616719        43.9932 
 387   0.0000       1.632698        44.4280 
 388   0.0000       1.639453        44.6118 
 389   0.0000       1.640868        44.6503 
 390   0.0000       1.647211        44.8229 
 391   0.0000       1.673293        45.5326 
 392   0.0000       1.676138        45.6100 
 393   0.0000       1.684141        45.8278 
 394   0.0000       1.691154        46.0186 
 395   0.0000       1.702474        46.3267 
 396   0.0000       1.704212        46.3740 
 397   0.0000       1.708621        46.4939 
 398   0.0000       1.709046        46.5055 
 399   0.0000       1.725724        46.9593 
 400   0.0000       1.730226        47.0818 
 401   0.0000       1.740483        47.3609 
 402   0.0000       1.749913        47.6175 
 403   0.0000       1.757243        47.8170 
 404   0.0000       1.758946        47.8633 
 405   0.0000       1.767637        48.0998 
 406   0.0000       1.768109        48.1127 
 407   0.0000       1.770697        48.1831 
 408   0.0000       1.781463        48.4761 
 409   0.0000       1.790087        48.7107 
 410   0.0000       1.800754        49.0010 
 411   0.0000       1.802058        49.0365 
 412   0.0000       1.816525        49.4302 
 413   0.0000       1.818689        49.4890 
 414   0.0000       1.823905        49.6310 
 415   0.0000       1.832116        49.8544 
 416   0.0000       1.848002        50.2867 
 417   0.0000       1.850156        50.3453 
 418   0.0000       1.858343        50.5681 
 419   0.0000       1.868170        50.8355 
 420   0.0000       1.879255        51.1371 
 421   0.0000       1.903856        51.8066 
 422   0.0000       1.910440        51.9857 
 423   0.0000       1.924648        52.3723 
 424   0.0000       1.934392        52.6375 
 425   0.0000       1.936098        52.6839 
 426   0.0000       1.953535        53.1584 
 427   0.0000       1.993458        54.2447 
 428   0.0000       1.996944        54.3396 
 429   0.0000       2.004600        54.5479 
 430   0.0000       2.019412        54.9510 
 431   0.0000       2.021434        55.0060 
 432   0.0000       2.028299        55.1928 
 433   0.0000       2.032727        55.3133 
 434   0.0000       2.047846        55.7247 
 435   0.0000       2.059242        56.0348 
 436   0.0000       2.076516        56.5049 
 437   0.0000       2.089994        56.8716 
 438   0.0000       2.108003        57.3617 
 439   0.0000       2.117454        57.6189 
 440   0.0000       2.120024        57.6888 
 441   0.0000       2.135604        58.1127 
 442   0.0000       2.154789        58.6348 
 443   0.0000       2.159784        58.7707 
 444   0.0000       2.180812        59.3429 
 445   0.0000       2.200626        59.8821 
 446   0.0000       2.209123        60.1133 
 447   0.0000       2.220734        60.4293 
 448   0.0000       2.243791        61.0567 
 449   0.0000       2.264272        61.6140 
 450   0.0000       2.279106        62.0176 
 451   0.0000       2.285304        62.1863 
 452   0.0000       2.293660        62.4137 
 453   0.0000       2.297471        62.5174 
 454   0.0000       2.331656        63.4476 
 455   0.0000       2.353242        64.0350 
 456   0.0000       2.369801        64.4856 
 457   0.0000       2.373785        64.5940 
 458   0.0000       2.403295        65.3970 
 459   0.0000       2.427389        66.0526 
 460   0.0000       2.432480        66.1911 
 461   0.0000       2.437703        66.3333 
 462   0.0000       2.451146        66.6991 
 463   0.0000       2.452083        66.7246 
 464   0.0000       2.463198        67.0270 
 465   0.0000       2.474873        67.3447 
 466   0.0000       2.500549        68.0434 
 467   0.0000       2.512027        68.3557 
 468   0.0000       2.534248        68.9604 
 469   0.0000       2.542698        69.1903 
 470   0.0000       2.555540        69.5398 
 471   0.0000       2.586119        70.3719 
 472   0.0000       2.595836        70.6363 
 473   0.0000       2.604704        70.8776 
 474   0.0000       2.639270        71.8182 
 475   0.0000       2.648063        72.0575 
 476   0.0000       2.660842        72.4052 
 477   0.0000       2.668603        72.6164 
 478   0.0000       2.693415        73.2915 
 479   0.0000       2.696747        73.3822 
 480   0.0000       2.722954        74.0953 
 481   0.0000       2.724521        74.1380 
 482   0.0000       2.752989        74.9126 
 483   0.0000       2.767742        75.3141 
 484   0.0000       2.783931        75.7546 
 485   0.0000       2.801383        76.2295 
 486   0.0000       2.812188        76.5235 
 487   0.0000       2.827217        76.9325 
 488   0.0000       2.857160        77.7473 
 489   0.0000       2.873555        78.1934 
 490   0.0000       2.880235        78.3752 
 491   0.0000       2.903898        79.0191 
 492   0.0000       2.905145        79.0530 
 493   0.0000       2.913103        79.2696 
 494   0.0000       2.932275        79.7913 
 495   0.0000       2.949740        80.2665 
 496   0.0000       2.959658        80.5364 
 497   0.0000       2.962497        80.6136 
 498   0.0000       2.973711        80.9188 
 499   0.0000       2.977966        81.0346 
 500   0.0000       2.984923        81.2239 
 501   0.0000       2.995592        81.5142 
 502   0.0000       3.000016        81.6346 
 503   0.0000       3.008443        81.8639 
 504   0.0000       3.021990        82.2325 
 505   0.0000       3.027368        82.3789 
 506   0.0000       3.029107        82.4262 
 507   0.0000       3.035069        82.5884 
 508   0.0000       3.038573        82.6838 
 509   0.0000       3.046671        82.9041 
 510   0.0000       3.048165        82.9448 
 511   0.0000       3.067025        83.4580 
 512   0.0000       3.071360        83.5759 
 513   0.0000       3.085702        83.9662 
 514   0.0000       3.089762        84.0767 
 515   0.0000       3.091449        84.1226 
 516   0.0000       3.094311        84.2005 
 517   0.0000       3.102741        84.4299 
 518   0.0000       3.104082        84.4664 
 519   0.0000       3.117667        84.8360 
 520   0.0000       3.121192        84.9319 
 521   0.0000       3.129150        85.1485 
 522   0.0000       3.132360        85.2358 
 523   0.0000       3.139825        85.4390 
 524   0.0000       3.143348        85.5349 
 525   0.0000       3.154565        85.8401 
 526   0.0000       3.159951        85.9867 
 527   0.0000       3.164541        86.1115 
 528   0.0000       3.174148        86.3730 
 529   0.0000       3.176527        86.4377 
 530   0.0000       3.179629        86.5221 
 531   0.0000       3.192846        86.8818 
 532   0.0000       3.194537        86.9278 
 533   0.0000       3.207610        87.2835 
 534   0.0000       3.208921        87.3192 
 535   0.0000       3.229531        87.8800 
 536   0.0000       3.238404        88.1215 
 537   0.0000       3.248589        88.3986 
 538   0.0000       3.249998        88.4369 
 539   0.0000       3.256018        88.6007 
 540   0.0000       3.261225        88.7425 
 541   0.0000       3.262482        88.7767 
 542   0.0000       3.268144        88.9307 
 543   0.0000       3.279288        89.2340 
 544   0.0000       3.301127        89.8282 
 545   0.0000       3.303597        89.8954 
 546   0.0000       3.318700        90.3064 
 547   0.0000       3.324343        90.4600 
 548   0.0000       3.327896        90.5566 
 549   0.0000       3.335016        90.7504 
 550   0.0000       3.346459        91.0618 
 551   0.0000       3.349728        91.1507 
 552   0.0000       3.354720        91.2866 
 553   0.0000       3.358566        91.3912 
 554   0.0000       3.364475        91.5520 
 555   0.0000       3.373496        91.7975 
 556   0.0000       3.388111        92.1952 
 557   0.0000       3.419025        93.0364 
 558   0.0000       3.419211        93.0415 
 559   0.0000       3.431994        93.3893 
 560   0.0000       3.443302        93.6970 
 561   0.0000       3.447506        93.8114 
 562   0.0000       3.458020        94.0975 
 563   0.0000       3.474792        94.5539 
 564   0.0000       3.476436        94.5986 
 565   0.0000       3.482220        94.7560 
 566   0.0000       3.494205        95.0821 
 567   0.0000       3.501401        95.2780 
 568   0.0000       3.504631        95.3659 
 569   0.0000       3.515230        95.6543 
 570   0.0000       3.522992        95.8655 
 571   0.0000       3.526285        95.9551 
 572   0.0000       3.534690        96.1838 
 573   0.0000       3.537121        96.2499 
 574   0.0000       3.544317        96.4458 
 575   0.0000       3.548749        96.5664 
 576   0.0000       3.567056        97.0645 
 577   0.0000       3.581136        97.4477 
 578   0.0000       3.591853        97.7393 
 579   0.0000       3.604230        98.0761 
 580   0.0000       3.610151        98.2372 
 581   0.0000       3.612787        98.3089 
 582   0.0000       3.614838        98.3647 
 583   0.0000       3.658706        99.5584 
 584   0.0000       3.688224       100.3617 
 585   0.0000       3.693573       100.5072 
 586   0.0000       3.705064       100.8199 
 587   0.0000       3.705488       100.8314 
 588   0.0000       3.720919       101.2514 
 589   0.0000       3.728265       101.4513 
 590   0.0000       3.736687       101.6804 
 591   0.0000       3.746630       101.9510 
 592   0.0000       3.756626       102.2230 
 593   0.0000       3.758275       102.2679 
 594   0.0000       3.761600       102.3583 
 595   0.0000       3.777232       102.7837 
 596   0.0000       3.784237       102.9743 
 597   0.0000       3.807563       103.6091 
 598   0.0000       3.838046       104.4385 
 599   0.0000       3.846505       104.6687 
 600   0.0000       3.848372       104.7195 
 601   0.0000       3.852107       104.8212 
 602   0.0000       3.857929       104.9796 
 603   0.0000       3.889027       105.8258 
 604   0.0000       3.910241       106.4031 
 605   0.0000       3.923637       106.7676 
 606   0.0000       3.937671       107.1495 
 607   0.0000       3.943670       107.3127 
 608   0.0000       3.960027       107.7578 
 609   0.0000       3.970107       108.0321 
 610   0.0000       3.976072       108.1944 
 611   0.0000       3.992126       108.6313 
 612   0.0000       3.998485       108.8043 
 613   0.0000       4.012685       109.1907 
 614   0.0000       4.020845       109.4128 
 615   0.0000       4.025381       109.5362 
 616   0.0000       4.043138       110.0194 
 617   0.0000       4.043708       110.0349 
 618   0.0000       4.049482       110.1920 
 619   0.0000       4.060863       110.5017 
 620   0.0000       4.076834       110.9363 
 621   0.0000       4.099737       111.5595 
 622   0.0000       4.100486       111.5799 
 623   0.0000       4.107144       111.7611 
 624   0.0000       4.116937       112.0276 
 625   0.0000       4.142240       112.7161 
 626   0.0000       4.167669       113.4080 
 627   0.0000       4.169937       113.4697 
 628   0.0000       4.188406       113.9723 
 629   0.0000       4.197314       114.2147 
 630   0.0000       4.211279       114.5947 
 631   0.0000       4.214708       114.6880 
 632   0.0000       4.217307       114.7588 
 633   0.0000       4.219850       114.8279 
 634   0.0000       4.229418       115.0883 
 635   0.0000       4.229789       115.0984 
 636   0.0000       4.256028       115.8124 
 637   0.0000       4.261266       115.9549 
 638   0.0000       4.272912       116.2718 
 639   0.0000       4.286505       116.6417 
 640   0.0000       4.287533       116.6697 
 641   0.0000       4.312701       117.3546 
 642   0.0000       4.319760       117.5466 
 643   0.0000       4.339453       118.0825 
 644   0.0000       4.343571       118.1946 
 645   0.0000       4.376902       119.1015 
 646   0.0000       4.378091       119.1339 
 647   0.0000       4.384692       119.3135 
 648   0.0000       4.393170       119.5442 
 649   0.0000       4.406467       119.9061 
 650   0.0000       4.418560       120.2351 
 651   0.0000       4.418896       120.2443 
 652   0.0000       4.425152       120.4145 
 653   0.0000       4.434080       120.6574 
 654   0.0000       4.456160       121.2583 
 655   0.0000       4.470244       121.6415 
 656   0.0000       4.484243       122.0225 
 657   0.0000       4.495707       122.3344 
 658   0.0000       4.499815       122.4462 
 659   0.0000       4.524158       123.1086 
 660   0.0000       4.532468       123.3347 
 661   0.0000       4.541580       123.5827 
 662   0.0000       4.544046       123.6498 
 663   0.0000       4.548981       123.7841 
 664   0.0000       4.565500       124.2336 
 665   0.0000       4.595205       125.0419 
 666   0.0000       4.615282       125.5882 
 667   0.0000       4.620474       125.7295 
 668   0.0000       4.623741       125.8184 
 669   0.0000       4.655613       126.6857 
 670   0.0000       4.669541       127.0647 
 671   0.0000       4.691664       127.6667 
 672   0.0000       4.711533       128.2073 
 673   0.0000       4.718299       128.3914 
 674   0.0000       4.725976       128.6003 
 675   0.0000       4.743343       129.0729 
 676   0.0000       4.750196       129.2594 
 677   0.0000       4.774189       129.9123 
 678   0.0000       4.796780       130.5270 
 679   0.0000       4.805011       130.7510 
 680   0.0000       4.813351       130.9779 
 681   0.0000       4.828034       131.3775 
 682   0.0000       4.843304       131.7930 
 683   0.0000       4.869933       132.5176 
 684   0.0000       4.873492       132.6145 
 685   0.0000       4.882499       132.8595 
 686   0.0000       4.908541       133.5682 
 687   0.0000       4.920144       133.8839 
 688   0.0000       4.920548       133.8949 
 689   0.0000       4.936996       134.3425 
 690   0.0000       4.958858       134.9374 
 691   0.0000       4.972597       135.3112 
 692   0.0000       4.978367       135.4683 
 693   0.0000       4.985023       135.6494 
 694   0.0000       5.004942       136.1914 
 695   0.0000       5.010073       136.3310 
 696   0.0000       5.017903       136.5441 
 697   0.0000       5.018812       136.5688 
 698   0.0000       5.030510       136.8871 
 699   0.0000       5.040195       137.1507 
 700   0.0000       5.053367       137.5091 
 701   0.0000       5.079678       138.2251 
 702   0.0000       5.099548       138.7658 
 703   0.0000       5.101071       138.8072 
 704   0.0000       5.118464       139.2805 
 705   0.0000       5.136360       139.7675 
 706   0.0000       5.147845       140.0800 
 707   0.0000       5.153367       140.2302 
 708   0.0000       5.154170       140.2521 
 709   0.0000       5.168574       140.6441 
 710   0.0000       5.207348       141.6991 
 711   0.0000       5.208069       141.7188 
 712   0.0000       5.230549       142.3305 
 713   0.0000       5.242351       142.6516 
 714   0.0000       5.257086       143.0526 
 715   0.0000       5.265254       143.2749 
 716   0.0000       5.274542       143.5276 
 717   0.0000       5.279629       143.6660 
 718   0.0000       5.284136       143.7886 
 719   0.0000       5.288057       143.8953 
 720   0.0000       5.330973       145.0631 
 721   0.0000       5.334443       145.1576 
 722   0.0000       5.355913       145.7418 
 723   0.0000       5.382755       146.4722 
 724   0.0000       5.393789       146.7725 
 725   0.0000       5.400328       146.9504 
 726   0.0000       5.402026       146.9966 
 727   0.0000       5.418845       147.4543 
 728   0.0000       5.428843       147.7263 
 729   0.0000       5.460666       148.5923 
 730   0.0000       5.467083       148.7669 
 731   0.0000       5.488239       149.3426 
 732   0.0000       5.497057       149.5825 
 733   0.0000       5.520731       150.2267 
 734   0.0000       5.524467       150.3284 
 735   0.0000       5.534036       150.5888 
 736   0.0000       5.559752       151.2885 
 737   0.0000       5.592679       152.1845 
 738   0.0000       5.610804       152.6777 
 739   0.0000       5.652599       153.8151 
 740   0.0000       5.687608       154.7677 
 741   0.0000       5.711756       155.4248 
 742   0.0000       5.743551       156.2900 
 743   0.0000       5.769815       157.0046 
 744   0.0000       5.792974       157.6348 
 745   0.0000       5.808717       158.0632 
 746   0.0000       5.840461       158.9270 
 747   0.0000       5.863585       159.5563 
 748   0.0000       5.865928       159.6200 
 749   0.0000       5.944512       161.7584 
 750   0.0000       5.990429       163.0078 
 751   0.0000       6.003559       163.3651 
 752   0.0000       6.025807       163.9705 
 753   0.0000       6.036789       164.2694 
 754   0.0000       6.163459       167.7163 
 755   0.0000       6.188753       168.4045 
 756   0.0000       6.225848       169.4139 
 757   0.0000       6.274112       170.7273 
 758   0.0000       6.298209       171.3830 
 759   0.0000       6.359725       173.0569 
 760   0.0000       6.438176       175.1917 
 761   0.0000       6.725739       183.0167 
 762   0.0000       6.929462       188.5603 
 763   0.0000      23.186557       630.9383 
 764   0.0000      23.229006       632.0934 
 765   0.0000      23.254939       632.7991 
 766   0.0000      23.319428       634.5539 
 767   0.0000      23.329878       634.8382 
 768   0.0000      23.385057       636.3398 
 769   0.0000      23.482045       638.9789 
 770   0.0000      23.647768       643.4885 
 771   0.0000      23.767248       646.7397 
 772   0.0000      23.879076       649.7827 
 773   0.0000      23.965055       652.1223 
 774   0.0000      32.730175       890.6333 
 775   0.0000      32.977688       897.3685 
 776   0.0000      33.145365       901.9312 
 777   0.0000      34.569853       940.6935 
 778   0.0000      34.756739       945.7790 
 779   0.0000      34.893063       949.4885 
 780   0.0000      43.020290      1170.6416 
 781   0.0000     106.908705      2909.1338 
 782   0.0000     118.259800      3218.0128 

                    ********************************
                    * MULLIKEN POPULATION ANALYSIS *
                    ********************************

-----------------------
MULLIKEN ATOMIC CHARGES
-----------------------
   0 C :    0.205586
   1 C :   -0.265032
   2 C :   -0.123605
   3 C :   -0.078093
   4 H :   -0.219197
   5 H :    0.061998
   6 H :    0.070199
   7 H :    0.038461
   8 N :    0.136216
   9 C :    0.711196
  10 C :   -0.026325
  11 N :    0.176200
  12 C :    0.010017
  13 C :   -0.149069
  14 C :   -0.265809
  15 H :    0.058068
  16 H :    0.054837
  17 C :   -0.075734
  18 H :    0.040429
  19 H :    0.067826
  20 Pd:   -0.198525
  21 C :   -0.260971
  22 H :    0.106894
  23 H :    0.107450
  24 H :    0.157610
  25 I :   -0.340627
Sum of atomic charges:    0.0000000

--------------------------------
MULLIKEN REDUCED ORBITAL CHARGES
--------------------------------
  0 C s       :     3.121504  s :     3.121504
      pz      :     0.843263  p :     2.616818
      px      :     0.795540
      py      :     0.978015
      dz2     :    -0.018354  d :     0.044365
      dxz     :     0.007301
      dyz     :     0.040339
      dx2y2   :     0.125270
      dxy     :    -0.110191
      f0      :     0.001678  f :     0.011727
      f+1     :     0.000764
      f-1     :     0.000819
      f+2     :     0.000512
      f-2     :     0.001731
      f+3     :     0.001953
      f-3     :     0.004273
  1 C s       :     3.579411  s :     3.579411
      pz      :     0.945447  p :     2.540701
      px      :     0.784418
      py      :     0.810836
      dz2     :     0.004967  d :     0.137278
      dxz     :     0.017759
      dyz     :     0.017697
      dx2y2   :     0.008785
      dxy     :     0.088070
      f0      :     0.001364  f :     0.007642
      f+1     :     0.000575
      f-1     :     0.000621
      f+2     :     0.000919
      f-2     :     0.000413
      f+3     :     0.001168
      f-3     :     0.002582
  2 C s       :     3.591191  s :     3.591191
      pz      :     0.884094  p :     2.433446
      px      :     0.734272
      py      :     0.815081
      dz2     :    -0.001608  d :     0.091160
      dxz     :     0.018195
      dyz     :    -0.000904
      dx2y2   :     0.025422
      dxy     :     0.050055
      f0      :     0.001353  f :     0.007808
      f+1     :     0.000527
      f-1     :     0.000629
      f+2     :     0.000922
      f-2     :     0.000586
      f+3     :     0.001152
      f-3     :     0.002640
  3 C s       :     3.625886  s :     3.625886
      pz      :     0.961363  p :     2.360063
      px      :     0.671475
      py      :     0.727224
      dz2     :     0.007599  d :     0.084352
      dxz     :     0.015299
      dyz     :     0.025328
      dx2y2   :     0.080010
      dxy     :    -0.043885
      f0      :     0.001373  f :     0.007792
      f+1     :     0.000683
      f-1     :     0.000519
      f+2     :     0.000363
      f-2     :     0.001057
      f+3     :     0.001134
      f-3     :     0.002663
  4 H s       :     1.121764  s :     1.121764
      pz      :     0.017008  p :     0.095669
      px      :     0.011453
      py      :     0.067207
      dz2     :     0.000089  d :     0.001764
      dxz     :     0.000516
      dyz     :     0.000032
      dx2y2   :     0.000342
      dxy     :     0.000785
  5 H s       :     0.909188  s :     0.909188
      pz      :     0.021384  p :     0.027345
      px      :     0.002382
      py      :     0.003579
      dz2     :     0.000082  d :     0.001469
      dxz     :     0.000151
      dyz     :     0.000328
      dx2y2   :     0.000646
      dxy     :     0.000262
  6 H s       :     0.908307  s :     0.908307
      pz      :     0.018684  p :     0.020038
      px      :    -0.001663
      py      :     0.003017
      dz2     :     0.000081  d :     0.001456
      dxz     :     0.000110
      dyz     :     0.000345
      dx2y2   :     0.000567
      dxy     :     0.000353
  7 H s       :     0.943219  s :     0.943219
      pz      :     0.021862  p :     0.016693
      px      :     0.005409
      py      :    -0.010578
      dz2     :     0.000103  d :     0.001627
      dxz     :     0.000480
      dyz     :     0.000017
      dx2y2   :     0.000244
      dxy     :     0.000782
  8 N s       :     3.324315  s :     3.324315
      pz      :     1.196724  p :     3.441987
      px      :     1.028515
      py      :     1.216748
      dz2     :    -0.006464  d :     0.093285
      dxz     :     0.024423
      dyz     :     0.025699
      dx2y2   :     0.014159
      dxy     :     0.035467
      f0      :     0.000716  f :     0.004196
      f+1     :     0.000361
      f-1     :     0.000301
      f+2     :     0.000540
      f-2     :     0.000375
      f+3     :     0.000750
      f-3     :     0.001153
  9 C s       :     3.016714  s :     3.016714
      pz      :     0.874423  p :     2.163715
      px      :     0.827845
      py      :     0.461448
      dz2     :    -0.013626  d :     0.094450
      dxz     :     0.033399
      dyz     :     0.024090
      dx2y2   :     0.266992
      dxy     :    -0.216404
      f0      :     0.002104  f :     0.013924
      f+1     :     0.001040
      f-1     :     0.000754
      f+2     :     0.001744
      f-2     :     0.000826
      f+3     :     0.002382
      f-3     :     0.005074
 10 C s       :     3.431313  s :     3.431313
      pz      :     0.878245  p :     2.457500
      px      :     0.808189
      py      :     0.771066
      dz2     :    -0.014897  d :     0.123669
      dxz     :     0.013949
      dyz     :     0.061667
      dx2y2   :    -0.138020
      dxy     :     0.200970
      f0      :     0.002099  f :     0.013843
      f+1     :     0.000818
      f-1     :     0.000983
      f+2     :     0.000988
      f-2     :     0.001598
      f+3     :     0.002568
      f-3     :     0.004788
 11 N s       :     3.258925  s :     3.258925
      pz      :     1.220784  p :     3.465116
      px      :     1.336663
      py      :     0.907669
      dz2     :    -0.004923  d :     0.095483
      dxz     :     0.025094
      dyz     :     0.038498
      dx2y2   :     0.009613
      dxy     :     0.027201
      f0      :     0.000738  f :     0.004276
      f+1     :     0.000304
      f-1     :     0.000406
      f+2     :     0.000315
      f-2     :     0.000610
      f+3     :     0.000798
      f-3     :     0.001104
 12 C s       :     3.124453  s :     3.124453
      pz      :     0.882743  p :     2.653106
      px      :     0.952503
      py      :     0.817859
      dz2     :    -0.015030  d :     0.200679
      dxz     :     0.011907
      dyz     :     0.023763
      dx2y2   :    -0.010054
      dxy     :     0.190093
      f0      :     0.001692  f :     0.011746
      f+1     :     0.000633
      f-1     :     0.000980
      f+2     :     0.001438
      f-2     :     0.000835
      f+3     :     0.002219
      f-3     :     0.003949
 13 C s       :     3.600921  s :     3.600921
      pz      :     0.886707  p :     2.444292
      px      :     0.788427
      py      :     0.769158
      dz2     :    -0.001340  d :     0.096066
      dxz     :    -0.006290
      dyz     :     0.022155
      dx2y2   :     0.082627
      dxy     :    -0.001086
      f0      :     0.001355  f :     0.007789
      f+1     :     0.000676
      f-1     :     0.000484
      f+2     :     0.000324
      f-2     :     0.001172
      f+3     :     0.001304
      f-3     :     0.002474
 14 C s       :     3.617640  s :     3.617640
      pz      :     0.940678  p :     2.517826
      px      :     0.813612
      py      :     0.763536
      dz2     :     0.004027  d :     0.122657
      dxz     :     0.012088
      dyz     :     0.015945
      dx2y2   :     0.045552
      dxy     :     0.045046
      f0      :     0.001380  f :     0.007686
      f+1     :     0.000519
      f-1     :     0.000692
      f+2     :     0.000679
      f-2     :     0.000689
      f+3     :     0.001363
      f-3     :     0.002364
 15 H s       :     0.913836  s :     0.913836
      pz      :     0.002130  p :     0.026218
      px      :    -0.000577
      py      :     0.024665
      dz2     :     0.000091  d :     0.001878
      dxz     :     0.000267
      dyz     :     0.000319
      dx2y2   :     0.000907
      dxy     :     0.000294
 16 H s       :     0.915499  s :     0.915499
      pz      :     0.021347  p :     0.028198
      px      :     0.001260
      py      :     0.005592
      dz2     :     0.000083  d :     0.001466
      dxz     :     0.000076
      dyz     :     0.000403
      dx2y2   :     0.000425
      dxy     :     0.000478
 17 C s       :     3.623883  s :     3.623883
      pz      :     0.958625  p :     2.363133
      px      :     0.744401
      py      :     0.660107
      dz2     :     0.007754  d :     0.080898
      dxz     :     0.027297
      dyz     :     0.014093
      dx2y2   :    -0.041486
      dxy     :     0.073239
      f0      :     0.001383  f :     0.007820
      f+1     :     0.000583
      f-1     :     0.000620
      f+2     :     0.001000
      f-2     :     0.000431
      f+3     :     0.001254
      f-3     :     0.002550
 18 H s       :     0.943338  s :     0.943338
      pz      :     0.021477  p :     0.014595
      px      :     0.002487
      py      :    -0.009369
      dz2     :     0.000102  d :     0.001638
      dxz     :     0.000175
      dyz     :     0.000329
      dx2y2   :     0.000701
      dxy     :     0.000331
 19 H s       :     0.911000  s :     0.911000
      pz      :     0.018133  p :     0.019722
      px      :     0.002060
      py      :    -0.000471
      dz2     :     0.000082  d :     0.001451
      dxz     :     0.000434
      dyz     :     0.000020
      dx2y2   :     0.000218
      dxy     :     0.000696
 20 Pds       :     3.184815  s :     3.184815
      pz      :     2.053546  p :     6.038562
      px      :     1.877092
      py      :     2.107924
      dz2     :     1.911189  d :     8.959418
      dxz     :     1.886682
      dyz     :     1.958097
      dx2y2   :     1.399108
      dxy     :     1.804341
      f0      :     0.001010  f :     0.015429
      f+1     :     0.001806
      f-1     :     0.002060
      f+2     :     0.001388
      f-2     :     0.000428
      f+3     :     0.005446
      f-3     :     0.003291
      g0      :     0.000044  g :     0.000301
      g+1     :     0.000035
      g-1     :     0.000031
      g+2     :     0.000052
      g-2     :     0.000028
      g+3     :     0.000011
      g-3     :     0.000007
      g+4     :     0.000042
      g-4     :     0.000051
 21 C s       :     2.972854  s :     2.972854
      pz      :     1.117437  p :     3.259977
      px      :     1.171401
      py      :     0.971139
      dz2     :     0.012446  d :     0.024661
      dxz     :     0.010553
      dyz     :     0.009819
      dx2y2   :     0.014243
      dxy     :    -0.022400
      f0      :     0.000262  f :     0.003479
      f+1     :     0.000494
      f-1     :     0.000658
      f+2     :     0.000293
      f-2     :     0.000369
      f+3     :     0.000791
      f-3     :     0.000612
 22 H s       :     0.789178  s :     0.789178
      pz      :     0.023236  p :     0.102384
      px      :     0.021942
      py      :     0.057205
      dz2     :     0.000529  d :     0.001545
      dxz     :     0.000360
      dyz     :     0.000285
      dx2y2   :     0.000258
[...]
      dxz     :     0.044640
      dyz     :     0.151489
      dx2y2   :     0.326298
      dxy     :     0.227082
      f0      :     0.003999  f :     0.063513
      f+1     :     0.003929
      f-1     :     0.005981
      f+2     :     0.002903
      f-2     :     0.010184
      f+3     :     0.013186
      f-3     :     0.023331
  1 C s       :     2.652584  s :     2.652584
      pz      :     0.726653  p :     2.596897
      px      :     0.942532
      py      :     0.927712
      dz2     :     0.059410  d :     0.647189
      dxz     :     0.093674
      dyz     :     0.052588
      dx2y2   :     0.181075
      dxy     :     0.260442
      f0      :     0.002683  f :     0.043660
      f+1     :     0.003801
      f-1     :     0.003730
      f+2     :     0.005999
      f-2     :     0.002818
      f+3     :     0.009364
      f-3     :     0.015265
  2 C s       :     2.654320  s :     2.654320
      pz      :     0.703945  p :     2.577768
      px      :     0.947158
      py      :     0.926665
      dz2     :     0.058851  d :     0.675917
      dxz     :     0.110556
      dyz     :     0.054338
      dx2y2   :     0.205191
      dxy     :     0.246981
      f0      :     0.002615  f :     0.044357
      f+1     :     0.003756
      f-1     :     0.003533
      f+2     :     0.005882
      f-2     :     0.003815
      f+3     :     0.009110
      f-3     :     0.015647
  3 C s       :     2.636179  s :     2.636179
      pz      :     0.732122  p :     2.569934
      px      :     0.905953
      py      :     0.931860
      dz2     :     0.063857  d :     0.670539
      dxz     :     0.035979
      dyz     :     0.122553
      dx2y2   :     0.263101
      dxy     :     0.185048
      f0      :     0.002662  f :     0.043980
      f+1     :     0.003549
      f-1     :     0.004115
      f+2     :     0.002193
      f-2     :     0.007089
      f+3     :     0.009408
      f-3     :     0.014963
  4 H s       :     0.694028  s :     0.694028
      pz      :     0.067906  p :     0.369938
      px      :     0.179055
      py      :     0.122978
      dz2     :     0.002940  d :     0.028477
      dxz     :     0.007449
      dyz     :     0.000145
      dx2y2   :     0.009700
      dxy     :     0.008242
  5 H s       :     0.706175  s :     0.706175
      pz      :     0.071461  p :     0.259110
      px      :     0.082126
      py      :     0.105523
      dz2     :     0.002738  d :     0.028571
      dxz     :     0.002513
      dyz     :     0.005636
      dx2y2   :     0.008918
      dxy     :     0.008766
  6 H s       :     0.706531  s :     0.706531
      pz      :     0.068927  p :     0.257283
      px      :     0.077717
      py      :     0.110639
      dz2     :     0.002733  d :     0.028272
      dxz     :     0.001758
      dyz     :     0.005970
      dx2y2   :     0.008944
      dxy     :     0.008866
  7 H s       :     0.689348  s :     0.689348
      pz      :     0.071396  p :     0.283608
      px      :     0.129652
      py      :     0.082560
      dz2     :     0.002771  d :     0.029096
      dxz     :     0.008444
      dyz     :     0.000022
      dx2y2   :     0.008808
      dxy     :     0.009050
  8 N s       :     2.920634  s :     2.920634
      pz      :     0.984064  p :     3.314515
      px      :     1.117624
      py      :     1.212828
      dz2     :     0.075862  d :     0.748886
      dxz     :     0.115099
      dyz     :     0.089351
      dx2y2   :     0.232211
      dxy     :     0.236363
      f0      :     0.001109  f :     0.018157
      f+1     :     0.001751
      f-1     :     0.001154
      f+2     :     0.002635
      f-2     :     0.001371
      f+3     :     0.003559
      f-3     :     0.006578
  9 C s       :     2.612035  s :     2.612035
      pz      :     0.725433  p :     2.488939
      px      :     0.857555
      py      :     0.905951
      dz2     :     0.086582  d :     1.001513
      dxz     :     0.153146
      dyz     :     0.133069
      dx2y2   :     0.294382
      dxy     :     0.334334
      f0      :     0.005273  f :     0.075118
      f+1     :     0.006590
      f-1     :     0.004743
      f+2     :     0.010783
      f-2     :     0.005373
      f+3     :     0.013656
      f-3     :     0.028700
 10 C s       :     2.613424  s :     2.613424
      pz      :     0.723628  p :     2.483908
      px      :     0.914337
      py      :     0.845943
      dz2     :     0.086301  d :     0.993313
      dxz     :     0.147856
      dyz     :     0.137792
      dx2y2   :     0.308696
      dxy     :     0.312667
      f0      :     0.005284  f :     0.074041
      f+1     :     0.005575
      f-1     :     0.005743
      f+2     :     0.006307
      f-2     :     0.009773
      f+3     :     0.014341
      f-3     :     0.027017
 11 N s       :     2.911351  s :     2.911351
      pz      :     1.000242  p :     3.301950
      px      :     1.214558
      py      :     1.087150
      dz2     :     0.077816  d :     0.758531
      dxz     :     0.081470
      dyz     :     0.130505
      dx2y2   :     0.242076
      dxy     :     0.226664
      f0      :     0.001094  f :     0.018371
      f+1     :     0.000994
      f-1     :     0.001991
      f+2     :     0.000988
      f-2     :     0.003177
      f+3     :     0.003825
      f-3     :     0.006300
 12 C s       :     2.640561  s :     2.640561
      pz      :     0.695313  p :     2.504012
      px      :     0.937858
      py      :     0.870841
      dz2     :     0.069767  d :     0.806402
      dxz     :     0.113934
      dyz     :     0.086567
      dx2y2   :     0.219278
      dxy     :     0.316857
      f0      :     0.003985  f :     0.063295
      f+1     :     0.004527
      f-1     :     0.005471
      f+2     :     0.008634
      f-2     :     0.004652
      f+3     :     0.014603
      f-3     :     0.021424
 13 C s       :     2.653812  s :     2.653812
      pz      :     0.705647  p :     2.579035
      px      :     0.921733
      py      :     0.951656
      dz2     :     0.058546  d :     0.673913
      dxz     :     0.035790
      dyz     :     0.128743
      dx2y2   :     0.271552
      dxy     :     0.179283
      f0      :     0.002656  f :     0.044419
      f+1     :     0.003445
      f-1     :     0.003859
      f+2     :     0.002251
      f-2     :     0.007436
      f+3     :     0.009803
      f-3     :     0.014969
 14 C s       :     2.651857  s :     2.651857
      pz      :     0.729301  p :     2.596771
      px      :     0.942306
      py      :     0.925164
      dz2     :     0.059153  d :     0.648301
      dxz     :     0.098838
      dyz     :     0.051098
      dx2y2   :     0.228903
      dxy     :     0.210309
      f0      :     0.002709  f :     0.043929
      f+1     :     0.003997
      f-1     :     0.003560
      f+2     :     0.004601
      f-2     :     0.004471
      f+3     :     0.010108
      f-3     :     0.014482
 15 H s       :     0.675981  s :     0.675981
      pz      :     0.072124  p :     0.309806
      px      :     0.138099
      py      :     0.099583
      dz2     :     0.002882  d :     0.028973
      dxz     :     0.003411
      dyz     :     0.004637
      dx2y2   :     0.008622
      dxy     :     0.009422
 16 H s       :     0.705769  s :     0.705769
      pz      :     0.071947  p :     0.258990
      px      :     0.070773
      py      :     0.116270
      dz2     :     0.002737  d :     0.028599
      dxz     :     0.001118
      dyz     :     0.007082
      dx2y2   :     0.008806
      dxy     :     0.008854
 17 C s       :     2.635536  s :     2.635536
      pz      :     0.729459  p :     2.568069
      px      :     0.918950
      py      :     0.919660
      dz2     :     0.063868  d :     0.671773
      dxz     :     0.087971
      dyz     :     0.071644
      dx2y2   :     0.197114
      dxy     :     0.251176
      f0      :     0.002678  f :     0.044080
      f+1     :     0.004022
      f-1     :     0.003654
      f+2     :     0.006681
      f-2     :     0.002635
      f+3     :     0.009915
      f-3     :     0.014494
 18 H s       :     0.687615  s :     0.687615
      pz      :     0.070584  p :     0.283825
      px      :     0.086526
      py      :     0.126714
      dz2     :     0.002776  d :     0.029130
      dxz     :     0.002856
      dyz     :     0.005578
      dx2y2   :     0.008955
      dxy     :     0.008965
 19 H s       :     0.706148  s :     0.706148
      pz      :     0.069176  p :     0.257141
      px      :     0.123902
      py      :     0.064063
      dz2     :     0.002739  d :     0.028313
      dxz     :     0.007665
      dyz     :     0.000115
      dx2y2   :     0.008791
      dxy     :     0.009003
 20 Pds       :     2.112712  s :     2.112712
      pz      :     2.057907  p :     6.513404
      px      :     2.268761
      py      :     2.186737
      dz2     :     1.910598  d :     8.892040
      dxz     :     1.863097
      dyz     :     1.909199
      dx2y2   :     1.451150
      dxy     :     1.757995
      f0      :     0.001623  f :     0.034882
      f+1     :     0.004515
      f-1     :     0.004552
      f+2     :     0.002387
      f-2     :     0.000784
      f+3     :     0.013483
      f-3     :     0.007538
      g0      :     0.000058  g :     0.000503
      g+1     :     0.000036
      g-1     :     0.000033
      g+2     :     0.000081
      g-2     :     0.000037
      g+3     :     0.000024
      g-3     :     0.000014
      g+4     :     0.000104
      g-4     :     0.000116
 21 C s       :     2.736922  s :     2.736922
      pz      :     0.956441  p :     2.828603
      px      :     0.969088
      py      :     0.903073
      dz2     :     0.091517  d :     0.477988
      dxz     :     0.055950
      dyz     :     0.084627
      dx2y2   :     0.127484
      dxy     :     0.118408
      f0      :     0.001153  f :     0.023904
      f+1     :     0.004779
      f-1     :     0.004625
      f+2     :     0.001349
      f-2     :     0.004652
      f+3     :     0.004013
      f-3     :     0.003334
 22 H s       :     0.730388  s :     0.730388
      pz      :     0.126121  p :     0.350348
      px      :     0.105465
      py      :     0.118762
      dz2     :     0.008737  d :     0.029572
      dxz     :     0.006890
      dyz     :     0.007719
      dx2y2   :     0.003638
      dxy     :     0.002588
 23 H s       :     0.730415  s :     0.730415
      pz      :     0.126136  p :     0.350285
      px      :     0.105337
      py      :     0.118813
      dz2     :     0.008737  d :     0.029572
      dxz     :     0.006891
      dyz     :     0.007726
      dx2y2   :     0.003634
      dxy     :     0.002583
 24 H s       :     0.737247  s :     0.737247
      pz      :     0.089106  p :     0.400001
      px      :     0.162958
      py      :     0.147937
      dz2     :     0.002771  d :     0.029916
      dxz     :     0.009165
      dyz     :     0.000158
      dx2y2   :     0.008097
      dxy     :     0.009726
 25 I s       :     3.698780  s :     3.698780
      pz      :     3.854432  p :    11.010910
      px      :     3.473285
      py      :     3.683193
      dz2     :     2.024725  d :    10.161143
      dxz     :     2.025568
      dyz     :     2.004844
      dx2y2   :     2.048261
      dxy     :     2.057744
      f0      :     0.001340  f :     0.012494
      f+1     :     0.001795
      f-1     :     0.000367
      f+2     :     0.001856
      f-2     :     0.000654
      f+3     :     0.003303
      f-3     :     0.003180


                      *****************************
                      * MAYER POPULATION ANALYSIS *
                      *****************************

  NA   - Mulliken gross atomic population
  ZA   - Total nuclear charge
  QA   - Mulliken gross atomic charge
  VA   - Mayer's total valence
  BVA  - Mayer's bonded valence
  FA   - Mayer's free valence

  ATOM       NA         ZA         QA         VA         BVA        FA
  0 C      5.7944     6.0000     0.2056     3.3082     3.3082     0.0000
  1 C      6.2650     6.0000    -0.2650     3.3242     3.3242     0.0000
  2 C      6.1236     6.0000    -0.1236     3.1750     3.1750     0.0000
  3 C      6.0781     6.0000    -0.0781     2.6249     2.6249     0.0000
  4 H      1.2192     1.0000    -0.2192     1.1691     1.1691     0.0000
  5 H      0.9380     1.0000     0.0620     0.9627     0.9627     0.0000
  6 H      0.9298     1.0000     0.0702     0.9421     0.9421     0.0000
  7 H      0.9615     1.0000     0.0385     0.9328     0.9328     0.0000
  8 N      6.8638     7.0000     0.1362     2.9195     2.9195    -0.0000
  9 C      5.2888     6.0000     0.7112     2.2956     2.2956    -0.0000
 10 C      6.0263     6.0000    -0.0263     3.5322     3.5322     0.0000
 11 N      6.8238     7.0000     0.1762     3.1997     3.1997     0.0000
 12 C      5.9900     6.0000     0.0100     3.6360     3.6360    -0.0000
 13 C      6.1491     6.0000    -0.1491     3.2242     3.2242    -0.0000
 14 C      6.2658     6.0000    -0.2658     3.2689     3.2689     0.0000
 15 H      0.9419     1.0000     0.0581     0.9785     0.9785    -0.0000
 16 H      0.9452     1.0000     0.0548     0.9709     0.9709     0.0000
 17 C      6.0757     6.0000    -0.0757     2.5706     2.5706     0.0000
 18 H      0.9596     1.0000     0.0404     0.9276     0.9276    -0.0000
 19 H      0.9322     1.0000     0.0678     0.9410     0.9410    -0.0000
 20 Pd    18.1985    18.0000    -0.1985     2.6053     2.6053     0.0000
 21 C      6.2610     6.0000    -0.2610     3.6379     3.6379    -0.0000
 22 H      0.8931     1.0000     0.1069     1.2124     1.2124    -0.0000
 23 H      0.8926     1.0000     0.1074     1.2128     1.2128    -0.0000
 24 H      0.8424     1.0000     0.1576     1.1556     1.1556    -0.0000
 25 I     25.3406    25.0000    -0.3406     1.1226     1.1226     0.0000

  Mayer bond orders larger than 0.100000
B(  0-C ,  1-C ) :   1.1480 B(  0-C ,  4-H ) :   1.0535 B(  0-C ,  8-N ) :   1.3745 
B(  0-C , 25-I ) :  -0.1631 B(  1-C ,  2-C ) :   1.1518 B(  1-C ,  5-H ) :   1.0728 
B(  1-C , 20-Pd) :   0.1075 B(  2-C ,  3-C ) :   1.0899 B(  2-C ,  6-H ) :   1.0492 
B(  2-C ,  8-N ) :   0.1098 B(  3-C ,  7-H ) :   1.1788 B(  3-C ,  8-N ) :  -0.1861 
B(  3-C ,  9-C ) :   0.8266 B(  3-C , 10-C ) :  -0.4297 B(  3-C , 20-Pd) :   0.1524 
B(  4-H ,  8-N ) :  -0.1201 B(  4-H , 25-I ) :   0.3344 B(  7-H ,  9-C ) :  -0.1048 
B(  8-N ,  9-C ) :   1.0007 B(  8-N , 10-C ) :   0.6135 B(  8-N , 20-Pd) :   0.1588 
B(  8-N , 25-I ) :  -0.1239 B(  9-C , 10-C ) :   1.1979 B(  9-C , 11-N ) :   0.1325 
B(  9-C , 17-C ) :  -0.5198 B(  9-C , 20-Pd) :  -0.1683 B( 10-C , 11-N ) :   1.4372 
B( 10-C , 13-C ) :  -0.1133 B( 10-C , 17-C ) :   0.9042 B( 10-C , 18-H ) :  -0.1017 
B( 10-C , 20-Pd) :   0.1697 B( 11-N , 12-C ) :   1.5657 B( 11-N , 13-C ) :   0.1179 
B( 11-N , 17-C ) :  -0.1997 B( 11-N , 20-Pd) :   0.2855 B( 12-C , 14-C ) :   1.1107 
B( 12-C , 15-H ) :   1.0599 B( 13-C , 14-C ) :   1.1750 B( 13-C , 17-C ) :   1.1074 
B( 13-C , 19-H ) :   1.0559 B( 14-C , 16-H ) :   1.0630 B( 17-C , 18-H ) :   1.1702 
B( 17-C , 20-Pd) :   0.1405 B( 20-Pd, 21-C ) :   0.5958 B( 20-Pd, 22-H ) :   0.1087 
B( 20-Pd, 23-H ) :   0.1085 B( 20-Pd, 25-I ) :   0.9912 B( 21-C , 22-H ) :   1.0157 
B( 21-C , 23-H ) :   1.0156 B( 21-C , 24-H ) :   0.9766 

-------
TIMINGS
-------

Total SCF time: 0 days 0 hours 18 min 54 sec 

Total time                  ....    1134.636 sec
Sum of individual times     ....    1133.162 sec  ( 99.9%)

Fock matrix formation       ....    1119.527 sec  ( 98.7%)
  XC integration            ....      30.695 sec  (  2.7% of F)
    Basis function eval.    ....       2.393 sec  (  7.8% of XC)
    Density eval.           ....       9.941 sec  ( 32.4% of XC)
    XC-Functional eval.     ....       0.310 sec  (  1.0% of XC)
    XC-Potential eval.      ....      14.938 sec  ( 48.7% of XC)
Diagonalization             ....       6.347 sec  (  0.6%)
Density matrix formation    ....       0.308 sec  (  0.0%)
Population analysis         ....       0.135 sec  (  0.0%)
Initial guess               ....       2.785 sec  (  0.2%)
Orbital Transformation      ....       0.000 sec  (  0.0%)
Orbital Orthonormalization  ....       0.000 sec  (  0.0%)
DIIS solution               ....       3.349 sec  (  0.3%)
Grid generation             ....       0.712 sec  (  0.1%)


-------------------------------------------------------------------------------
                          DFT DISPERSION CORRECTION                            
                                                                               
                              DFTD3 V3.1  Rev 1                                
                          USING Becke-Johnson damping                          
-------------------------------------------------------------------------------
The TPSSH functional is recognized
Active option DFTDOPT                   ...         4   

molecular C6(AA) [au] = 13563.264635 


            DFT-D V3
 parameters
 s6 scaling factor         :     1.0000 
 a1 scaling factor         :     0.4529 
 s8 scaling factor         :     2.2382 
 a2 scaling factor         :     4.6550 
 ad hoc parameters k1-k3   :    16.0000     1.3333    -4.0000 

 Edisp/kcal,au: -29.601378202046  -0.047172793827 
 E6   /kcal   : -12.905621681 
 E8   /kcal   : -16.695756521 
 % E8         :  56.401956715 

-------------------------   ----------------
Dispersion correction           -0.047172794
-------------------------   ----------------


-------------------------   --------------------
FINAL SINGLE POINT ENERGY      -961.156627498675
-------------------------   --------------------


                            ***************************************
                            *     ORCA property calculations      *
                            ***************************************

                                    ---------------------
                                    Active property flags
                                    ---------------------
   (+) Dipole Moment


------------------------------------------------------------------------------
                       ORCA ELECTRIC PROPERTIES CALCULATION
------------------------------------------------------------------------------

Dipole Moment Calculation                       ... on
Quadrupole Moment Calculation                   ... off
Polarizability Calculation                      ... off
GBWName                                         ... MOR11_ed11.gbw
Electron density file                           ... MOR11_ed11.scfp
The origin for moment calculation is the CENTER OF MASS  = (-0.379126, -0.037662 -0.000076)

-------------
DIPOLE MOMENT
-------------
                                X             Y             Z
Electronic contribution:   -214.75220     -39.91877      -0.01937
Nuclear contribution   :    218.94043      41.00073       0.01934
                        -----------------------------------------
Total Dipole Moment    :      4.18822       1.08196      -0.00002
                        -----------------------------------------
Magnitude (a.u.)       :      4.32572
Magnitude (Debye)      :     10.99511



--------------------
Rotational spectrum 
--------------------
 
Rotational constants in cm-1:     0.017794     0.008244     0.005640 
Rotational constants in MHz :   533.441148   247.152748   169.085365 

 Dipole components along the rotational axes: 
x,y,z [a.u.] :    -4.190166     1.074409    -0.000252 
x,y,z [Debye]:   -10.650557     2.730931    -0.000641 

 

Timings for individual modules:

Sum of individual times         ...     1139.374 sec (=  18.990 min)
GTO integral calculation        ...        4.362 sec (=   0.073 min)   0.4 %
SCF iterations                  ...     1135.012 sec (=  18.917 min)  99.6 %
                             ****ORCA TERMINATED NORMALLY****
TOTAL RUN TIME: 0 days 0 hours 19 minutes 0 seconds 14 msec
