
                                 *****************
                                 * O   R   C   A *
                                 *****************

           --- An Ab Initio, DFT and Semiempirical electronic structure package ---

                  #######################################################
                  #                        -***-                        #
                  #          Department of theory and spectroscopy      #
                  #               Directorship: Frank Neese             #
                  #        Max Planck Institute fuer Kohlenforschung    #
                  #                Kaiser Wilhelm Platz 1               #
                  #                 D-45470 Muelheim/Ruhr               #
                  #                      Germany                        #
                  #                                                     #
                  #                  All rights reserved                #
                  #                        -***-                        #
                  #######################################################


                         Program Version 4.2.0 -  RELEASE  -


 With contributions from (in alphabetic order):
   Daniel Aravena         : Magnetic Suceptibility
   Michael Atanasov       : Ab Initio Ligand Field Theory (pilot matlab implementation)
   Alexander A. Auer      : GIAO ZORA, VPT2
   Ute Becker             : Parallelization
   Giovanni Bistoni       : ED, misc. LED, open-shell LED, HFLED
   Martin Brehm           : Molecular dynamics
   Dmytro Bykov           : SCF Hessian
   Vijay G. Chilkuri      : MRCI spin determinant printing, contributions to CSF-ICE
   Dipayan Datta          : RHF DLPNO-CCSD density
   Achintya Kumar Dutta   : EOM-CC, STEOM-CC
   Dmitry Ganyushin       : Spin-Orbit,Spin-Spin,Magnetic field MRCI
   Miquel Garcia          : C-PCM Hessian, Gaussian charge scheme
   Yang Guo               : DLPNO-NEVPT2, CIM, IAO-localization
   Andreas Hansen         : Spin unrestricted coupled pair/coupled cluster methods
   Benjamin Helmich-Paris : CASSCF linear response (MC-RPA)
   Lee Huntington         : MR-EOM, pCC
   Robert Izsak           : Overlap fitted RIJCOSX, COSX-SCS-MP3, EOM
   Christian Kollmar      : KDIIS, OOCD, Brueckner-CCSD(T), CCSD density
   Simone Kossmann        : Meta GGA functionals, TD-DFT gradient, OOMP2, MP2 Hessian
   Martin Krupicka        : AUTO-CI
   Lucas Lang             : DCDCAS
   Dagmar Lenk            : GEPOL surface, SMD
   Dimitrios Liakos       : Extrapolation schemes; Compound Job, initial MDCI parallelization
   Dimitrios Manganas     : Further ROCIS development; embedding schemes
   Dimitrios Pantazis     : SARC Basis sets
   Taras Petrenko         : DFT Hessian,TD-DFT gradient, ASA, ECA, R-Raman, ABS, FL, XAS/XES, NRVS
   Peter Pinski           : DLPNO-MP2, DLPNO-MP2 Gradient
   Christoph Reimann      : Effective Core Potentials
   Marius Retegan         : Local ZFS, SOC
   Christoph Riplinger    : Optimizer, TS searches, QM/MM, DLPNO-CCSD(T), (RO)-DLPNO pert. Triples
   Tobias Risthaus        : Range-separated hybrids, TD-DFT gradient, RPA, STAB
   Michael Roemelt        : Original ROCIS implementation
   Masaaki Saitow         : Open-shell DLPNO-CCSD energy and density
   Barbara Sandhoefer     : DKH picture change effects
   Avijit Sen             : IP-ROCIS
   Kantharuban Sivalingam : CASSCF convergence, NEVPT2, FIC-MRCI
   Bernardo de Souza      : ESD, SOC TD-DFT
   Georgi Stoychev        : AutoAux, RI-MP2 NMR
   Willem Van den Heuvel  : Paramagnetic NMR
   Boris Wezisla          : Elementary symmetry handling
   Frank Wennmohs         : Technical directorship


 We gratefully acknowledge several colleagues who have allowed us to
 interface, adapt or use parts of their codes:
   Stefan Grimme, W. Hujo, H. Kruse,             : VdW corrections, initial TS optimization,
                  C. Bannwarth                     DFT functionals, gCP, sTDA/sTD-DF
   Ed Valeev, F. Pavosevic, A. Kumar             : LibInt (2-el integral package), F12 methods
   Garnet Chan, S. Sharma, J. Yang, R. Olivares  : DMRG
   Ulf Ekstrom                                   : XCFun DFT Library
   Mihaly Kallay                                 : mrcc  (arbitrary order and MRCC methods)
   Andreas Klamt, Michael Diedenhofen            : otool_cosmo (COSMO solvation model)
   Jiri Pittner, Ondrej Demel                    : Mk-CCSD
   Frank Weinhold                                : gennbo (NPA and NBO analysis)
   Christopher J. Cramer and Donald G. Truhlar   : smd solvation model
   Lars Goerigk                                  : TD-DFT with DH, B97 family of functionals
   V. Asgeirsson, H. Jonsson                     : NEB implementation
   FAccTs GmbH                                   : IRC, NEB, NEB-TS, Multilevel, MM, QM/MM, CI optimization
   S Lehtola, MJT Oliveira, MAL Marques          : LibXC Library


 Your calculation uses the libint2 library for the computation of 2-el integrals
 For citations please refer to: http://libint.valeyev.net

 Your ORCA version has been built with support for libXC version: 4.2.3
 For citations please refer to: https://tddft.org/programs/libxc/

 This ORCA versions uses:
   CBLAS   interface :  Fast vector & matrix operations
   LAPACKE interface :  Fast linear algebra routines
   SCALAPACK package :  Parallel linear algebra routines


Your calculation utilizes the atom-pairwise dispersion correction
with the Becke-Johnson damping scheme (D3BJ)
Cite in your paper:
S.Grimme, S.Ehrlich, L.Goerigk, J Comput Chem, (2011), 32, 1456–1465 
S.Grimme, J.Antony, S.Ehrlich and H.Krieg, J.Chem.Phys., 132, (2010), 154104 
   

----- Orbital basis set information -----
Your calculation utilizes the basis: def2-TZVPPD
   F. Weigend and R. Ahlrichs, Phys. Chem. Chem. Phys. 7, 3297 (2005).
   D. Rappoport and F. Furche, J. Chem. Phys. 133 134105 (2010).

----- AuxJK basis set information -----
Your calculation utilizes the auxiliary basis: def2/JK
   H-Ba, Hf-Rn: F. Weigend, J. Comput. Chem. 29, 167 (2008).

================================================================================
                                        WARNINGS
                       Please study these warnings very carefully!
================================================================================


INFO   : the flag for use of LIBINT has been found!

================================================================================
                                       INPUT FILE
================================================================================
NAME = MOR25_pr01.in
|  1> #
|  2> # MOR25_pr01 TPSSh-D3BJ/Def2-TZVPPD
|  3> #
|  4> ! tpssh d3bj def2-tzvppd def2/jk grid4 nofinalgrid
|  5> 
|  6> *xyz 0 1
|  7> Cr      -0.000002    0.000001   -0.000002 
|  8> O       -2.697134   -0.646688    1.294578 
|  9> C       -1.683963   -0.403751    0.808266 
| 10> C        0.796729   -1.469777    0.925736 
| 11> O        1.276107   -2.354083    1.482723 
| 12> C        1.683955    0.403738   -0.808274 
| 13> O        2.697131    0.646654   -1.294589 
| 14> C        0.426065    1.152703    1.463476 
| 15> O        0.682414    1.846242    2.344001 
| 16> C       -0.426072   -1.152714   -1.463481 
| 17> O       -0.682416   -1.846267   -2.343994 
| 18> C       -0.796727    1.469805   -0.925736 
| 19> O       -1.276085    2.354134   -1.482702 
| 20> *
| 21> 
| 22> %maxcore 5000
| 23> 
| 24> %pal
| 25> nprocs = 24
| 26> end
| 27> 
| 28> 
| 29>                          ****END OF INPUT****
================================================================================

                       ****************************
                       * Single Point Calculation *
                       ****************************

---------------------------------
CARTESIAN COORDINATES (ANGSTROEM)
---------------------------------
  Cr    -0.000002    0.000001   -0.000002
  O     -2.697134   -0.646688    1.294578
  C     -1.683963   -0.403751    0.808266
  C      0.796729   -1.469777    0.925736
  O      1.276107   -2.354083    1.482723
  C      1.683955    0.403738   -0.808274
  O      2.697131    0.646654   -1.294589
  C      0.426065    1.152703    1.463476
  O      0.682414    1.846242    2.344001
  C     -0.426072   -1.152714   -1.463481
  O     -0.682416   -1.846267   -2.343994
  C     -0.796727    1.469805   -0.925736
  O     -1.276085    2.354134   -1.482702

----------------------------
CARTESIAN COORDINATES (A.U.)
----------------------------
  NO LB      ZA    FRAG     MASS         X           Y           Z
   0 Cr   24.0000    0    52.000   -0.000004    0.000002   -0.000004
   1 O     8.0000    0    15.999   -5.096845   -1.222063    2.446398
   2 C     6.0000    0    12.011   -3.182229   -0.762979    1.527401
   3 C     6.0000    0    12.011    1.505600   -2.777476    1.749388
   4 O     8.0000    0    15.999    2.411493   -4.448572    2.801940
   5 C     6.0000    0    12.011    3.182214    0.762954   -1.527417
   6 O     8.0000    0    15.999    5.096839    1.221999   -2.446419
   7 C     6.0000    0    12.011    0.805146    2.178293    2.765569
   8 O     8.0000    0    15.999    1.289576    3.488892    4.429520
   9 C     6.0000    0    12.011   -0.805159   -2.178314   -2.765578
  10 O     8.0000    0    15.999   -1.289579   -3.488939   -4.429507
  11 C     6.0000    0    12.011   -1.505596    2.777529   -1.749388
  12 O     8.0000    0    15.999   -2.411451    4.448669   -2.801901

--------------------------------
INTERNAL COORDINATES (ANGSTROEM)
--------------------------------
 Cr     0   0   0     0.000000000000     0.00000000     0.00000000
 O      1   0   0     3.060827513034     0.00000000     0.00000000
 C      2   1   0     1.149797035374     0.00053142     0.00000000
 C      1   2   3     1.911025510109    89.99958380   173.54854653
 O      4   1   2     1.149797759038   179.99923388   219.87430575
 C      1   2   3     1.911025475760   179.99930009   211.01740729
 O      6   1   4     1.149798273288   179.99967901   140.38626461
 C      1   2   3     1.911026647061    90.00009104    83.54920458
 O      8   1   2     1.149797995279   179.99989177    47.24050329
 C      1   2   3     1.911035923149    89.99976004   263.54895683
 O     10   1   2     1.149796135545   179.99939567   266.04912555
 C      1   2   3     1.911041067794    90.00068868   353.54914868
 O     12   1   2     1.149796937533   179.99935212    73.62117546

---------------------------
INTERNAL COORDINATES (A.U.)
---------------------------
 Cr     0   0   0     0.000000000000     0.00000000     0.00000000
 O      1   0   0     5.784125742805     0.00000000     0.00000000
 C      2   1   0     2.172801506451     0.00053142     0.00000000
 C      1   2   3     3.611314849044    89.99958380   173.54854653
 O      4   1   2     2.172802873978   179.99923388   219.87430575
 C      1   2   3     3.611314784132   179.99930009   211.01740729
 O      6   1   4     2.172803845771   179.99967901   140.38626461
 C      1   2   3     3.611316997571    90.00009104    83.54920458
 O      8   1   2     2.172803320408   179.99989177    47.24050329
 C      1   2   3     3.611334526837    89.99976004   263.54895683
 O     10   1   2     2.172799806021   179.99939567   266.04912555
 C      1   2   3     3.611344248808    90.00068868   353.54914868
 O     12   1   2     2.172801321559   179.99935212    73.62117546

---------------------
BASIS SET INFORMATION
---------------------
There are 3 groups of distinct atoms

 Group   1 Type Cr  : 17s13p7d2f1g contracted to 6s6p4d2f1g pattern {842111/631111/4111/11/1}
 Group   2 Type O   : 12s7p3d1f contracted to 6s4p3d1f pattern {621111/4111/111/1}
 Group   3 Type C   : 12s6p3d1f contracted to 6s3p3d1f pattern {621111/411/111/1}

Atom   0Cr   basis set group =>   1
Atom   1O    basis set group =>   2
Atom   2C    basis set group =>   3
Atom   3C    basis set group =>   3
Atom   4O    basis set group =>   2
Atom   5C    basis set group =>   3
Atom   6O    basis set group =>   2
Atom   7C    basis set group =>   3
Atom   8O    basis set group =>   2
Atom   9C    basis set group =>   3
Atom  10O    basis set group =>   2
Atom  11C    basis set group =>   3
Atom  12O    basis set group =>   2
----------------------------------
AUXILIARY/JK BASIS SET INFORMATION
----------------------------------
There are 3 groups of distinct atoms

 Group   1 Type Cr  : 19s14p12d10f7g3h1i contracted to 16s13p11d9f5g3h1i pattern {4111111111111111/2111111111111/21111111111/211111111/31111/111/1}
 Group   2 Type O   : 14s10p6d2f1g contracted to 10s8p4d2f1g pattern {5111111111/31111111/3111/11/1}
 Group   3 Type C   : 14s10p6d2f1g contracted to 10s8p5d1f1g pattern {5111111111/31111111/21111/2/1}

Atom   0Cr   basis set group =>   1
Atom   1O    basis set group =>   2
Atom   2C    basis set group =>   3
Atom   3C    basis set group =>   3
Atom   4O    basis set group =>   2
Atom   5C    basis set group =>   3
Atom   6O    basis set group =>   2
Atom   7C    basis set group =>   3
Atom   8O    basis set group =>   2
Atom   9C    basis set group =>   3
Atom  10O    basis set group =>   2
Atom  11C    basis set group =>   3
Atom  12O    basis set group =>   2


           ************************************************************
           *        Program running with 24 parallel MPI-processes    *
           *              working on a common directory               *
           ************************************************************
------------------------------------------------------------------------------
                           ORCA GTO INTEGRAL CALCULATION
------------------------------------------------------------------------------

                         BASIS SET STATISTICS AND STARTUP INFO

 # of primitive gaussian shells          ...  310
 # of primitive gaussian functions       ...  756
 # of contracted shells                  ...  181
 # of contracted basis functions         ...  529
 Highest angular momentum                ...    4
 Maximum contraction depth               ...    8
 Integral package used                   ... LIBINT
 Integral threshhold            Thresh   ...  1.000e-10
 Primitive cut-off              TCut     ...  1.000e-11


------------------------------ INTEGRAL EVALUATION ----------------------------


 * One electron integrals 
 Pre-screening matrix                    ... done
 Shell pair data                         ... done (   0.004 sec)



           ************************************************************
           *        Program running with 24 parallel MPI-processes    *
           *              working on a common directory               *
           ************************************************************
-------------------------------------------------------------------------------
                                 ORCA SCF
-------------------------------------------------------------------------------

------------
SCF SETTINGS
------------
Hamiltonian:
 Density Functional     Method          .... DFT(GTOs)
 Exchange Functional    Exchange        .... TPSS
 Correlation Functional Correlation     .... TPSS
 LDA part of GGA corr.  LDAOpt          .... PW91-LDA
 Gradients option       PostSCFGGA      .... off
 Hybrid DFT is turned on
   Fraction HF Exchange ScalHFX         ....  0.100000
   Scaling of DF-GGA-X  ScalDFX         ....  0.900000
   Scaling of DF-GGA-C  ScalDFC         ....  1.000000
   Scaling of DF-LDA-C  ScalLDAC        ....  1.000000
   Perturbative correction              ....  0.000000
   Density functional embedding theory  .... OFF
   NL short-range parameter             ....  5.200000


General Settings:
 Integral files         IntName         .... MOR25_pr01
 Hartree-Fock type      HFTyp           .... RHF
 Total Charge           Charge          ....    0
 Multiplicity           Mult            ....    1
 Number of Electrons    NEL             ....  108
 Basis Dimension        Dim             ....  529
 Nuclear Repulsion      ENuc            ....    980.5799309349 Eh

Convergence Acceleration:
 DIIS                   CNVDIIS         .... on
   Start iteration      DIISMaxIt       ....    12
   Startup error        DIISStart       ....  0.200000
   # of expansion vecs  DIISMaxEq       ....     5
   Bias factor          DIISBfac        ....   1.050
   Max. coefficient     DIISMaxC        ....  10.000
 Newton-Raphson         CNVNR           .... off
 SOSCF                  CNVSOSCF        .... off
 Level Shifting         CNVShift        .... on
   Level shift para.    LevelShift      ....    0.2500
   Turn off err/grad.   ShiftErr        ....    0.0010
 Zerner damping         CNVZerner       .... off
 Static damping         CNVDamp         .... on
   Fraction old density DampFac         ....    0.7000
   Max. Damping (<1)    DampMax         ....    0.9800
   Min. Damping (>=0)   DampMin         ....    0.0000
   Turn off err/grad.   DampErr         ....    0.1000
 Fernandez-Rico         CNVRico         .... off

SCF Procedure:
 Maximum # iterations   MaxIter         ....   125
 SCF integral mode      SCFMode         .... Direct
   Integral package                     .... LIBINT
 Reset frequency        DirectResetFreq ....    20
 Integral Threshold     Thresh          ....  1.000e-10 Eh
 Primitive CutOff       TCut            ....  1.000e-11 Eh

Convergence Tolerance:
 Convergence Check Mode ConvCheckMode   .... Total+1el-Energy
 Convergence forced     ConvForced      .... 0
 Energy Change          TolE            ....  1.000e-06 Eh
 1-El. energy change                    ....  1.000e-03 Eh
 DIIS Error             TolErr          ....  1.000e-06


Diagonalization of the overlap matrix:
Smallest eigenvalue                        ... 3.692e-06
Time for diagonalization                   ...    0.045 sec
Threshold for overlap eigenvalues          ... 1.000e-08
Number of eigenvalues below threshold      ... 0
Time for construction of square roots      ...    0.051 sec
Total time needed                          ...    0.098 sec

-------------------
DFT GRID GENERATION
-------------------

General Integration Accuracy     IntAcc      ...  4.670
Radial Grid Type                 RadialGrid  ... Gauss-Chebyshev
Angular Grid (max. acc.)         AngularGrid ... Lebedev-302
Angular grid pruning method      GridPruning ... 3 (G Style)
Weight generation scheme         WeightScheme... Becke
Basis function cutoff            BFCut       ...    1.0000e-10
Integration weight cutoff        WCut        ...    1.0000e-14
Grids for H and He will be reduced by one unit

# of grid points (after initial pruning)     ...  84208 (   0.0 sec)
# of grid points (after weights+screening)   ...  78750 (   0.0 sec)
nearest neighbour list constructed           ...    0.0 sec
Grid point re-assignment to atoms done       ...    0.0 sec
Grid point division into batches done        ...    0.4 sec
Reduced shell lists constructed in    0.4 sec

Total number of grid points                  ...    78750
Total number of batches                      ...     1238
Average number of points per batch           ...       63
Average number of grid points per atom       ...     6058
Average number of shells per batch           ...   136.13 (75.21%)
Average number of basis functions per batch  ...   416.21 (78.68%)
Average number of large shells per batch     ...   116.17 (85.34%)
Average number of large basis fcns per batch ...   354.28 (85.12%)
Maximum spatial batch extension              ...   1.50,  1.61,  1.75 au
Average spatial batch extension              ...   0.05,  0.05,  0.05 au

Time for grid setup =    0.475 sec

------------------------------
INITIAL GUESS: MODEL POTENTIAL
------------------------------
Loading Hartree-Fock densities                     ... done
Calculating cut-offs                               ... done
Setting up the integral package                    ... done
Initializing the effective Hamiltonian             ... done
Starting the Coulomb interaction                   ... done (   0.0 sec)
Reading the grid                                   ... done
Mapping shells                                     ... done
Starting the XC term evaluation                    ... done (   0.1 sec)
  promolecular density results
     # of electrons  =    108.000050966
     EX              =   -126.682736581
     EC              =     -3.842156675
     EX+EC           =   -130.524893256
Transforming the Hamiltonian                       ... done (   0.0 sec)
Diagonalizing the Hamiltonian                      ... done (   0.0 sec)
Back transforming the eigenvectors                 ... done (   0.0 sec)
Now organizing SCF variables                       ... done
                      ------------------
                      INITIAL GUESS DONE (   0.8 sec)
                      ------------------
--------------
SCF ITERATIONS
--------------
ITER       Energy         Delta-E        Max-DP      RMS-DP      [F,P]     Damp
               ***  Starting incremental Fock matrix formation  ***
  0  -1724.7224217983   0.000000000000 0.44928984  0.00158746  0.1492026 0.7000
  1  -1724.8135311907  -0.091109392416 0.19089323  0.00080651  0.0653142 0.7000
                               ***Turning on DIIS***
  2  -1724.8425540872  -0.029022896559 0.21189796  0.00126108  0.0514507 0.0000
  3  -1724.8915978661  -0.049043778815 0.05713092  0.00019861  0.1209189 0.7000
  4  -1724.9054267026  -0.013828836570 0.10635544  0.00044832  0.0696149 0.0000
  5  -1724.9117920127  -0.006365310072 0.05579849  0.00016488  0.0469613 0.0000
  6  -1724.9155073394  -0.003715326742 0.00223720  0.00002769  0.0116161 0.0000
  7  -1724.9157985314  -0.000291191943 0.00204107  0.00001523  0.0049573 0.0000
  8  -1724.9158385566  -0.000040025193 0.00684433  0.00002315  0.0017233 0.0000
  9  -1724.9158446138  -0.000006057262 0.00800214  0.00003421  0.0012167 0.0000
 10  -1724.9158468155  -0.000002201627 0.00710707  0.00002853  0.0004893 0.0000
 11  -1724.9158472999  -0.000000484447 0.00548386  0.00002197  0.0000206 0.0000
 12  -1724.9158473015  -0.000000001583 0.00765615  0.00002994  0.0000223 0.0000
                 **** Energy Check signals convergence ****

               *****************************************************
               *                     SUCCESS                       *
               *           SCF CONVERGED AFTER  13 CYCLES          *
               *****************************************************


----------------
TOTAL SCF ENERGY
----------------

Total Energy       :        -1724.91584733 Eh          -46937.34645 eV

Components:
Nuclear Repulsion  :          980.57993093 Eh           26682.93646 eV
Electronic Energy  :        -2705.49577827 Eh          -73620.28291 eV
One Electron Energy:        -4316.14408472 Eh         -117448.25150 eV
Two Electron Energy:         1610.64830645 Eh           43827.96859 eV

Virial components:
Potential Energy   :        -3445.34589951 Eh          -93752.62822 eV
Kinetic Energy     :         1720.43005218 Eh           46815.28176 eV
Virial Ratio       :            2.00260737


DFT components:
N(Alpha)           :       54.000024879244 electrons
N(Beta)            :       54.000024879244 electrons
N(Total)           :      108.000049758487 electrons
E(X)               :     -115.729828640983 Eh       
E(C)               :       -3.903421280012 Eh       
E(XC)              :     -119.633249920995 Eh       
DFET-embed. en.    :        0.000000000000 Eh       

---------------
SCF CONVERGENCE
---------------

  Last Energy change         ...   -3.1005e-08  Tolerance :   1.0000e-06
  Last MAX-Density change    ...    7.7244e-03  Tolerance :   1.0000e-05
  Last RMS-Density change    ...    3.5438e-05  Tolerance :   1.0000e-06
  Last DIIS Error            ...    6.4606e-06  Tolerance :   1.0000e-06

             **** THE GBW FILE WAS UPDATED (MOR25_pr01.gbw) ****
             **** DENSITY FILE WAS UPDATED (MOR25_pr01.scfp) ****
             **** ENERGY FILE WAS UPDATED (MOR25_pr01.en.tmp) ****
             **** THE GBW FILE WAS UPDATED (MOR25_pr01.gbw) ****
             **** DENSITY FILE WAS UPDATED (MOR25_pr01.scfp) ****
----------------
ORBITAL ENERGIES
----------------

  NO   OCC          E(Eh)            E(eV) 
   0   2.0000    -215.560355     -5865.6955 
   1   2.0000     -24.626968      -670.1339 
   2   2.0000     -20.893768      -568.5483 
   3   2.0000     -20.893767      -568.5483 
   4   2.0000     -20.893767      -568.5483 
   5   2.0000     -19.150297      -521.1061 
   6   2.0000     -19.150296      -521.1060 
   7   2.0000     -19.150295      -521.1060 
   8   2.0000     -19.150294      -521.1060 
   9   2.0000     -19.150292      -521.1059 
  10   2.0000     -19.150288      -521.1058 
  11   2.0000     -10.245566      -278.7960 
  12   2.0000     -10.245564      -278.7960 
  13   2.0000     -10.245562      -278.7959 
  14   2.0000     -10.245560      -278.7959 
  15   2.0000     -10.245557      -278.7958 
  16   2.0000     -10.245554      -278.7957 
  17   2.0000      -2.865371       -77.9707 
  18   2.0000      -1.816275       -49.4233 
  19   2.0000      -1.816273       -49.4233 
  20   2.0000      -1.816273       -49.4233 
  21   2.0000      -1.128034       -30.6954 
  22   2.0000      -1.126995       -30.6671 
  23   2.0000      -1.126993       -30.6670 
  24   2.0000      -1.126993       -30.6670 
  25   2.0000      -1.126594       -30.6562 
  26   2.0000      -1.126592       -30.6561 
  27   2.0000      -0.610488       -16.6122 
  28   2.0000      -0.562867       -15.3164 
  29   2.0000      -0.562866       -15.3164 
  30   2.0000      -0.562865       -15.3163 
  31   2.0000      -0.559147       -15.2152 
  32   2.0000      -0.559146       -15.2151 
  33   2.0000      -0.492817       -13.4102 
  34   2.0000      -0.470869       -12.8130 
  35   2.0000      -0.470869       -12.8130 
  36   2.0000      -0.470868       -12.8130 
  37   2.0000      -0.467794       -12.7293 
  38   2.0000      -0.467793       -12.7293 
  39   2.0000      -0.467792       -12.7293 
  40   2.0000      -0.451869       -12.2960 
  41   2.0000      -0.451868       -12.2959 
  42   2.0000      -0.451868       -12.2959 
  43   2.0000      -0.445002       -12.1091 
  44   2.0000      -0.445001       -12.1091 
  45   2.0000      -0.445001       -12.1091 
  46   2.0000      -0.440958       -11.9991 
  47   2.0000      -0.440951       -11.9989 
  48   2.0000      -0.407324       -11.0838 
  49   2.0000      -0.407322       -11.0838 
  50   2.0000      -0.407317       -11.0837 
  51   2.0000      -0.252281        -6.8649 
  52   2.0000      -0.252273        -6.8647 
  53   2.0000      -0.252272        -6.8647 
  54   0.0000      -0.075115        -2.0440 
  55   0.0000      -0.075113        -2.0439 
  56   0.0000      -0.075112        -2.0439 
  57   0.0000      -0.057008        -1.5513 
  58   0.0000      -0.057006        -1.5512 
  59   0.0000      -0.057005        -1.5512 
  60   0.0000      -0.034807        -0.9471 
  61   0.0000      -0.034805        -0.9471 
  62   0.0000      -0.034803        -0.9470 
  63   0.0000      -0.012117        -0.3297 
  64   0.0000      -0.012115        -0.3297 
  65   0.0000      -0.007979        -0.2171 
  66   0.0000      -0.005172        -0.1407 
  67   0.0000      -0.005170        -0.1407 
  68   0.0000      -0.005168        -0.1406 
  69   0.0000       0.013265         0.3610 
  70   0.0000       0.013268         0.3610 
  71   0.0000       0.013274         0.3612 
  72   0.0000       0.052124         1.4184 
  73   0.0000       0.052124         1.4184 
  74   0.0000       0.054779         1.4906 
  75   0.0000       0.054786         1.4908 
  76   0.0000       0.054797         1.4911 
  77   0.0000       0.079027         2.1504 
  78   0.0000       0.079040         2.1508 
  79   0.0000       0.079047         2.1510 
  80   0.0000       0.083830         2.2811 
  81   0.0000       0.093654         2.5484 
  82   0.0000       0.093655         2.5485 
  83   0.0000       0.093665         2.5487 
  84   0.0000       0.116375         3.1667 
  85   0.0000       0.116399         3.1674 
  86   0.0000       0.116440         3.1685 
  87   0.0000       0.133231         3.6254 
  88   0.0000       0.135578         3.6893 
  89   0.0000       0.135584         3.6894 
  90   0.0000       0.135589         3.6896 
  91   0.0000       0.135592         3.6896 
  92   0.0000       0.135611         3.6902 
  93   0.0000       0.142735         3.8840 
  94   0.0000       0.173343         4.7169 
  95   0.0000       0.173355         4.7172 
  96   0.0000       0.173369         4.7176 
  97   0.0000       0.182066         4.9543 
  98   0.0000       0.182067         4.9543 
  99   0.0000       0.182087         4.9548 
 100   0.0000       0.212744         5.7891 
 101   0.0000       0.212789         5.7903 
 102   0.0000       0.240885         6.5548 
 103   0.0000       0.240908         6.5554 
 104   0.0000       0.240935         6.5562 
 105   0.0000       0.242386         6.5956 
 106   0.0000       0.242899         6.6096 
 107   0.0000       0.245285         6.6746 
 108   0.0000       0.245290         6.6747 
 109   0.0000       0.245303         6.6750 
 110   0.0000       0.261885         7.1262 
 111   0.0000       0.278870         7.5884 
 112   0.0000       0.278882         7.5888 
 113   0.0000       0.278893         7.5891 
 114   0.0000       0.291873         7.9423 
 115   0.0000       0.292020         7.9463 
 116   0.0000       0.292136         7.9494 
 117   0.0000       0.307296         8.3620 
 118   0.0000       0.327033         8.8990 
 119   0.0000       0.327053         8.8996 
 120   0.0000       0.344113         9.3638 
 121   0.0000       0.344123         9.3641 
 122   0.0000       0.344178         9.3656 
 123   0.0000       0.353985         9.6324 
 124   0.0000       0.354053         9.6343 
 125   0.0000       0.354104         9.6357 
 126   0.0000       0.354476         9.6458 
 127   0.0000       0.354485         9.6460 
 128   0.0000       0.354500         9.6464 
 129   0.0000       0.354526         9.6471 
 130   0.0000       0.354574         9.6484 
 131   0.0000       0.354583         9.6487 
 132   0.0000       0.359636         9.7862 
 133   0.0000       0.359693         9.7877 
 134   0.0000       0.401716        10.9313 
 135   0.0000       0.403039        10.9672 
 136   0.0000       0.403587        10.9822 
 137   0.0000       0.432115        11.7584 
 138   0.0000       0.432200        11.7608 
 139   0.0000       0.432242        11.7619 
 140   0.0000       0.440714        11.9924 
 141   0.0000       0.457799        12.4573 
 142   0.0000       0.457823        12.4580 
 143   0.0000       0.457850        12.4587 
 144   0.0000       0.488780        13.3004 
 145   0.0000       0.488801        13.3010 
 146   0.0000       0.488823        13.3016 
 147   0.0000       0.499715        13.5979 
 148   0.0000       0.508301        13.8316 
 149   0.0000       0.508528        13.8377 
 150   0.0000       0.508538        13.8380 
 151   0.0000       0.508548        13.8383 
 152   0.0000       0.510405        13.8888 
 153   0.0000       0.510486        13.8910 
 154   0.0000       0.510514        13.8918 
 155   0.0000       0.528122        14.3709 
 156   0.0000       0.528181        14.3725 
 157   0.0000       0.545841        14.8531 
 158   0.0000       0.545874        14.8540 
 159   0.0000       0.545890        14.8544 
 160   0.0000       0.550106        14.9692 
 161   0.0000       0.550149        14.9703 
 162   0.0000       0.550187        14.9713 
 163   0.0000       0.579207        15.7610 
 164   0.0000       0.579250        15.7622 
 165   0.0000       0.579254        15.7623 
 166   0.0000       0.588870        16.0240 
 167   0.0000       0.588873        16.0240 
 168   0.0000       0.588874        16.0241 
 169   0.0000       0.620258        16.8781 
 170   0.0000       0.620427        16.8827 
 171   0.0000       0.635021        17.2798 
 172   0.0000       0.635030        17.2801 
 173   0.0000       0.635073        17.2812 
 174   0.0000       0.641805        17.4644 
 175   0.0000       0.677816        18.4443 
 176   0.0000       0.677844        18.4451 
 177   0.0000       0.677890        18.4463 
 178   0.0000       0.680728        18.5235 
 179   0.0000       0.680750        18.5241 
 180   0.0000       0.693876        18.8813 
 181   0.0000       0.693936        18.8830 
 182   0.0000       0.700649        19.0656 
 183   0.0000       0.700706        19.0672 
 184   0.0000       0.700824        19.0704 
 185   0.0000       0.707172        19.2431 
 186   0.0000       0.710924        19.3452 
 187   0.0000       0.723681        19.6924 
 188   0.0000       0.723715        19.6933 
 189   0.0000       0.723744        19.6941 
 190   0.0000       0.755836        20.5674 
 191   0.0000       0.756392        20.5825 
 192   0.0000       0.761746        20.7282 
 193   0.0000       0.761768        20.7288 
 194   0.0000       0.761781        20.7291 
 195   0.0000       0.772831        21.0298 
 196   0.0000       0.772932        21.0325 
 197   0.0000       0.773049        21.0357 
 198   0.0000       0.819049        22.2875 
 199   0.0000       0.819075        22.2882 
 200   0.0000       0.819106        22.2890 
 201   0.0000       0.819910        22.3109 
 202   0.0000       0.819921        22.3112 
 203   0.0000       0.845102        22.9964 
 204   0.0000       0.845144        22.9975 
 205   0.0000       0.845201        22.9991 
 206   0.0000       0.866152        23.5692 
 207   0.0000       0.866153        23.5692 
 208   0.0000       0.888173        24.1684 
 209   0.0000       0.893666        24.3179 
 210   0.0000       0.893683        24.3184 
 211   0.0000       0.893703        24.3189 
 212   0.0000       0.898909        24.4606 
 213   0.0000       0.906368        24.6635 
 214   0.0000       0.906460        24.6660 
 215   0.0000       0.910786        24.7837 
 216   0.0000       0.910811        24.7844 
 217   0.0000       0.910826        24.7848 
 218   0.0000       0.929055        25.2809 
 219   0.0000       0.929079        25.2815 
 220   0.0000       0.929106        25.2823 
 221   0.0000       0.948825        25.8189 
 222   0.0000       0.970927        26.4203 
 223   0.0000       0.970975        26.4216 
 224   0.0000       0.971017        26.4227 
 225   0.0000       0.983919        26.7738 
 226   0.0000       0.983935        26.7742 
 227   0.0000       0.983961        26.7749 
 228   0.0000       0.995642        27.0928 
 229   0.0000       0.995678        27.0938 
 230   0.0000       0.995700        27.0944 
 231   0.0000       1.002579        27.2816 
 232   0.0000       1.055904        28.7326 
 233   0.0000       1.055966        28.7343 
 234   0.0000       1.056065        28.7370 
 235   0.0000       1.112199        30.2645 
 236   0.0000       1.112210        30.2648 
 237   0.0000       1.112223        30.2651 
 238   0.0000       1.189839        32.3772 
 239   0.0000       1.210717        32.9453 
 240   0.0000       1.210766        32.9466 
 241   0.0000       1.219609        33.1872 
 242   0.0000       1.219619        33.1875 
 243   0.0000       1.219650        33.1884 
 244   0.0000       1.290158        35.1070 
 245   0.0000       1.290235        35.1091 
 246   0.0000       1.290265        35.1099 
 247   0.0000       1.347399        36.6646 
 248   0.0000       1.347579        36.6695 
 249   0.0000       1.355382        36.8818 
 250   0.0000       1.355400        36.8823 
 251   0.0000       1.355441        36.8834 
 252   0.0000       1.356901        36.9232 
 253   0.0000       1.356963        36.9249 
 254   0.0000       1.366710        37.1901 
 255   0.0000       1.366716        37.1902 
 256   0.0000       1.366760        37.1914 
 257   0.0000       1.523995        41.4700 
 258   0.0000       1.633869        44.4598 
 259   0.0000       1.633888        44.4604 
 260   0.0000       1.633925        44.4614 
 261   0.0000       1.672510        45.5113 
 262   0.0000       1.672561        45.5127 
 263   0.0000       1.677069        45.6354 
 264   0.0000       1.677073        45.6355 
 265   0.0000       1.677074        45.6355 
 266   0.0000       1.709710        46.5236 
 267   0.0000       1.709718        46.5238 
 268   0.0000       1.709726        46.5240 
 269   0.0000       1.750522        47.6341 
 270   0.0000       1.751677        47.6655 
 271   0.0000       1.751688        47.6659 
 272   0.0000       1.751701        47.6662 
 273   0.0000       1.754036        47.7298 
 274   0.0000       1.754051        47.7302 
 275   0.0000       1.754068        47.7306 
 276   0.0000       1.770687        48.1828 
 277   0.0000       1.770692        48.1830 
 278   0.0000       1.787345        48.6361 
 279   0.0000       1.787353        48.6363 
 280   0.0000       1.787361        48.6366 
 281   0.0000       1.821811        49.5740 
 282   0.0000       1.830190        49.8020 
 283   0.0000       1.830220        49.8028 
 284   0.0000       1.887837        51.3707 
 285   0.0000       1.904855        51.8337 
 286   0.0000       1.904872        51.8342 
 287   0.0000       1.904905        51.8351 
 288   0.0000       1.914017        52.0831 
 289   0.0000       1.933182        52.6045 
 290   0.0000       1.933217        52.6055 
 291   0.0000       1.933268        52.6069 
 292   0.0000       1.971922        53.6587 
 293   0.0000       1.971924        53.6588 
 294   0.0000       1.971930        53.6589 
 295   0.0000       1.979112        53.8544 
 296   0.0000       1.979147        53.8553 
 297   0.0000       2.086287        56.7708 
 298   0.0000       2.086304        56.7712 
 299   0.0000       2.086381        56.7733 
 300   0.0000       2.130895        57.9846 
 301   0.0000       2.130901        57.9848 
 302   0.0000       2.130910        57.9850 
 303   0.0000       2.177738        59.2593 
 304   0.0000       2.177744        59.2594 
 305   0.0000       2.177758        59.2598 
 306   0.0000       2.241950        61.0066 
 307   0.0000       2.241969        61.0071 
 308   0.0000       2.304292        62.7030 
 309   0.0000       2.304295        62.7031 
 310   0.0000       2.304305        62.7033 
 311   0.0000       2.320205        63.1360 
 312   0.0000       2.328946        63.3738 
 313   0.0000       2.328962        63.3743 
 314   0.0000       2.328967        63.3744 
 315   0.0000       2.334623        63.5283 
 316   0.0000       2.334638        63.5287 
 317   0.0000       2.334660        63.5293 
 318   0.0000       2.355789        64.1043 
 319   0.0000       2.355789        64.1043 
 320   0.0000       2.355796        64.1045 
 321   0.0000       2.457760        66.8791 
 322   0.0000       2.457777        66.8795 
 323   0.0000       2.577937        70.1492 
 324   0.0000       2.577977        70.1503 
 325   0.0000       2.577989        70.1506 
 326   0.0000       2.667206        72.5784 
 327   0.0000       2.667223        72.5788 
 328   0.0000       2.667247        72.5795 
 329   0.0000       2.699099        73.4462 
 330   0.0000       2.699110        73.4465 
 331   0.0000       2.699115        73.4467 
 332   0.0000       2.701784        73.5193 
 333   0.0000       2.701813        73.5201 
 334   0.0000       2.701816        73.5201 
 335   0.0000       2.763706        75.2043 
 336   0.0000       2.763715        75.2045 
 337   0.0000       2.763724        75.2048 
 338   0.0000       2.783617        75.7461 
 339   0.0000       2.783642        75.7467 
 340   0.0000       2.783676        75.7477 
 341   0.0000       2.814988        76.5997 
 342   0.0000       2.840248        77.2871 
 343   0.0000       2.840252        77.2872 
 344   0.0000       2.895886        78.8011 
 345   0.0000       2.895899        78.8014 
 346   0.0000       2.895930        78.8023 
 347   0.0000       2.899014        78.8862 
 348   0.0000       2.913274        79.2742 
 349   0.0000       2.964887        80.6787 
 350   0.0000       2.964895        80.6789 
 351   0.0000       2.964904        80.6791 
 352   0.0000       3.008679        81.8703 
 353   0.0000       3.008688        81.8706 
 354   0.0000       3.008710        81.8712 
 355   0.0000       3.019410        82.1623 
 356   0.0000       3.056935        83.1834 
 357   0.0000       3.056960        83.1841 
 358   0.0000       3.056980        83.1847 
 359   0.0000       3.076025        83.7029 
 360   0.0000       3.085295        83.9551 
 361   0.0000       3.085345        83.9565 
 362   0.0000       3.104286        84.4719 
 363   0.0000       3.104312        84.4726 
 364   0.0000       3.108036        84.5740 
 365   0.0000       3.108070        84.5749 
 366   0.0000       3.108090        84.5754 
 367   0.0000       3.193141        86.8898 
 368   0.0000       3.193176        86.8907 
 369   0.0000       3.193206        86.8916 
 370   0.0000       3.212184        87.4080 
 371   0.0000       3.212233        87.4093 
 372   0.0000       3.212250        87.4098 
 373   0.0000       3.260312        88.7176 
 374   0.0000       3.260354        88.7187 
 375   0.0000       3.260395        88.7198 
 376   0.0000       3.294572        89.6499 
 377   0.0000       3.316160        90.2373 
 378   0.0000       3.316180        90.2378 
 379   0.0000       3.318285        90.2951 
 380   0.0000       3.392937        92.3265 
 381   0.0000       3.392958        92.3271 
 382   0.0000       3.393018        92.3287 
 383   0.0000       3.410585        92.8067 
 384   0.0000       3.410624        92.8078 
 385   0.0000       3.410638        92.8082 
 386   0.0000       3.413763        92.8932 
 387   0.0000       3.413804        92.8943 
 388   0.0000       3.413824        92.8949 
 389   0.0000       3.431120        93.3655 
 390   0.0000       3.431148        93.3663 
 391   0.0000       3.431197        93.3676 
 392   0.0000       3.464689        94.2790 
 393   0.0000       3.464715        94.2797 
 394   0.0000       3.482496        94.7635 
 395   0.0000       3.482511        94.7640 
 396   0.0000       3.482543        94.7648 
 397   0.0000       3.584618        97.5424 
 398   0.0000       3.584626        97.5426 
 399   0.0000       3.584645        97.5432 
 400   0.0000       3.641052        99.0781 
 401   0.0000       3.641092        99.0792 
 402   0.0000       3.641120        99.0799 
 403   0.0000       3.705032       100.8190 
 404   0.0000       3.705059       100.8198 
 405   0.0000       3.714534       101.0776 
 406   0.0000       3.824462       104.0689 
 407   0.0000       3.824525       104.0706 
 408   0.0000       3.896586       106.0315 
 409   0.0000       3.896610       106.0321 
 410   0.0000       3.896622       106.0325 
 411   0.0000       3.905091       106.2629 
 412   0.0000       3.905106       106.2633 
 413   0.0000       3.905108       106.2634 
 414   0.0000       3.929213       106.9193 
 415   0.0000       3.929215       106.9194 
 416   0.0000       3.929228       106.9197 
 417   0.0000       4.373697       119.0144 
 418   0.0000       4.446260       120.9889 
 419   0.0000       4.446314       120.9904 
 420   0.0000       4.446357       120.9915 
 421   0.0000       4.488266       122.1319 
 422   0.0000       4.519993       122.9953 
 423   0.0000       4.520050       122.9968 
 424   0.0000       4.752719       129.3281 
 425   0.0000       4.752724       129.3282 
 426   0.0000       4.752728       129.3283 
 427   0.0000       4.770419       129.8097 
 428   0.0000       4.770445       129.8104 
 429   0.0000       5.112567       139.1200 
 430   0.0000       5.112569       139.1201 
 431   0.0000       5.112578       139.1203 
 432   0.0000       5.112611       139.1212 
 433   0.0000       5.112622       139.1215 
 434   0.0000       5.112625       139.1216 
 435   0.0000       5.113482       139.1449 
 436   0.0000       5.113486       139.1450 
 437   0.0000       5.113493       139.1452 
 438   0.0000       5.117635       139.2579 
 439   0.0000       5.117646       139.2582 
 440   0.0000       5.117649       139.2583 
 441   0.0000       5.508281       149.8879 
 442   0.0000       5.508282       149.8880 
 443   0.0000       5.517482       150.1383 
 444   0.0000       5.517486       150.1384 
 445   0.0000       5.517488       150.1385 
 446   0.0000       5.517990       150.1521 
 447   0.0000       5.523326       150.2973 
 448   0.0000       5.523341       150.2978 
 449   0.0000       5.523346       150.2979 
 450   0.0000       5.536513       150.6562 
 451   0.0000       5.640590       153.4883 
 452   0.0000       5.640617       153.4890 
 453   0.0000       5.697540       155.0380 
 454   0.0000       5.697544       155.0381 
 455   0.0000       5.697548       155.0382 
 456   0.0000       5.718546       155.6095 
 457   0.0000       5.718547       155.6096 
 458   0.0000       5.718550       155.6096 
 459   0.0000       6.162934       167.7019 
 460   0.0000       6.162948       167.7023 
 461   0.0000       6.162959       167.7026 
 462   0.0000       6.177973       168.1112 
 463   0.0000       6.177987       168.1116 
 464   0.0000       6.318334       171.9306 
 465   0.0000       6.334702       172.3760 
 466   0.0000       6.334712       172.3763 
 467   0.0000       6.334720       172.3765 
 468   0.0000       6.366681       173.2462 
 469   0.0000       6.395717       174.0363 
 470   0.0000       6.395723       174.0365 
 471   0.0000       6.395732       174.0367 
 472   0.0000       6.423012       174.7791 
 473   0.0000       6.423020       174.7793 
 474   0.0000       6.425329       174.8421 
 475   0.0000       6.425335       174.8423 
 476   0.0000       6.425403       174.8441 
 477   0.0000       6.427370       174.8976 
 478   0.0000       6.440658       175.2592 
 479   0.0000       6.440667       175.2595 
 480   0.0000       6.440673       175.2596 
 481   0.0000       6.472170       176.1167 
 482   0.0000       6.472221       176.1181 
 483   0.0000       6.484668       176.4568 
 484   0.0000       6.484678       176.4571 
 485   0.0000       6.484692       176.4574 
 486   0.0000       6.486938       176.5186 
 487   0.0000       6.635778       180.5687 
 488   0.0000       6.635788       180.5690 
 489   0.0000       6.635794       180.5691 
 490   0.0000       6.784368       184.6120 
 491   0.0000       6.784378       184.6123 
 492   0.0000       6.784387       184.6126 
 493   0.0000       6.807201       185.2334 
 494   0.0000       6.807215       185.2337 
 495   0.0000       6.840219       186.1318 
 496   0.0000       6.840224       186.1320 
 497   0.0000       6.840229       186.1321 
 498   0.0000       6.924836       188.4344 
 499   0.0000       6.924839       188.4344 
 500   0.0000       6.924843       188.4345 
 501   0.0000       6.960603       189.4076 
 502   0.0000       6.960606       189.4077 
 503   0.0000       6.960608       189.4078 
 504   0.0000       7.008590       190.7134 
 505   0.0000       7.008608       190.7139 
 506   0.0000       7.008621       190.7143 
 507   0.0000       7.040260       191.5752 
 508   0.0000       7.142991       194.3707 
 509   0.0000       7.142996       194.3708 
 510   0.0000       7.143017       194.3714 
 511   0.0000       7.200619       195.9388 
 512   0.0000       7.240557       197.0256 
 513   0.0000       7.240572       197.0260 
 514   0.0000       7.412684       201.7094 
 515   0.0000       7.412686       201.7094 
 516   0.0000       7.412699       201.7098 
 517   0.0000      23.418265       637.2434 
 518   0.0000      23.418271       637.2435 
 519   0.0000      23.418282       637.2439 
 520   0.0000      23.710406       645.1929 
 521   0.0000      23.710421       645.1933 
 522   0.0000      23.841863       648.7701 
 523   0.0000      44.108009      1200.2399 
 524   0.0000      44.323317      1206.0988 
 525   0.0000      44.323321      1206.0989 
 526   0.0000      44.323322      1206.0989 
 527   0.0000      44.445334      1209.4190 
 528   0.0000      44.445335      1209.4190 

                    ********************************
                    * MULLIKEN POPULATION ANALYSIS *
                    ********************************

-----------------------
MULLIKEN ATOMIC CHARGES
-----------------------
   0 Cr:   -1.852175
   1 O :   -0.308141
   2 C :    0.616827
   3 C :    0.617324
   4 O :   -0.308040
   5 C :    0.616860
   6 O :   -0.308106
   7 C :    0.615732
   8 O :   -0.308002
   9 C :    0.616261
  10 O :   -0.308143
  11 C :    0.617774
  12 O :   -0.308170
Sum of atomic charges:   -0.0000000

--------------------------------
MULLIKEN REDUCED ORBITAL CHARGES
--------------------------------
  0 Crs       :     7.703329  s :     7.703329
      pz      :     4.245631  p :    12.738079
      px      :     4.246333
      py      :     4.246115
      dz2     :     1.244456  d :     5.389561
      dxz     :     1.066151
      dyz     :     0.867235
      dx2y2   :     1.075098
      dxy     :     1.136622
      f0      :     0.002616  f :     0.020928
      f+1     :     0.001214
      f-1     :     0.003484
      f+2     :     0.004656
      f-2     :     0.004050
      f+3     :     0.003261
      f-3     :     0.001648
      g0      :     0.000020  g :     0.000277
      g+1     :     0.000032
      g-1     :     0.000029
      g+2     :     0.000034
      g-2     :     0.000031
      g+3     :     0.000054
      g-3     :     0.000028
      g+4     :     0.000019
      g-4     :     0.000030
  1 O s       :     4.003086  s :     4.003086
      pz      :     1.445458  p :     4.254687
      px      :     1.340101
      py      :     1.469128
      dz2     :     0.008727  d :     0.048588
      dxz     :     0.012373
      dyz     :     0.003595
      dx2y2   :     0.010072
      dxy     :     0.013820
      f0      :     0.000075  f :     0.001780
      f+1     :     0.000518
      f-1     :     0.000030
      f+2     :     0.000247
      f-2     :     0.000256
      f+3     :     0.000308
      f-3     :     0.000346
  2 C s       :     3.180246  s :     3.180246
      pz      :     0.661480  p :     2.075927
      px      :     0.780262
      py      :     0.634185
      dz2     :     0.024196  d :     0.110586
      dxz     :     0.020553
      dyz     :     0.015373
      dx2y2   :     0.015618
      dxy     :     0.034847
      f0      :     0.001072  f :     0.016414
      f+1     :     0.004118
      f-1     :     0.000287
      f+2     :     0.002714
      f-2     :     0.002254
      f+3     :     0.002893
      f-3     :     0.003076
  3 C s       :     3.180189  s :     3.180189
      pz      :     0.672130  p :     2.075563
      px      :     0.660041
      py      :     0.743393
      dz2     :     0.028680  d :     0.110511
      dxz     :     0.015991
      dyz     :     0.015824
      dx2y2   :     0.030975
      dxy     :     0.019041
      f0      :     0.001095  f :     0.016412
      f+1     :     0.001112
      f-1     :     0.003588
      f+2     :     0.002614
      f-2     :     0.002730
      f+3     :     0.002179
      f-3     :     0.003095
  4 O s       :     4.002981  s :     4.002981
      pz      :     1.435606  p :     4.254664
      px      :     1.446358
      py      :     1.372700
      dz2     :     0.010172  d :     0.048614
      dxz     :     0.005876
      dyz     :     0.009913
      dx2y2   :     0.012427
      dxy     :     0.010227
      f0      :     0.000078  f :     0.001780
      f+1     :     0.000133
      f-1     :     0.000451
      f+2     :     0.000288
      f-2     :     0.000248
      f+3     :     0.000195
      f-3     :     0.000387
  5 C s       :     3.180215  s :     3.180215
      pz      :     0.661487  p :     2.075909
      px      :     0.780233
      py      :     0.634189
      dz2     :     0.024199  d :     0.110602
      dxz     :     0.020560
      dyz     :     0.015374
      dx2y2   :     0.015617
      dxy     :     0.034852
      f0      :     0.001072  f :     0.016414
      f+1     :     0.004118
      f-1     :     0.000287
      f+2     :     0.002714
      f-2     :     0.002254
      f+3     :     0.002893
      f-3     :     0.003076
  6 O s       :     4.003056  s :     4.003056
      pz      :     1.445457  p :     4.254681
      px      :     1.340095
      py      :     1.469129
      dz2     :     0.008727  d :     0.048588
      dxz     :     0.012373
      dyz     :     0.003596
      dx2y2   :     0.010072
      dxy     :     0.013820
      f0      :     0.000075  f :     0.001780
      f+1     :     0.000518
      f-1     :     0.000030
      f+2     :     0.000247
      f-2     :     0.000256
      f+3     :     0.000308
      f-3     :     0.000346
  7 C s       :     3.181487  s :     3.181487
      pz      :     0.742791  p :     2.075793
      px      :     0.635146
      py      :     0.697857
      dz2     :     0.036089  d :     0.110574
      dxz     :     0.028166
      dyz     :     0.006637
      dx2y2   :     0.019323
      dxy     :     0.020360
      f0      :     0.003280  f :     0.016413
      f+1     :     0.001684
      f-1     :     0.003598
      f+2     :     0.002999
      f-2     :     0.003104
      f+3     :     0.000834
      f-3     :     0.000914
  8 O s       :     4.002908  s :     4.002908
      pz      :     1.373597  p :     4.254697
      px      :     1.468252
      py      :     1.412848
      dz2     :     0.015193  d :     0.048617
      dxz     :     0.010568
      dyz     :     0.009421
      dx2y2   :     0.006581
      dxy     :     0.006853
      f0      :     0.000410  f :     0.001780
      f+1     :     0.000186
      f-1     :     0.000317
      f+2     :     0.000322
      f-2     :     0.000350
      f+3     :     0.000090
      f-3     :     0.000106
  9 C s       :     3.180955  s :     3.180955
      pz      :     0.742804  p :     2.075812
      px      :     0.635133
      py      :     0.697875
      dz2     :     0.036093  d :     0.110560
      dxz     :     0.028166
      dyz     :     0.006623
      dx2y2   :     0.019320
      dxy     :     0.020358
      f0      :     0.003280  f :     0.016413
      f+1     :     0.001684
      f-1     :     0.003598
      f+2     :     0.002999
      f-2     :     0.003104
      f+3     :     0.000834
      f-3     :     0.000914
 10 O s       :     4.003043  s :     4.003043
      pz      :     1.373606  p :     4.254707
      px      :     1.468252
      py      :     1.412849
      dz2     :     0.015193  d :     0.048614
      dxz     :     0.010568
      dyz     :     0.009419
      dx2y2   :     0.006581
      dxy     :     0.006853
      f0      :     0.000409  f :     0.001780
      f+1     :     0.000186
      f-1     :     0.000317
      f+2     :     0.000322
      f-2     :     0.000350
      f+3     :     0.000090
      f-3     :     0.000106
 11 C s       :     3.179745  s :     3.179745
      pz      :     0.672127  p :     2.075545
      px      :     0.660043
      py      :     0.743375
      dz2     :     0.028675  d :     0.110525
      dxz     :     0.016001
      dyz     :     0.015836
      dx2y2   :     0.030965
      dxy     :     0.019047
      f0      :     0.001094  f :     0.016412
      f+1     :     0.001112
      f-1     :     0.003588
      f+2     :     0.002614
      f-2     :     0.002729
      f+3     :     0.002179
      f-3     :     0.003095
 12 O s       :     4.003098  s :     4.003098
      pz      :     1.435614  p :     4.254679
      px      :     1.446363
      py      :     1.372701
      dz2     :     0.010172  d :     0.048612
      dxz     :     0.005875
      dyz     :     0.009912
      dx2y2   :     0.012427
      dxy     :     0.010226
      f0      :     0.000078  f :     0.001780
      f+1     :     0.000133
      f-1     :     0.000451
      f+2     :     0.000288
      f-2     :     0.000248
      f+3     :     0.000195
      f-3     :     0.000387


                     *******************************
                     * LOEWDIN POPULATION ANALYSIS *
                     *******************************

----------------------
LOEWDIN ATOMIC CHARGES
----------------------
   0 Cr:   -0.451593
   1 O :    0.163049
   2 C :   -0.087777
   3 C :   -0.087772
   4 O :    0.163043
   5 C :   -0.087780
   6 O :    0.163047
   7 C :   -0.087792
   8 O :    0.163037
   9 C :   -0.087785
  10 O :    0.163039
  11 C :   -0.087760
  12 O :    0.163044

-------------------------------
LOEWDIN REDUCED ORBITAL CHARGES
-------------------------------
  0 Crs       :     5.954853  s :     5.954853
      pz      :     4.299325  p :    12.897971
      px      :     4.299322
      py      :     4.299323
      dz2     :     1.167087  d :     5.496833
      dxz     :     1.094660
      dyz     :     1.013786
      dx2y2   :     1.098193
      dxy     :     1.123107
      f0      :     0.012780  f :     0.100708
      f+1     :     0.004878
      f-1     :     0.016927
      f+2     :     0.023012
      f-2     :     0.019808
      f+3     :     0.016129
      f-3     :     0.007174
      g0      :     0.000085  g :     0.001228
      g+1     :     0.000133
      g-1     :     0.000137
      g+2     :     0.000140
      g-2     :     0.000121
      g+3     :     0.000308
      g-3     :     0.000108
      g+4     :     0.000062
      g-4     :     0.000134
  1 O s       :     3.384270  s :     3.384270
      pz      :     1.379804  p :     4.258425
      px      :     1.533307
      py      :     1.345314
      dz2     :     0.023352  d :     0.187926
      dxz     :     0.061029
      dyz     :     0.010273
      dx2y2   :     0.054864
      dxy     :     0.038408
      f0      :     0.000663  f :     0.006331
      f+1     :     0.001114
      f-1     :     0.000065
      f+2     :     0.001436
      f-2     :     0.000782
      f+3     :     0.001164
      f-3     :     0.001107
  2 C s       :     2.897995  s :     2.897995
      pz      :     0.693602  p :     2.283967
      px      :     0.955655
      py      :     0.634710
      dz2     :     0.136239  d :     0.820758
      dxz     :     0.214651
      dyz     :     0.077477
      dx2y2   :     0.183203
      dxy     :     0.209188
      f0      :     0.006051  f :     0.085058
      f+1     :     0.020307
      f-1     :     0.001317
      f+2     :     0.015008
      f-2     :     0.011501
      f+3     :     0.015135
      f-3     :     0.015738
  3 C s       :     2.897984  s :     2.897984
      pz      :     0.718048  p :     2.283966
      px      :     0.691369
      py      :     0.874549
      dz2     :     0.152718  d :     0.820766
      dxz     :     0.108804
      dyz     :     0.187862
      dx2y2   :     0.194567
      dxy     :     0.176814
      f0      :     0.006138  f :     0.085057
      f+1     :     0.005341
      f-1     :     0.017775
      f+2     :     0.013600
      f-2     :     0.015081
      f+3     :     0.011912
      f-3     :     0.015210
  4 O s       :     3.384269  s :     3.384269
      pz      :     1.394128  p :     4.258430
      px      :     1.378502
      py      :     1.485799
      dz2     :     0.023813  d :     0.187927
      dxz     :     0.023042
      dyz     :     0.055895
      dx2y2   :     0.037683
      dxy     :     0.047494
      f0      :     0.000662  f :     0.006331
      f+1     :     0.000290
      f-1     :     0.000979
      f+2     :     0.001003
      f-2     :     0.001445
      f+3     :     0.001121
      f-3     :     0.000830
  5 C s       :     2.897994  s :     2.897994
      pz      :     0.693603  p :     2.283967
      px      :     0.955657
      py      :     0.634707
      dz2     :     0.136240  d :     0.820762
      dxz     :     0.214653
      dyz     :     0.077477
      dx2y2   :     0.183203
      dxy     :     0.209189
      f0      :     0.006051  f :     0.085057
      f+1     :     0.020308
      f-1     :     0.001317
      f+2     :     0.015008
      f-2     :     0.011501
      f+3     :     0.015134
      f-3     :     0.015738
  6 O s       :     3.384270  s :     3.384270
      pz      :     1.379805  p :     4.258426
      px      :     1.533308
      py      :     1.345313
      dz2     :     0.023352  d :     0.187926
      dxz     :     0.061030
      dyz     :     0.010273
      dx2y2   :     0.054865
      dxy     :     0.038407
      f0      :     0.000663  f :     0.006331
      f+1     :     0.001114
      f-1     :     0.000065
      f+2     :     0.001436
      f-2     :     0.000782
      f+3     :     0.001164
      f-3     :     0.001107
  7 C s       :     2.897987  s :     2.897987
      pz      :     0.872343  p :     2.283982
      px      :     0.636940
      py      :     0.774699
      dz2     :     0.226987  d :     0.820766
      dxz     :     0.167363
      dyz     :     0.197449
      dx2y2   :     0.114278
      dxy     :     0.114688
      f0      :     0.016164  f :     0.085057
      f+1     :     0.008434
      f-1     :     0.019995
      f+2     :     0.015814
      f-2     :     0.016063
      f+3     :     0.004183
      f-3     :     0.004405
  8 O s       :     3.384270  s :     3.384270
      pz      :     1.484505  p :     4.258434
      px      :     1.346621
      py      :     1.427308
      dz2     :     0.044542  d :     0.187929
      dxz     :     0.030157
      dyz     :     0.073187
      dx2y2   :     0.020570
      dxy     :     0.019473
      f0      :     0.000876  f :     0.006331
      f+1     :     0.000573
      f-1     :     0.001967
      f+2     :     0.001235
      f-2     :     0.001150
      f+3     :     0.000277
      f-3     :     0.000253
  9 C s       :     2.897988  s :     2.897988
      pz      :     0.872337  p :     2.283980
      px      :     0.636937
      py      :     0.774706
      dz2     :     0.226983  d :     0.820759
      dxz     :     0.167360
      dyz     :     0.197448
      dx2y2   :     0.114279
      dxy     :     0.114689
      f0      :     0.016163  f :     0.085057
      f+1     :     0.008433
      f-1     :     0.019995
      f+2     :     0.015814
      f-2     :     0.016064
      f+3     :     0.004183
      f-3     :     0.004405
 10 O s       :     3.384270  s :     3.384270
      pz      :     1.484501  p :     4.258432
      px      :     1.346619
      py      :     1.427312
      dz2     :     0.044540  d :     0.187928
      dxz     :     0.030156
      dyz     :     0.073188
      dx2y2   :     0.020571
      dxy     :     0.019474
      f0      :     0.000876  f :     0.006331
      f+1     :     0.000573
      f-1     :     0.001967
      f+2     :     0.001235
      f-2     :     0.001150
      f+3     :     0.000277
      f-3     :     0.000253
 11 C s       :     2.897988  s :     2.897988
      pz      :     0.718039  p :     2.283962
      px      :     0.691361
      py      :     0.874562
      dz2     :     0.152713  d :     0.820753
      dxz     :     0.108798
      dyz     :     0.187861
      dx2y2   :     0.194566
      dxy     :     0.176815
      f0      :     0.006138  f :     0.085057
      f+1     :     0.005340
      f-1     :     0.017775
      f+2     :     0.013599
      f-2     :     0.015080
      f+3     :     0.011913
      f-3     :     0.015211
 12 O s       :     3.384271  s :     3.384271
      pz      :     1.394123  p :     4.258428
      px      :     1.378498
      py      :     1.485807
      dz2     :     0.023812  d :     0.187927
      dxz     :     0.023040
      dyz     :     0.055895
      dx2y2   :     0.037685
      dxy     :     0.047494
      f0      :     0.000662  f :     0.006331
      f+1     :     0.000290
      f-1     :     0.000979
      f+2     :     0.001003
      f-2     :     0.001445
      f+3     :     0.001121
      f-3     :     0.000830


                      *****************************
                      * MAYER POPULATION ANALYSIS *
                      *****************************

  NA   - Mulliken gross atomic population
  ZA   - Total nuclear charge
  QA   - Mulliken gross atomic charge
  VA   - Mayer's total valence
  BVA  - Mayer's bonded valence
  FA   - Mayer's free valence

  ATOM       NA         ZA         QA         VA         BVA        FA
  0 Cr    25.8522    24.0000    -1.8522     6.7693     6.7693    -0.0000
  1 O      8.3081     8.0000    -0.3081     2.2385     2.2385    -0.0000
  2 C      5.3832     6.0000     0.6168     2.9746     2.9746     0.0000
  3 C      5.3827     6.0000     0.6173     2.9748     2.9748     0.0000
  4 O      8.3080     8.0000    -0.3080     2.2384     2.2384     0.0000
  5 C      5.3831     6.0000     0.6169     2.9747     2.9747    -0.0000
  6 O      8.3081     8.0000    -0.3081     2.2385     2.2385    -0.0000
  7 C      5.3843     6.0000     0.6157     2.9755     2.9755     0.0000
  8 O      8.3080     8.0000    -0.3080     2.2383     2.2383     0.0000
  9 C      5.3837     6.0000     0.6163     2.9748     2.9748     0.0000
 10 O      8.3081     8.0000    -0.3081     2.2382     2.2382     0.0000
 11 C      5.3822     6.0000     0.6178     2.9743     2.9743     0.0000
 12 O      8.3082     8.0000    -0.3082     2.2385     2.2385    -0.0000

  Mayer bond orders larger than 0.100000
B(  0-Cr,  1-O ) :   0.2213 B(  0-Cr,  2-C ) :   0.9070 B(  0-Cr,  3-C ) :   0.9068 
B(  0-Cr,  4-O ) :   0.2208 B(  0-Cr,  5-C ) :   0.9073 B(  0-Cr,  6-O ) :   0.2212 
B(  0-Cr,  7-C ) :   0.9077 B(  0-Cr,  8-O ) :   0.2206 B(  0-Cr,  9-C ) :   0.9075 
B(  0-Cr, 10-O ) :   0.2211 B(  0-Cr, 11-C ) :   0.9068 B(  0-Cr, 12-O ) :   0.2211 
B(  1-O ,  2-C ) :   1.9622 B(  3-C ,  4-O ) :   1.9624 B(  5-C ,  6-O ) :   1.9621 
B(  7-C ,  8-O ) :   1.9624 B(  9-C , 10-O ) :   1.9620 B( 11-C , 12-O ) :   1.9623 


-------
TIMINGS
-------

Total SCF time: 0 days 0 hours 1 min 47 sec 

Total time                  ....     107.803 sec
Sum of individual times     ....     107.266 sec  ( 99.5%)

Fock matrix formation       ....     104.955 sec  ( 97.4%)
  XC integration            ....       4.312 sec  (  4.1% of F)
    Basis function eval.    ....       0.393 sec  (  9.1% of XC)
    Density eval.           ....       1.104 sec  ( 25.6% of XC)
    XC-Functional eval.     ....       0.087 sec  (  2.0% of XC)
    XC-Potential eval.      ....       2.078 sec  ( 48.2% of XC)
Diagonalization             ....       0.869 sec  (  0.8%)
Density matrix formation    ....       0.052 sec  (  0.0%)
Population analysis         ....       0.051 sec  (  0.0%)
Initial guess               ....       0.315 sec  (  0.3%)
Orbital Transformation      ....       0.000 sec  (  0.0%)
Orbital Orthonormalization  ....       0.000 sec  (  0.0%)
DIIS solution               ....       0.548 sec  (  0.5%)
Grid generation             ....       0.475 sec  (  0.4%)


-------------------------------------------------------------------------------
                          DFT DISPERSION CORRECTION                            
                                                                               
                              DFTD3 V3.1  Rev 1                                
                          USING Becke-Johnson damping                          
-------------------------------------------------------------------------------
The TPSSH functional is recognized
Active option DFTDOPT                   ...         4   

molecular C6(AA) [au] = 4863.120262 


            DFT-D V3
 parameters
 s6 scaling factor         :     1.0000 
 a1 scaling factor         :     0.4529 
 s8 scaling factor         :     2.2382 
 a2 scaling factor         :     4.6550 
 ad hoc parameters k1-k3   :    16.0000     1.3333    -4.0000 

 Edisp/kcal,au: -15.291929590660  -0.024369238380 
 E6   /kcal   :  -6.325266022 
 E8   /kcal   :  -8.966663569 
 % E8         :  58.636573729 

-------------------------   ----------------
Dispersion correction           -0.024369238
-------------------------   ----------------


-------------------------   --------------------
FINAL SINGLE POINT ENERGY     -1724.940216570880
-------------------------   --------------------


                            ***************************************
                            *     ORCA property calculations      *
                            ***************************************

                                    ---------------------
                                    Active property flags
                                    ---------------------
   (+) Dipole Moment


------------------------------------------------------------------------------
                       ORCA ELECTRIC PROPERTIES CALCULATION
------------------------------------------------------------------------------

Dipole Moment Calculation                       ... on
Quadrupole Moment Calculation                   ... off
Polarizability Calculation                      ... off
GBWName                                         ... MOR25_pr01.gbw
Electron density file                           ... MOR25_pr01.scfp
The origin for moment calculation is the CENTER OF MASS  = ( 0.000000, -0.000000  0.000000)

-------------
DIPOLE MOMENT
-------------
                                X             Y             Z
Electronic contribution:     -0.00005       0.00001      -0.00005
Nuclear contribution   :      0.00001      -0.00000       0.00001
                        -----------------------------------------
Total Dipole Moment    :     -0.00004       0.00001      -0.00004
                        -----------------------------------------
Magnitude (a.u.)       :      0.00006
Magnitude (Debye)      :      0.00014



--------------------
Rotational spectrum 
--------------------
 
Rotational constants in cm-1:     0.021751     0.021751     0.021751 
Rotational constants in MHz :   652.090818   652.088663   652.088001 

 Dipole components along the rotational axes: 
x,y,z [a.u.] :    -0.000041    -0.000006     0.000038 
x,y,z [Debye]:    -0.000104    -0.000015     0.000096 

 

Timings for individual modules:

Sum of individual times         ...      109.065 sec (=   1.818 min)
GTO integral calculation        ...        0.903 sec (=   0.015 min)   0.8 %
SCF iterations                  ...      108.162 sec (=   1.803 min)  99.2 %
                             ****ORCA TERMINATED NORMALLY****
TOTAL RUN TIME: 0 days 0 hours 1 minutes 49 seconds 632 msec
