
                                 *****************
                                 * O   R   C   A *
                                 *****************

           --- An Ab Initio, DFT and Semiempirical electronic structure package ---

                  #######################################################
                  #                        -***-                        #
                  #          Department of theory and spectroscopy      #
                  #               Directorship: Frank Neese             #
                  #        Max Planck Institute fuer Kohlenforschung    #
                  #                Kaiser Wilhelm Platz 1               #
                  #                 D-45470 Muelheim/Ruhr               #
                  #                      Germany                        #
                  #                                                     #
                  #                  All rights reserved                #
                  #                        -***-                        #
                  #######################################################


                         Program Version 4.2.0 -  RELEASE  -


 With contributions from (in alphabetic order):
   Daniel Aravena         : Magnetic Suceptibility
   Michael Atanasov       : Ab Initio Ligand Field Theory (pilot matlab implementation)
   Alexander A. Auer      : GIAO ZORA, VPT2
   Ute Becker             : Parallelization
   Giovanni Bistoni       : ED, misc. LED, open-shell LED, HFLED
   Martin Brehm           : Molecular dynamics
   Dmytro Bykov           : SCF Hessian
   Vijay G. Chilkuri      : MRCI spin determinant printing, contributions to CSF-ICE
   Dipayan Datta          : RHF DLPNO-CCSD density
   Achintya Kumar Dutta   : EOM-CC, STEOM-CC
   Dmitry Ganyushin       : Spin-Orbit,Spin-Spin,Magnetic field MRCI
   Miquel Garcia          : C-PCM Hessian, Gaussian charge scheme
   Yang Guo               : DLPNO-NEVPT2, CIM, IAO-localization
   Andreas Hansen         : Spin unrestricted coupled pair/coupled cluster methods
   Benjamin Helmich-Paris : CASSCF linear response (MC-RPA)
   Lee Huntington         : MR-EOM, pCC
   Robert Izsak           : Overlap fitted RIJCOSX, COSX-SCS-MP3, EOM
   Christian Kollmar      : KDIIS, OOCD, Brueckner-CCSD(T), CCSD density
   Simone Kossmann        : Meta GGA functionals, TD-DFT gradient, OOMP2, MP2 Hessian
   Martin Krupicka        : AUTO-CI
   Lucas Lang             : DCDCAS
   Dagmar Lenk            : GEPOL surface, SMD
   Dimitrios Liakos       : Extrapolation schemes; Compound Job, initial MDCI parallelization
   Dimitrios Manganas     : Further ROCIS development; embedding schemes
   Dimitrios Pantazis     : SARC Basis sets
   Taras Petrenko         : DFT Hessian,TD-DFT gradient, ASA, ECA, R-Raman, ABS, FL, XAS/XES, NRVS
   Peter Pinski           : DLPNO-MP2, DLPNO-MP2 Gradient
   Christoph Reimann      : Effective Core Potentials
   Marius Retegan         : Local ZFS, SOC
   Christoph Riplinger    : Optimizer, TS searches, QM/MM, DLPNO-CCSD(T), (RO)-DLPNO pert. Triples
   Tobias Risthaus        : Range-separated hybrids, TD-DFT gradient, RPA, STAB
   Michael Roemelt        : Original ROCIS implementation
   Masaaki Saitow         : Open-shell DLPNO-CCSD energy and density
   Barbara Sandhoefer     : DKH picture change effects
   Avijit Sen             : IP-ROCIS
   Kantharuban Sivalingam : CASSCF convergence, NEVPT2, FIC-MRCI
   Bernardo de Souza      : ESD, SOC TD-DFT
   Georgi Stoychev        : AutoAux, RI-MP2 NMR
   Willem Van den Heuvel  : Paramagnetic NMR
   Boris Wezisla          : Elementary symmetry handling
   Frank Wennmohs         : Technical directorship


 We gratefully acknowledge several colleagues who have allowed us to
 interface, adapt or use parts of their codes:
   Stefan Grimme, W. Hujo, H. Kruse,             : VdW corrections, initial TS optimization,
                  C. Bannwarth                     DFT functionals, gCP, sTDA/sTD-DF
   Ed Valeev, F. Pavosevic, A. Kumar             : LibInt (2-el integral package), F12 methods
   Garnet Chan, S. Sharma, J. Yang, R. Olivares  : DMRG
   Ulf Ekstrom                                   : XCFun DFT Library
   Mihaly Kallay                                 : mrcc  (arbitrary order and MRCC methods)
   Andreas Klamt, Michael Diedenhofen            : otool_cosmo (COSMO solvation model)
   Jiri Pittner, Ondrej Demel                    : Mk-CCSD
   Frank Weinhold                                : gennbo (NPA and NBO analysis)
   Christopher J. Cramer and Donald G. Truhlar   : smd solvation model
   Lars Goerigk                                  : TD-DFT with DH, B97 family of functionals
   V. Asgeirsson, H. Jonsson                     : NEB implementation
   FAccTs GmbH                                   : IRC, NEB, NEB-TS, Multilevel, MM, QM/MM, CI optimization
   S Lehtola, MJT Oliveira, MAL Marques          : LibXC Library


 Your calculation uses the libint2 library for the computation of 2-el integrals
 For citations please refer to: http://libint.valeyev.net

 Your ORCA version has been built with support for libXC version: 4.2.3
 For citations please refer to: https://tddft.org/programs/libxc/

 This ORCA versions uses:
   CBLAS   interface :  Fast vector & matrix operations
   LAPACKE interface :  Fast linear algebra routines
   SCALAPACK package :  Parallel linear algebra routines


Your calculation utilizes the atom-pairwise dispersion correction
with the Becke-Johnson damping scheme (D3BJ)
Cite in your paper:
S.Grimme, S.Ehrlich, L.Goerigk, J Comput Chem, (2011), 32, 1456–1465 
S.Grimme, J.Antony, S.Ehrlich and H.Krieg, J.Chem.Phys., 132, (2010), 154104 
   

----- Orbital basis set information -----
Your calculation utilizes the basis: def2-TZVPPD
   F. Weigend and R. Ahlrichs, Phys. Chem. Chem. Phys. 7, 3297 (2005).
   D. Rappoport and F. Furche, J. Chem. Phys. 133 134105 (2010).

----- AuxJK basis set information -----
Your calculation utilizes the auxiliary basis: def2/JK
   H-Ba, Hf-Rn: F. Weigend, J. Comput. Chem. 29, 167 (2008).

================================================================================
                                        WARNINGS
                       Please study these warnings very carefully!
================================================================================


INFO   : the flag for use of LIBINT has been found!

================================================================================
                                       INPUT FILE
================================================================================
NAME = MOR22_pcy3.in
|  1> #
|  2> # MOR22_pcy3 TPSSh-D3BJ/Def2-TZVPPD
|  3> #
|  4> ! tpssh d3bj def2-tzvppd def2/jk grid4 nofinalgrid
|  5> 
|  6> *xyz 0 1
|  7> P       -0.216171   -0.083077   -1.104749 
|  8> C        0.505342    1.551445   -0.512411 
|  9> C        0.372168    1.952615    0.967298 
| 10> C        0.853698    3.397029    1.180070 
| 11> C        2.300662    3.578910    0.704200 
| 12> C        2.457928    3.151362   -0.760734 
| 13> C        1.965268    1.712769   -0.974950 
| 14> C        0.795470   -1.465851   -0.339173 
| 15> C        1.194026   -1.376002    1.141683 
| 16> C        1.830829   -2.691519    1.617818 
| 17> C        3.044522   -3.062049    0.755351 
| 18> C        2.669205   -3.127202   -0.731177 
| 19> C        2.022807   -1.816580   -1.203888 
| 20> C       -1.786787   -0.169467   -0.086099 
| 21> C       -2.713096    0.996882   -0.481425 
| 22> C       -4.042154    0.954203    0.285800 
| 23> C       -4.758728   -0.385405    0.080261 
| 24> C       -3.846658   -1.555269    0.467941 
| 25> C       -2.516136   -1.508613   -0.298163 
| 26> H       -0.086881    2.275758   -1.095374 
| 27> H        0.969845    1.279400    1.591405 
| 28> H       -0.665694    1.858440    1.303963 
| 29> H        0.763179    3.670246    2.238833 
| 30> H        0.199154    4.078898    0.617939 
| 31> H        2.616561    4.621342    0.833145 
| 32> H        2.964320    2.965719    1.331124 
| 33> H        1.874427    3.827995   -1.401227 
| 34> H        3.505668    3.240568   -1.073514 
| 35> H        2.061196    1.427054   -2.029468 
| 36> H        2.603163    1.029346   -0.398698 
| 37> H        0.103060   -2.317100   -0.439871 
| 38> H        1.082328   -3.494681    1.556078 
| 39> H        0.325749   -1.129652    1.763601 
| 40> H        1.922184   -0.564787    1.270256 
| 41> H        2.123181   -2.608981    2.672179 
| 42> H        3.467034   -4.019422    1.084011 
| 43> H        3.828662   -2.303820    0.895790 
| 44> H        3.555664   -3.350052   -1.337889 
| 45> H        1.959466   -3.952268   -0.888607 
| 46> H        1.724465   -1.892063   -2.255831 
| 47> H        2.762591   -1.008464   -1.141586 
| 48> H       -1.543753   -0.076214    0.982532 
| 49> H       -2.216101    1.957671   -0.306445 
| 50> H       -2.910289    0.936504   -1.561343 
| 51> H       -3.843829    1.098520    1.357699 
| 52> H       -4.683867    1.784681   -0.033466 
| 53> H       -5.041866   -0.483893   -0.977569 
| 54> H       -5.687452   -0.415984    0.663015 
| 55> H       -4.350272   -2.511559    0.279900 
| 56> H       -3.640750   -1.510603    1.547174 
| 57> H       -1.884435   -2.344750    0.021762 
| 58> H       -2.704341   -1.645246   -1.372687 
| 59> *
| 60> 
| 61> %maxcore 5000
| 62> 
| 63> %pal
| 64> nprocs = 24
| 65> end
| 66> 
| 67> 
| 68>                          ****END OF INPUT****
================================================================================

                       ****************************
                       * Single Point Calculation *
                       ****************************

---------------------------------
CARTESIAN COORDINATES (ANGSTROEM)
---------------------------------
  P     -0.216171   -0.083077   -1.104749
  C      0.505342    1.551445   -0.512411
  C      0.372168    1.952615    0.967298
  C      0.853698    3.397029    1.180070
  C      2.300662    3.578910    0.704200
  C      2.457928    3.151362   -0.760734
  C      1.965268    1.712769   -0.974950
  C      0.795470   -1.465851   -0.339173
  C      1.194026   -1.376002    1.141683
  C      1.830829   -2.691519    1.617818
  C      3.044522   -3.062049    0.755351
  C      2.669205   -3.127202   -0.731177
  C      2.022807   -1.816580   -1.203888
  C     -1.786787   -0.169467   -0.086099
  C     -2.713096    0.996882   -0.481425
  C     -4.042154    0.954203    0.285800
  C     -4.758728   -0.385405    0.080261
  C     -3.846658   -1.555269    0.467941
  C     -2.516136   -1.508613   -0.298163
  H     -0.086881    2.275758   -1.095374
  H      0.969845    1.279400    1.591405
  H     -0.665694    1.858440    1.303963
  H      0.763179    3.670246    2.238833
  H      0.199154    4.078898    0.617939
  H      2.616561    4.621342    0.833145
  H      2.964320    2.965719    1.331124
  H      1.874427    3.827995   -1.401227
  H      3.505668    3.240568   -1.073514
  H      2.061196    1.427054   -2.029468
  H      2.603163    1.029346   -0.398698
  H      0.103060   -2.317100   -0.439871
  H      1.082328   -3.494681    1.556078
  H      0.325749   -1.129652    1.763601
  H      1.922184   -0.564787    1.270256
  H      2.123181   -2.608981    2.672179
  H      3.467034   -4.019422    1.084011
  H      3.828662   -2.303820    0.895790
  H      3.555664   -3.350052   -1.337889
  H      1.959466   -3.952268   -0.888607
  H      1.724465   -1.892063   -2.255831
  H      2.762591   -1.008464   -1.141586
  H     -1.543753   -0.076214    0.982532
  H     -2.216101    1.957671   -0.306445
  H     -2.910289    0.936504   -1.561343
  H     -3.843829    1.098520    1.357699
  H     -4.683867    1.784681   -0.033466
  H     -5.041866   -0.483893   -0.977569
  H     -5.687452   -0.415984    0.663015
  H     -4.350272   -2.511559    0.279900
  H     -3.640750   -1.510603    1.547174
  H     -1.884435   -2.344750    0.021762
  H     -2.704341   -1.645246   -1.372687

----------------------------
CARTESIAN COORDINATES (A.U.)
----------------------------
  NO LB      ZA    FRAG     MASS         X           Y           Z
   0 P    15.0000    0    30.974   -0.408504   -0.156993   -2.087673
   1 C     6.0000    0    12.011    0.954958    2.931806   -0.968316
   2 C     6.0000    0    12.011    0.703296    3.689908    1.827928
   3 C     6.0000    0    12.011    1.613255    6.419454    2.230009
   4 C     6.0000    0    12.011    4.347621    6.763160    1.330745
   5 C     6.0000    0    12.011    4.644811    5.955211   -1.437579
   6 C     6.0000    0    12.011    3.713818    3.236664   -1.842388
   7 C     6.0000    0    12.011    1.503220   -2.770057   -0.640944
   8 C     6.0000    0    12.011    2.256382   -2.600267    2.157468
   9 C     6.0000    0    12.011    3.459765   -5.086234    3.057233
  10 C     6.0000    0    12.011    5.753313   -5.786434    1.427407
  11 C     6.0000    0    12.011    5.044066   -5.909555   -1.381724
  12 C     6.0000    0    12.011    3.822551   -3.432839   -2.275019
  13 C     6.0000    0    12.011   -3.376538   -0.320246   -0.162704
  14 C     6.0000    0    12.011   -5.127008    1.883834   -0.909761
  15 C     6.0000    0    12.011   -7.638564    1.803182    0.540084
  16 C     6.0000    0    12.011   -8.992693   -0.728310    0.151671
  17 C     6.0000    0    12.011   -7.269130   -2.939032    0.884280
  18 C     6.0000    0    12.011   -4.754808   -2.850865   -0.563446
  19 H     1.0000    0     1.008   -0.164181    4.300559   -2.069957
  20 H     1.0000    0     1.008    1.832741    2.417716    3.007320
  21 H     1.0000    0     1.008   -1.257979    3.511943    2.464133
  22 H     1.0000    0     1.008    1.442199    6.935760    4.230781
  23 H     1.0000    0     1.008    0.376347    7.708000    1.167735
  24 H     1.0000    0     1.008    4.944584    8.733071    1.574416
  25 H     1.0000    0     1.008    5.601753    5.604397    2.515460
  26 H     1.0000    0     1.008    3.542154    7.233862   -2.647935
  27 H     1.0000    0     1.008    6.624752    6.123786   -2.028647
  28 H     1.0000    0     1.008    3.895096    2.696741   -3.835139
  29 H     1.0000    0     1.008    4.919265    1.945182   -0.753430
  30 H     1.0000    0     1.008    0.194755   -4.378684   -0.831236
  31 H     1.0000    0     1.008    2.045304   -6.603990    2.940561
  32 H     1.0000    0     1.008    0.615576   -2.134733    3.332723
  33 H     1.0000    0     1.008    3.632401   -1.067293    2.400436
  34 H     1.0000    0     1.008    4.012231   -4.930260    5.049686
  35 H     1.0000    0     1.008    6.551745   -7.595607    2.048484
  36 H     1.0000    0     1.008    7.235123   -4.353589    1.692798
  37 H     1.0000    0     1.008    6.719231   -6.330681   -2.528244
  38 H     1.0000    0     1.008    3.702854   -7.468704   -1.679224
  39 H     1.0000    0     1.008    3.258767   -3.575481   -4.262903
  40 H     1.0000    0     1.008    5.220540   -1.905721   -2.157285
  41 H     1.0000    0     1.008   -2.917270   -0.144024    1.856716
  42 H     1.0000    0     1.008   -4.187824    3.699462   -0.579097
  43 H     1.0000    0     1.008   -5.499649    1.769736   -2.950511
  44 H     1.0000    0     1.008   -7.263784    2.075902    2.565679
  45 H     1.0000    0     1.008   -8.851226    3.372558   -0.063242
  46 H     1.0000    0     1.008   -9.527746   -0.914425   -1.847338
  47 H     1.0000    0     1.008  -10.747727   -0.786096    1.252917
  48 H     1.0000    0     1.008   -8.220823   -4.746159    0.528934
  49 H     1.0000    0     1.008   -6.880020   -2.854626    2.923735
  50 H     1.0000    0     1.008   -3.561066   -4.430935    0.041124
  51 H     1.0000    0     1.008   -5.110464   -3.109064   -2.594002

--------------------------------
INTERNAL COORDINATES (ANGSTROEM)
--------------------------------
 P      0   0   0     0.000000000000     0.00000000     0.00000000
 C      1   0   0     1.882314395604     0.00000000     0.00000000
 C      2   1   0     1.538899414470   119.72119917     0.00000000
 C      3   2   1     1.537359706861   110.54224345   187.90271050
 C      4   3   2     1.534026653079   111.34022547   303.12944262
 C      5   4   3     1.534132168822   111.09209763    55.45010547
 C      6   5   4     1.535627620846   111.18606755   305.11970931
 C      1   2   3     1.876589475547   107.74831227   291.61349850
 C      8   1   2     1.536181701711   119.34284242    43.42432402
 C      9   8   1     1.537142666223   110.85623767   171.60047680
 C     10   9   8     1.534337806755   111.11614679    56.66652151
 C     11  10   9     1.534559630214   111.18031980   304.70227017
 C     12  11  10     1.535908881024   111.39784021    55.01378001
 C      1   2   3     1.874018589571   100.96631091    37.38101117
 C     14   1   2     1.541006489136   109.23551510    63.83272633
 C     15  14   1     1.535203851295   111.78614874   178.03072118
 C     16  15  14     1.533060394003   111.21936745   303.70433197
 C     17  16  15     1.533215329233   110.77984765    55.32689297
 C     18  17  16     1.536027640909   111.46894013   304.62636633
 H      2   1   3     1.102362582396   101.43268305   242.80785162
 H      3   2   1     1.095420366801   109.90130216    67.38535767
 H      3   2   1     1.095157424252   110.80463083   309.58247271
 H      4   3   2     1.097187453728   109.97889262   180.50244040
 H      4   3   2     1.099711072172   108.98890834    63.68451768
 H      5   4   3     1.096851615238   110.35731052   178.16729922
 H      5   4   3     1.099763085951   109.04210891   295.18502512
 H      6   5   4     1.099334760998   109.29284751    65.45279277
 H      6   5   4     1.097063419514   110.33373898   182.72719868
 H      7   6   5     1.096742200671   110.49445782   178.69261539
 H      7   6   5     1.098200070779   108.87116330   295.86991240
 H      8   1   2     1.101905874068   101.14012505   160.62736672
 H     10   9   8     1.099606644598   109.00848575   296.15165973
 H      9   8   1     1.096072657242   110.76837092    48.98001725
 H      9   8   1     1.097640590320   109.16293816   291.36892457
 H     10   9   8     1.097250806183   110.09933291   179.21701566
 H     11  10   9     1.096857714963   110.30731179   181.97348710
 H     11  10   9     1.099777190508   109.00938215    65.02109313
 H     12  11  10     1.097073895471   110.28677897   177.54931573
 H     12  11  10     1.099657927438   109.17114460   294.66381131
 H     13  12  11     1.096033625169   110.55964705   182.23508160
 H     13  12  11     1.097366563786   109.09920168    65.09380628
 H     14   1   2     1.099879021223   109.81735138   304.90960842
 H     15  14   1     1.095781699494   110.48941078   300.51317752
 H     15  14   1     1.099433248932   108.55604069    57.12155100
 H     16  15  14     1.099603414107   109.10938938    64.28832693
 H     16  15  14     1.097005041743   109.87246080   181.12226014
 H     17  16  15     1.099486844891   109.12511408   295.12590869
 H     17  16  15     1.096843456439   110.42004200   177.91078953
 H     18  17  16     1.097031012678   110.40746576   182.31144688
 H     18  17  16     1.099607668357   109.18195438    65.14405948
 H     19  18  17     1.095683915094   109.30467008   178.71615068
 H     19  18  17     1.099405077890   109.59743795   295.46140480

---------------------------
INTERNAL COORDINATES (A.U.)
---------------------------
 P      0   0   0     0.000000000000     0.00000000     0.00000000
 C      1   0   0     3.557058705629     0.00000000     0.00000000
 C      2   1   0     2.908098441001   119.72119917     0.00000000
 C      3   2   1     2.905188815293   110.54224345   187.90271050
 C      4   3   2     2.898890256455   111.34022547   303.12944262
 C      5   4   3     2.899089652313   111.09209763    55.45010547
 C      6   5   4     2.901915647084   111.18606755   305.11970931
 C      1   2   3     3.546240174582   107.74831227   291.61349850
 C      8   1   2     2.902962708176   119.34284242    43.42432402
 C      9   8   1     2.904778667927   110.85623767   171.60047680
 C     10   9   8     2.899478251688   111.11614679    56.66652151
 C     11  10   9     2.899897437276   111.18031980   304.70227017
 C     12  11  10     2.902447151793   111.39784021    55.01378001
 C      1   2   3     3.541381904166   100.96631091    37.38101117
 C     14   1   2     2.912080235062   109.23551510    63.83272633
 C     15  14   1     2.901114838688   111.78614874   178.03072118
 C     16  15  14     2.897064291427   111.21936745   303.70433197
 C     17  16  15     2.897357076581   110.77984765    55.32689297
 C     18  17  16     2.902671575451   111.46894013   304.62636633
 H      2   1   3     2.083163381011   101.43268305   242.80785162
 H      3   2   1     2.070044494774   109.90130216    67.38535767
 H      3   2   1     2.069547605367   110.80463083   309.58247271
 H      4   3   2     2.073383805121   109.97889262   180.50244040
 H      4   3   2     2.078152752846   108.98890834    63.68451768
 H      5   4   3     2.072749162349   110.35731052   178.16729922
 H      5   4   3     2.078251044644   109.04210891   295.18502512
 H      6   5   4     2.077441627786   109.29284751    65.45279277
 H      6   5   4     2.073149414425   110.33373898   182.72719868
 H      7   6   5     2.072542398783   110.49445782   178.69261539
 H      7   6   5     2.075297374024   108.87116330   295.86991240
 H      8   1   2     2.082300327347   101.14012505   160.62736672
 H     10   9   8     2.077955413331   109.00848575   296.15165973
 H      9   8   1     2.071277145066   110.76837092    48.98001725
 H      9   8   1     2.074240109180   109.16293816   291.36892457
 H     10   9   8     2.073503523910   110.09933291   179.21701566
 H     11  10   9     2.072760689158   110.30731179   181.97348710
 H     11  10   9     2.078277698394   109.00938215    65.02109313
 H     12  11  10     2.073169211115   110.28677897   177.54931573
 H     12  11  10     2.078052323853   109.17114460   294.66381131
 H     13  12  11     2.071203385139   110.55964705   182.23508160
 H     13  12  11     2.073722274078   109.09920168    65.09380628
 H     14   1   2     2.078470130556   109.81735138   304.90960842
 H     15  14   1     2.070727314606   110.48941078   300.51317752
 H     15  14   1     2.077627743009   108.55604069    57.12155100
 H     16  15  14     2.077949308586   109.10938938    64.28832693
 H     16  15  14     2.073039096425   109.87246080   181.12226014
 H     17  16  15     2.077729024693   109.12511408   295.12590869
 H     17  16  15     2.072733744453   110.42004200   177.91078953
 H     18  17  16     2.073088174379   110.40746576   182.31144688
 H     18  17  16     2.077957347954   109.18195438    65.14405948
 H     19  18  17     2.070542528870   109.30467008   178.71615068
 H     19  18  17     2.077574507454   109.59743795   295.46140480

---------------------
BASIS SET INFORMATION
---------------------
There are 3 groups of distinct atoms

 Group   1 Type P   : 15s9p4d1f contracted to 6s5p4d1f pattern {732111/51111/1111/1}
 Group   2 Type C   : 12s6p3d1f contracted to 6s3p3d1f pattern {621111/411/111/1}
 Group   3 Type H   : 5s3p1d contracted to 3s3p1d pattern {311/111/1}

Atom   0P    basis set group =>   1
Atom   1C    basis set group =>   2
Atom   2C    basis set group =>   2
Atom   3C    basis set group =>   2
Atom   4C    basis set group =>   2
Atom   5C    basis set group =>   2
Atom   6C    basis set group =>   2
Atom   7C    basis set group =>   2
Atom   8C    basis set group =>   2
Atom   9C    basis set group =>   2
Atom  10C    basis set group =>   2
Atom  11C    basis set group =>   2
Atom  12C    basis set group =>   2
Atom  13C    basis set group =>   2
Atom  14C    basis set group =>   2
Atom  15C    basis set group =>   2
Atom  16C    basis set group =>   2
Atom  17C    basis set group =>   2
Atom  18C    basis set group =>   2
Atom  19H    basis set group =>   3
Atom  20H    basis set group =>   3
Atom  21H    basis set group =>   3
Atom  22H    basis set group =>   3
Atom  23H    basis set group =>   3
Atom  24H    basis set group =>   3
Atom  25H    basis set group =>   3
Atom  26H    basis set group =>   3
Atom  27H    basis set group =>   3
Atom  28H    basis set group =>   3
Atom  29H    basis set group =>   3
Atom  30H    basis set group =>   3
Atom  31H    basis set group =>   3
Atom  32H    basis set group =>   3
Atom  33H    basis set group =>   3
Atom  34H    basis set group =>   3
Atom  35H    basis set group =>   3
Atom  36H    basis set group =>   3
Atom  37H    basis set group =>   3
Atom  38H    basis set group =>   3
Atom  39H    basis set group =>   3
Atom  40H    basis set group =>   3
Atom  41H    basis set group =>   3
Atom  42H    basis set group =>   3
Atom  43H    basis set group =>   3
Atom  44H    basis set group =>   3
Atom  45H    basis set group =>   3
Atom  46H    basis set group =>   3
Atom  47H    basis set group =>   3
Atom  48H    basis set group =>   3
Atom  49H    basis set group =>   3
Atom  50H    basis set group =>   3
Atom  51H    basis set group =>   3
----------------------------------
AUXILIARY/JK BASIS SET INFORMATION
----------------------------------
There are 3 groups of distinct atoms

 Group   1 Type P   : 16s12p10d4f1g contracted to 13s11p9d4f1g pattern {4111111111111/21111111111/211111111/1111/1}
 Group   2 Type C   : 14s10p6d2f1g contracted to 10s8p5d1f1g pattern {5111111111/31111111/21111/2/1}
 Group   3 Type H   : 4s2p2d contracted to 2s2p2d pattern {31/11/11}

Atom   0P    basis set group =>   1
Atom   1C    basis set group =>   2
Atom   2C    basis set group =>   2
Atom   3C    basis set group =>   2
Atom   4C    basis set group =>   2
Atom   5C    basis set group =>   2
Atom   6C    basis set group =>   2
Atom   7C    basis set group =>   2
Atom   8C    basis set group =>   2
Atom   9C    basis set group =>   2
Atom  10C    basis set group =>   2
Atom  11C    basis set group =>   2
Atom  12C    basis set group =>   2
Atom  13C    basis set group =>   2
Atom  14C    basis set group =>   2
Atom  15C    basis set group =>   2
Atom  16C    basis set group =>   2
Atom  17C    basis set group =>   2
Atom  18C    basis set group =>   2
Atom  19H    basis set group =>   3
Atom  20H    basis set group =>   3
Atom  21H    basis set group =>   3
Atom  22H    basis set group =>   3
Atom  23H    basis set group =>   3
Atom  24H    basis set group =>   3
Atom  25H    basis set group =>   3
Atom  26H    basis set group =>   3
Atom  27H    basis set group =>   3
Atom  28H    basis set group =>   3
Atom  29H    basis set group =>   3
Atom  30H    basis set group =>   3
Atom  31H    basis set group =>   3
Atom  32H    basis set group =>   3
Atom  33H    basis set group =>   3
Atom  34H    basis set group =>   3
Atom  35H    basis set group =>   3
Atom  36H    basis set group =>   3
Atom  37H    basis set group =>   3
Atom  38H    basis set group =>   3
Atom  39H    basis set group =>   3
Atom  40H    basis set group =>   3
Atom  41H    basis set group =>   3
Atom  42H    basis set group =>   3
Atom  43H    basis set group =>   3
Atom  44H    basis set group =>   3
Atom  45H    basis set group =>   3
Atom  46H    basis set group =>   3
Atom  47H    basis set group =>   3
Atom  48H    basis set group =>   3
Atom  49H    basis set group =>   3
Atom  50H    basis set group =>   3
Atom  51H    basis set group =>   3


           ************************************************************
           *        Program running with 24 parallel MPI-processes    *
           *              working on a common directory               *
           ************************************************************
------------------------------------------------------------------------------
                           ORCA GTO INTEGRAL CALCULATION
------------------------------------------------------------------------------

                         BASIS SET STATISTICS AND STARTUP INFO

 # of primitive gaussian shells          ...  722
 # of primitive gaussian functions       ... 1632
 # of contracted shells                  ...  481
 # of contracted basis functions         ... 1275
 Highest angular momentum                ...    3
 Maximum contraction depth               ...    7
 Integral package used                   ... LIBINT
 Integral threshhold            Thresh   ...  1.000e-10
 Primitive cut-off              TCut     ...  1.000e-11


------------------------------ INTEGRAL EVALUATION ----------------------------


 * One electron integrals 
 Pre-screening matrix                    ... done
 Shell pair data                         ... done (   0.027 sec)



           ************************************************************
           *        Program running with 24 parallel MPI-processes    *
           *              working on a common directory               *
           ************************************************************
-------------------------------------------------------------------------------
                                 ORCA SCF
-------------------------------------------------------------------------------

------------
SCF SETTINGS
------------
Hamiltonian:
 Density Functional     Method          .... DFT(GTOs)
 Exchange Functional    Exchange        .... TPSS
 Correlation Functional Correlation     .... TPSS
 LDA part of GGA corr.  LDAOpt          .... PW91-LDA
 Gradients option       PostSCFGGA      .... off
 Hybrid DFT is turned on
   Fraction HF Exchange ScalHFX         ....  0.100000
   Scaling of DF-GGA-X  ScalDFX         ....  0.900000
   Scaling of DF-GGA-C  ScalDFC         ....  1.000000
   Scaling of DF-LDA-C  ScalLDAC        ....  1.000000
   Perturbative correction              ....  0.000000
   Density functional embedding theory  .... OFF
   NL short-range parameter             ....  5.200000


General Settings:
 Integral files         IntName         .... MOR22_pcy3
 Hartree-Fock type      HFTyp           .... RHF
 Total Charge           Charge          ....    0
 Multiplicity           Mult            ....    1
 Number of Electrons    NEL             ....  156
 Basis Dimension        Dim             .... 1275
 Nuclear Repulsion      ENuc            ....   1736.7128645412 Eh

Convergence Acceleration:
 DIIS                   CNVDIIS         .... on
   Start iteration      DIISMaxIt       ....    12
   Startup error        DIISStart       ....  0.200000
   # of expansion vecs  DIISMaxEq       ....     5
   Bias factor          DIISBfac        ....   1.050
   Max. coefficient     DIISMaxC        ....  10.000
 Newton-Raphson         CNVNR           .... off
 SOSCF                  CNVSOSCF        .... on
   Start iteration      SOSCFMaxIt      ....   150
   Startup grad/error   SOSCFStart      ....  0.003300
 Level Shifting         CNVShift        .... on
   Level shift para.    LevelShift      ....    0.2500
   Turn off err/grad.   ShiftErr        ....    0.0010
 Zerner damping         CNVZerner       .... off
 Static damping         CNVDamp         .... on
   Fraction old density DampFac         ....    0.7000
   Max. Damping (<1)    DampMax         ....    0.9800
   Min. Damping (>=0)   DampMin         ....    0.0000
   Turn off err/grad.   DampErr         ....    0.1000
 Fernandez-Rico         CNVRico         .... off

SCF Procedure:
 Maximum # iterations   MaxIter         ....   125
 SCF integral mode      SCFMode         .... Direct
   Integral package                     .... LIBINT
 Reset frequency        DirectResetFreq ....    20
 Integral Threshold     Thresh          ....  1.000e-10 Eh
 Primitive CutOff       TCut            ....  1.000e-11 Eh

Convergence Tolerance:
 Convergence Check Mode ConvCheckMode   .... Total+1el-Energy
 Convergence forced     ConvForced      .... 0
 Energy Change          TolE            ....  1.000e-06 Eh
 1-El. energy change                    ....  1.000e-03 Eh
 Orbital Gradient       TolG            ....  5.000e-05
 Orbital Rotation angle TolX            ....  5.000e-05
 DIIS Error             TolErr          ....  1.000e-06


Diagonalization of the overlap matrix:
Smallest eigenvalue                        ... 6.764e-07
Time for diagonalization                   ...    0.242 sec
Threshold for overlap eigenvalues          ... 1.000e-08
Number of eigenvalues below threshold      ... 0
Time for construction of square roots      ...    0.210 sec
Total time needed                          ...    0.459 sec

-------------------
DFT GRID GENERATION
-------------------

General Integration Accuracy     IntAcc      ...  4.670
Radial Grid Type                 RadialGrid  ... Gauss-Chebyshev
Angular Grid (max. acc.)         AngularGrid ... Lebedev-302
Angular grid pruning method      GridPruning ... 3 (G Style)
Weight generation scheme         WeightScheme... Becke
Basis function cutoff            BFCut       ...    1.0000e-10
Integration weight cutoff        WCut        ...    1.0000e-14
Grids for H and He will be reduced by one unit

# of grid points (after initial pruning)     ... 230664 (   0.0 sec)
# of grid points (after weights+screening)   ... 195513 (   0.2 sec)
nearest neighbour list constructed           ...    0.0 sec
Grid point re-assignment to atoms done       ...    0.0 sec
Grid point division into batches done        ...    0.5 sec
Reduced shell lists constructed in    0.8 sec

Total number of grid points                  ...   195513
Total number of batches                      ...     3078
Average number of points per batch           ...       63
Average number of grid points per atom       ...     3760
Average number of shells per batch           ...   294.28 (61.18%)
Average number of basis functions per batch  ...   768.50 (60.27%)
Average number of large shells per batch     ...   219.50 (74.59%)
Average number of large basis fcns per batch ...   565.16 (73.54%)
Maximum spatial batch extension              ...   7.97,  7.37, 15.23 au
Average spatial batch extension              ...   0.05,  0.05,  0.06 au

Time for grid setup =    1.145 sec

------------------------------
INITIAL GUESS: MODEL POTENTIAL
------------------------------
Loading Hartree-Fock densities                     ... done
Calculating cut-offs                               ... done
Setting up the integral package                    ... done
Initializing the effective Hamiltonian             ... done
Starting the Coulomb interaction                   ... done (   0.3 sec)
Reading the grid                                   ... done
Mapping shells                                     ... done
Starting the XC term evaluation                    ... done (   1.0 sec)
  promolecular density results
     # of electrons  =    155.982338653
     EX              =   -124.427100860
     EC              =     -5.277156143
     EX+EC           =   -129.704257002
Transforming the Hamiltonian                       ... done (   0.1 sec)
Diagonalizing the Hamiltonian                      ... done (   0.2 sec)
Back transforming the eigenvectors                 ... done (   0.1 sec)
Now organizing SCF variables                       ... done
                      ------------------
                      INITIAL GUESS DONE (   3.0 sec)
                      ------------------
--------------
SCF ITERATIONS
--------------
ITER       Energy         Delta-E        Max-DP      RMS-DP      [F,P]     Damp
               ***  Starting incremental Fock matrix formation  ***
  0  -1046.9174457070   0.000000000000 0.61843864  0.00203166  0.1609802 0.7000
  1  -1047.2029825510  -0.285536843997 0.47951039  0.00169752  0.0812693 0.7000
                               ***Turning on DIIS***
  2  -1047.3094453354  -0.106462784443 1.08703533  0.00406615  0.0294832 0.0000
  3  -1047.4664338369  -0.156988501425 0.22996563  0.00078747  0.0443603 0.0000
  4  -1047.5128858805  -0.046452043640 0.06565084  0.00027070  0.0078770 0.0000
                      *** Initiating the SOSCF procedure ***
                           *** Shutting down DIIS ***
                      *** Re-Reading the Fockian *** 
                      *** Removing any level shift *** 
ITER      Energy       Delta-E        Grad      Rot      Max-DP    RMS-DP
  5  -1047.51484749  -0.0019616050  0.000780  0.000780  0.030099  0.000119
               *** Restarting incremental Fock matrix formation ***
  6  -1047.51494136  -0.0000938698  0.000349  0.000639  0.032121  0.000171
  7  -1047.51494464  -0.0000032878  0.000248  0.000349  0.018191  0.000060
  8  -1047.51495454  -0.0000098929  0.000070  0.000193  0.013582  0.000082
  9  -1047.51495431   0.0000002249  0.000075  0.000092  0.011587  0.000049
                 **** Energy Check signals convergence ****
              ***Rediagonalizing the Fockian in SOSCF/NRSCF***

               *****************************************************
               *                     SUCCESS                       *
               *           SCF CONVERGED AFTER  10 CYCLES          *
               *****************************************************


----------------
TOTAL SCF ENERGY
----------------

Total Energy       :        -1047.51495502 Eh          -28504.33106 eV

Components:
Nuclear Repulsion  :         1736.71286454 Eh           47258.35961 eV
Electronic Energy  :        -2784.22781956 Eh          -75762.69067 eV
One Electron Energy:        -4877.34266512 Eh         -132719.24123 eV
Two Electron Energy:         2093.11484557 Eh           56956.55056 eV

Virial components:
Potential Energy   :        -2090.33550826 Eh          -56880.92095 eV
Kinetic Energy     :         1042.82055324 Eh           28376.58989 eV
Virial Ratio       :            2.00450164


DFT components:
N(Alpha)           :       77.999492852477 electrons
N(Beta)            :       77.999492852477 electrons
N(Total)           :      155.998985704954 electrons
E(X)               :     -115.738542640871 Eh       
E(C)               :       -5.235891362377 Eh       
E(XC)              :     -120.974434003248 Eh       
DFET-embed. en.    :        0.000000000000 Eh       

---------------
SCF CONVERGENCE
---------------

  Last Energy change         ...   -7.0529e-07  Tolerance :   1.0000e-06
  Last MAX-Density change    ...    2.2313e-02  Tolerance :   1.0000e-05
  Last RMS-Density change    ...    9.3723e-05  Tolerance :   1.0000e-06
  Last Orbital Gradient      ...    1.2045e-05  Tolerance :   5.0000e-05
  Last Orbital Rotation      ...    2.7115e-05  Tolerance :   5.0000e-05

             **** THE GBW FILE WAS UPDATED (MOR22_pcy3.gbw) ****
             **** DENSITY FILE WAS UPDATED (MOR22_pcy3.scfp) ****
             **** ENERGY FILE WAS UPDATED (MOR22_pcy3.en.tmp) ****
             **** THE GBW FILE WAS UPDATED (MOR22_pcy3.gbw) ****
             **** DENSITY FILE WAS UPDATED (MOR22_pcy3.scfp) ****
----------------
ORBITAL ENERGIES
----------------

  NO   OCC          E(Eh)            E(eV) 
   0   2.0000     -76.893628     -2092.3820 
   1   2.0000     -10.112560      -275.1768 
   2   2.0000     -10.111412      -275.1455 
   3   2.0000     -10.111260      -275.1414 
   4   2.0000     -10.106771      -275.0192 
   5   2.0000     -10.106624      -275.0152 
   6   2.0000     -10.106035      -274.9992 
   7   2.0000     -10.105889      -274.9952 
   8   2.0000     -10.105094      -274.9736 
   9   2.0000     -10.105025      -274.9717 
  10   2.0000     -10.104813      -274.9659 
  11   2.0000     -10.104601      -274.9602 
  12   2.0000     -10.104521      -274.9580 
  13   2.0000     -10.104491      -274.9572 
  14   2.0000     -10.104317      -274.9525 
  15   2.0000     -10.103973      -274.9431 
  16   2.0000     -10.103340      -274.9259 
  17   2.0000     -10.103203      -274.9221 
  18   2.0000     -10.102899      -274.9138 
  19   2.0000      -6.449587      -175.5022 
  20   2.0000      -4.599174      -125.1499 
  21   2.0000      -4.599021      -125.1457 
  22   2.0000      -4.594176      -125.0139 
  23   2.0000      -0.814806       -22.1720 
  24   2.0000      -0.805543       -21.9199 
  25   2.0000      -0.805207       -21.9108 
  26   2.0000      -0.738126       -20.0854 
  27   2.0000      -0.721028       -19.6202 
  28   2.0000      -0.719508       -19.5788 
  29   2.0000      -0.717181       -19.5155 
  30   2.0000      -0.712693       -19.3934 
  31   2.0000      -0.711831       -19.3699 
  32   2.0000      -0.618144       -16.8206 
  33   2.0000      -0.593985       -16.1632 
  34   2.0000      -0.591279       -16.0895 
  35   2.0000      -0.584407       -15.9025 
  36   2.0000      -0.578098       -15.7308 
  37   2.0000      -0.577500       -15.7146 
  38   2.0000      -0.544219       -14.8090 
  39   2.0000      -0.534834       -14.5536 
  40   2.0000      -0.530787       -14.4434 
  41   2.0000      -0.505087       -13.7441 
  42   2.0000      -0.459325       -12.4989 
  43   2.0000      -0.455593       -12.3973 
  44   2.0000      -0.448846       -12.2137 
  45   2.0000      -0.427924       -11.6444 
  46   2.0000      -0.422368       -11.4932 
  47   2.0000      -0.421801       -11.4778 
  48   2.0000      -0.421300       -11.4642 
  49   2.0000      -0.419017       -11.4020 
  50   2.0000      -0.416282       -11.3276 
  51   2.0000      -0.412848       -11.2342 
  52   2.0000      -0.399276       -10.8649 
  53   2.0000      -0.392392       -10.6775 
  54   2.0000      -0.367233        -9.9929 
  55   2.0000      -0.363135        -9.8814 
  56   2.0000      -0.361023        -9.8239 
  57   2.0000      -0.359533        -9.7834 
  58   2.0000      -0.358832        -9.7643 
  59   2.0000      -0.353631        -9.6228 
  60   2.0000      -0.342451        -9.3186 
  61   2.0000      -0.337059        -9.1718 
  62   2.0000      -0.333844        -9.0844 
  63   2.0000      -0.327982        -8.9249 
  64   2.0000      -0.327024        -8.8988 
  65   2.0000      -0.325018        -8.8442 
  66   2.0000      -0.319521        -8.6946 
  67   2.0000      -0.318881        -8.6772 
  68   2.0000      -0.310784        -8.4569 
  69   2.0000      -0.305483        -8.3126 
  70   2.0000      -0.297138        -8.0855 
  71   2.0000      -0.293862        -7.9964 
  72   2.0000      -0.286290        -7.7904 
  73   2.0000      -0.284627        -7.7451 
  74   2.0000      -0.281950        -7.6723 
  75   2.0000      -0.252917        -6.8822 
  76   2.0000      -0.252500        -6.8709 
  77   2.0000      -0.198469        -5.4006 
  78   0.0000      -0.002003        -0.0545 
  79   0.0000       0.004223         0.1149 
  80   0.0000       0.007275         0.1980 
  81   0.0000       0.012778         0.3477 
  82   0.0000       0.019694         0.5359 
  83   0.0000       0.023013         0.6262 
  84   0.0000       0.027116         0.7379 
  85   0.0000       0.029236         0.7955 
  86   0.0000       0.034352         0.9348 
  87   0.0000       0.035994         0.9794 
  88   0.0000       0.041872         1.1394 
  89   0.0000       0.045940         1.2501 
  90   0.0000       0.047823         1.3013 
  91   0.0000       0.055321         1.5054 
  92   0.0000       0.058446         1.5904 
  93   0.0000       0.062629         1.7042 
  94   0.0000       0.065439         1.7807 
  95   0.0000       0.067228         1.8294 
  96   0.0000       0.070172         1.9095 
  97   0.0000       0.075887         2.0650 
  98   0.0000       0.077201         2.1007 
  99   0.0000       0.083206         2.2641 
 100   0.0000       0.084375         2.2960 
 101   0.0000       0.086481         2.3533 
 102   0.0000       0.091611         2.4929 
 103   0.0000       0.095084         2.5874 
 104   0.0000       0.098690         2.6855 
 105   0.0000       0.101297         2.7564 
 106   0.0000       0.106532         2.8989 
 107   0.0000       0.108607         2.9553 
 108   0.0000       0.115136         3.1330 
 109   0.0000       0.118219         3.2169 
 110   0.0000       0.121156         3.2968 
 111   0.0000       0.121932         3.3179 
 112   0.0000       0.126556         3.4438 
 113   0.0000       0.131617         3.5815 
 114   0.0000       0.134283         3.6540 
 115   0.0000       0.136463         3.7133 
 116   0.0000       0.139903         3.8070 
 117   0.0000       0.143143         3.8951 
 118   0.0000       0.146199         3.9783 
 119   0.0000       0.149282         4.0622 
 120   0.0000       0.152610         4.1527 
 121   0.0000       0.152943         4.1618 
 122   0.0000       0.159307         4.3350 
 123   0.0000       0.160725         4.3735 
 124   0.0000       0.162525         4.4225 
 125   0.0000       0.166420         4.5285 
 126   0.0000       0.167153         4.5485 
 127   0.0000       0.173030         4.7084 
 128   0.0000       0.174862         4.7582 
 129   0.0000       0.176707         4.8084 
 130   0.0000       0.178424         4.8552 
 131   0.0000       0.181765         4.9461 
 132   0.0000       0.184192         5.0121 
 133   0.0000       0.187837         5.1113 
 134   0.0000       0.189549         5.1579 
 135   0.0000       0.192285         5.2323 
 136   0.0000       0.193978         5.2784 
 137   0.0000       0.196611         5.3501 
 138   0.0000       0.199082         5.4173 
 139   0.0000       0.200812         5.4644 
 140   0.0000       0.203714         5.5434 
 141   0.0000       0.206556         5.6207 
 142   0.0000       0.206853         5.6288 
 143   0.0000       0.209817         5.7094 
 144   0.0000       0.211454         5.7539 
 145   0.0000       0.212438         5.7807 
 146   0.0000       0.214710         5.8426 
 147   0.0000       0.218276         5.9396 
 148   0.0000       0.218788         5.9535 
 149   0.0000       0.220378         5.9968 
 150   0.0000       0.224084         6.0976 
 151   0.0000       0.226126         6.1532 
 152   0.0000       0.227548         6.1919 
 153   0.0000       0.229947         6.2572 
 154   0.0000       0.231322         6.2946 
 155   0.0000       0.234014         6.3678 
 156   0.0000       0.237935         6.4745 
 157   0.0000       0.240726         6.5505 
 158   0.0000       0.242462         6.5977 
 159   0.0000       0.244128         6.6431 
 160   0.0000       0.245381         6.6772 
 161   0.0000       0.248166         6.7529 
 162   0.0000       0.251921         6.8551 
 163   0.0000       0.253091         6.8869 
 164   0.0000       0.256904         6.9907 
 165   0.0000       0.258956         7.0466 
 166   0.0000       0.260972         7.1014 
 167   0.0000       0.266267         7.2455 
 168   0.0000       0.267361         7.2753 
 169   0.0000       0.269197         7.3252 
 170   0.0000       0.274294         7.4639 
 171   0.0000       0.275786         7.5045 
 172   0.0000       0.277363         7.5474 
 173   0.0000       0.279959         7.6181 
 174   0.0000       0.281198         7.6518 
 175   0.0000       0.285443         7.7673 
 176   0.0000       0.287579         7.8254 
 177   0.0000       0.289802         7.8859 
 178   0.0000       0.290422         7.9028 
 179   0.0000       0.290559         7.9065 
 180   0.0000       0.292766         7.9666 
 181   0.0000       0.293846         7.9960 
 182   0.0000       0.296674         8.0729 
 183   0.0000       0.302234         8.2242 
 184   0.0000       0.302845         8.2408 
 185   0.0000       0.304609         8.2888 
 186   0.0000       0.306464         8.3393 
 187   0.0000       0.309239         8.4148 
 188   0.0000       0.312074         8.4920 
 189   0.0000       0.313528         8.5315 
 190   0.0000       0.315552         8.5866 
 191   0.0000       0.318128         8.6567 
 192   0.0000       0.319080         8.6826 
 193   0.0000       0.320180         8.7125 
 194   0.0000       0.321163         8.7393 
 195   0.0000       0.324283         8.8242 
 196   0.0000       0.325561         8.8590 
 197   0.0000       0.327676         8.9165 
 198   0.0000       0.329464         8.9652 
 199   0.0000       0.334391         9.0992 
 200   0.0000       0.335130         9.1194 
 201   0.0000       0.337364         9.1801 
 202   0.0000       0.338977         9.2240 
 203   0.0000       0.341738         9.2992 
 204   0.0000       0.346870         9.4388 
 205   0.0000       0.348127         9.4730 
 206   0.0000       0.349413         9.5080 
 207   0.0000       0.354224         9.6389 
 208   0.0000       0.357036         9.7155 
 209   0.0000       0.359392         9.7796 
 210   0.0000       0.362844         9.8735 
 211   0.0000       0.363842         9.9006 
 212   0.0000       0.365929         9.9574 
 213   0.0000       0.369208        10.0466 
 214   0.0000       0.372050        10.1240 
 215   0.0000       0.375053        10.2057 
 216   0.0000       0.375802        10.2261 
 217   0.0000       0.377468        10.2714 
 218   0.0000       0.379479        10.3262 
 219   0.0000       0.380189        10.3455 
 220   0.0000       0.382648        10.4124 
 221   0.0000       0.386388        10.5142 
 222   0.0000       0.388901        10.5825 
 223   0.0000       0.389200        10.5907 
 224   0.0000       0.390453        10.6248 
 225   0.0000       0.394626        10.7383 
 226   0.0000       0.398368        10.8402 
 227   0.0000       0.399610        10.8739 
 228   0.0000       0.401157        10.9160 
 229   0.0000       0.402803        10.9608 
 230   0.0000       0.405615        11.0374 
 231   0.0000       0.408316        11.1109 
 232   0.0000       0.410089        11.1591 
 233   0.0000       0.412185        11.2161 
 234   0.0000       0.415610        11.3093 
 235   0.0000       0.417473        11.3600 
 236   0.0000       0.419865        11.4251 
 237   0.0000       0.423759        11.5311 
 238   0.0000       0.427300        11.6274 
 239   0.0000       0.428133        11.6501 
 240   0.0000       0.429984        11.7005 
 241   0.0000       0.432498        11.7689 
 242   0.0000       0.434928        11.8350 
 243   0.0000       0.437285        11.8991 
 244   0.0000       0.440287        11.9808 
 245   0.0000       0.441943        12.0259 
 246   0.0000       0.444112        12.0849 
 247   0.0000       0.446868        12.1599 
 248   0.0000       0.451003        12.2724 
 249   0.0000       0.453740        12.3469 
 250   0.0000       0.459707        12.5093 
 251   0.0000       0.460461        12.5298 
 252   0.0000       0.462727        12.5914 
 253   0.0000       0.467889        12.7319 
 254   0.0000       0.470958        12.8154 
 255   0.0000       0.472438        12.8557 
 256   0.0000       0.474701        12.9173 
 257   0.0000       0.476214        12.9584 
 258   0.0000       0.482006        13.1161 
 259   0.0000       0.484642        13.1878 
 260   0.0000       0.487379        13.2622 
 261   0.0000       0.489471        13.3192 
 262   0.0000       0.490619        13.3504 
 263   0.0000       0.492711        13.4073 
 264   0.0000       0.496095        13.4994 
 265   0.0000       0.499171        13.5831 
 266   0.0000       0.500932        13.6311 
 267   0.0000       0.502235        13.6665 
 268   0.0000       0.505308        13.7501 
 269   0.0000       0.506349        13.7785 
 270   0.0000       0.510035        13.8788 
 271   0.0000       0.511216        13.9109 
 272   0.0000       0.515431        14.0256 
 273   0.0000       0.517489        14.0816 
 274   0.0000       0.521003        14.1772 
 275   0.0000       0.522800        14.2261 
 276   0.0000       0.525097        14.2886 
 277   0.0000       0.528205        14.3732 
 278   0.0000       0.530681        14.4406 
 279   0.0000       0.533487        14.5169 
 280   0.0000       0.534890        14.5551 
 281   0.0000       0.535888        14.5823 
 282   0.0000       0.539824        14.6894 
 283   0.0000       0.542713        14.7680 
 284   0.0000       0.546405        14.8684 
 285   0.0000       0.547397        14.8954 
 286   0.0000       0.548512        14.9258 
 287   0.0000       0.554048        15.0764 
 288   0.0000       0.557547        15.1716 
 289   0.0000       0.559855        15.2344 
 290   0.0000       0.560486        15.2516 
 291   0.0000       0.563461        15.3325 
 292   0.0000       0.566913        15.4265 
 293   0.0000       0.567891        15.4531 
 294   0.0000       0.573083        15.5944 
 295   0.0000       0.576022        15.6744 
 296   0.0000       0.577050        15.7023 
 297   0.0000       0.582444        15.8491 
 298   0.0000       0.584983        15.9182 
 299   0.0000       0.586071        15.9478 
 300   0.0000       0.587019        15.9736 
 301   0.0000       0.593611        16.1530 
 302   0.0000       0.596120        16.2213 
 303   0.0000       0.598358        16.2822 
 304   0.0000       0.601306        16.3624 
 305   0.0000       0.604689        16.4544 
 306   0.0000       0.604852        16.4588 
 307   0.0000       0.608137        16.5483 
 308   0.0000       0.612372        16.6635 
 309   0.0000       0.614592        16.7239 
 310   0.0000       0.619530        16.8583 
 311   0.0000       0.620885        16.8951 
 312   0.0000       0.622961        16.9516 
 313   0.0000       0.626243        17.0409 
 314   0.0000       0.629868        17.1396 
 315   0.0000       0.631345        17.1798 
 316   0.0000       0.632086        17.1999 
 317   0.0000       0.636065        17.3082 
 318   0.0000       0.638964        17.3871 
 319   0.0000       0.640804        17.4372 
 320   0.0000       0.644152        17.5283 
 321   0.0000       0.644905        17.5488 
 322   0.0000       0.646308        17.5869 
 323   0.0000       0.647634        17.6230 
 324   0.0000       0.649627        17.6773 
 325   0.0000       0.652317        17.7504 
 326   0.0000       0.653397        17.7798 
 327   0.0000       0.656674        17.8690 
 328   0.0000       0.658219        17.9111 
 329   0.0000       0.662019        18.0144 
 330   0.0000       0.662988        18.0408 
 331   0.0000       0.668011        18.1775 
 332   0.0000       0.669688        18.2231 
 333   0.0000       0.671489        18.2722 
 334   0.0000       0.676179        18.3998 
 335   0.0000       0.677264        18.4293 
 336   0.0000       0.678997        18.4764 
 337   0.0000       0.681577        18.5466 
 338   0.0000       0.681839        18.5538 
 339   0.0000       0.684495        18.6261 
 340   0.0000       0.685174        18.6445 
 341   0.0000       0.691247        18.8098 
 342   0.0000       0.693656        18.8753 
 343   0.0000       0.694506        18.8985 
 344   0.0000       0.695096        18.9145 
 345   0.0000       0.697645        18.9839 
 346   0.0000       0.699701        19.0398 
 347   0.0000       0.702956        19.1284 
 348   0.0000       0.703828        19.1521 
 349   0.0000       0.706619        19.2281 
 350   0.0000       0.709679        19.3113 
 351   0.0000       0.712196        19.3798 
 352   0.0000       0.715746        19.4764 
 353   0.0000       0.719520        19.5791 
 354   0.0000       0.720240        19.5987 
 355   0.0000       0.725536        19.7428 
 356   0.0000       0.729355        19.8468 
 357   0.0000       0.731128        19.8950 
 358   0.0000       0.733063        19.9476 
 359   0.0000       0.735245        20.0070 
 360   0.0000       0.738809        20.1040 
 361   0.0000       0.739235        20.1156 
 362   0.0000       0.741623        20.1806 
 363   0.0000       0.744693        20.2641 
 364   0.0000       0.747868        20.3505 
 365   0.0000       0.749050        20.3827 
 366   0.0000       0.754106        20.5203 
 367   0.0000       0.757035        20.6000 
 368   0.0000       0.762384        20.7455 
 369   0.0000       0.763756        20.7829 
 370   0.0000       0.767011        20.8714 
 371   0.0000       0.770364        20.9627 
 372   0.0000       0.771761        21.0007 
 373   0.0000       0.773538        21.0490 
 374   0.0000       0.776213        21.1218 
 375   0.0000       0.780329        21.2338 
 376   0.0000       0.782145        21.2833 
 377   0.0000       0.784935        21.3592 
 378   0.0000       0.790202        21.5025 
 379   0.0000       0.790372        21.5071 
 380   0.0000       0.793218        21.5846 
 381   0.0000       0.795320        21.6418 
 382   0.0000       0.800173        21.7738 
 383   0.0000       0.808084        21.9891 
 384   0.0000       0.808470        21.9996 
 385   0.0000       0.809642        22.0315 
 386   0.0000       0.813305        22.1312 
 387   0.0000       0.815324        22.1861 
 388   0.0000       0.818407        22.2700 
 389   0.0000       0.819686        22.3048 
 390   0.0000       0.823759        22.4156 
 391   0.0000       0.825980        22.4761 
 392   0.0000       0.828715        22.5505 
 393   0.0000       0.833295        22.6751 
 394   0.0000       0.839538        22.8450 
 395   0.0000       0.842802        22.9338 
 396   0.0000       0.844148        22.9704 
 397   0.0000       0.850623        23.1466 
 398   0.0000       0.853626        23.2284 
 399   0.0000       0.856287        23.3008 
 400   0.0000       0.859306        23.3829 
 401   0.0000       0.861635        23.4463 
 402   0.0000       0.863805        23.5053 
 403   0.0000       0.871723        23.7208 
 404   0.0000       0.874814        23.8049 
 405   0.0000       0.875866        23.8335 
 406   0.0000       0.878099        23.8943 
 407   0.0000       0.883012        24.0280 
 408   0.0000       0.888308        24.1721 
 409   0.0000       0.895453        24.3665 
 410   0.0000       0.896389        24.3920 
 411   0.0000       0.898199        24.4412 
 412   0.0000       0.903978        24.5985 
 413   0.0000       0.905238        24.6328 
 414   0.0000       0.908977        24.7345 
 415   0.0000       0.911517        24.8036 
 416   0.0000       0.916593        24.9418 
 417   0.0000       0.920554        25.0496 
 418   0.0000       0.925446        25.1827 
 419   0.0000       0.928603        25.2686 
 420   0.0000       0.929314        25.2879 
 421   0.0000       0.936450        25.4821 
 422   0.0000       0.939341        25.5608 
 423   0.0000       0.948176        25.8012 
 424   0.0000       0.950400        25.8617 
 425   0.0000       0.952692        25.9241 
 426   0.0000       0.958407        26.0796 
 427   0.0000       0.960189        26.1281 
 428   0.0000       0.966709        26.3055 
 429   0.0000       0.967915        26.3383 
 430   0.0000       0.972245        26.4561 
 431   0.0000       0.975126        26.5345 
 432   0.0000       0.976061        26.5600 
 433   0.0000       0.982182        26.7265 
 434   0.0000       0.989693        26.9309 
 435   0.0000       0.991137        26.9702 
 436   0.0000       0.995184        27.0803 
 437   0.0000       0.996658        27.1204 
 438   0.0000       1.004533        27.3347 
 439   0.0000       1.011951        27.5366 
 440   0.0000       1.014057        27.5939 
 441   0.0000       1.018427        27.7128 
 442   0.0000       1.018601        27.7176 
 443   0.0000       1.025955        27.9177 
 444   0.0000       1.029193        28.0058 
 445   0.0000       1.034595        28.1528 
 446   0.0000       1.038960        28.2715 
 447   0.0000       1.046084        28.4654 
 448   0.0000       1.047353        28.4999 
 449   0.0000       1.050356        28.5816 
 450   0.0000       1.058962        28.8158 
 451   0.0000       1.061698        28.8903 
 452   0.0000       1.068095        29.0643 
 453   0.0000       1.075064        29.2540 
 454   0.0000       1.081985        29.4423 
 455   0.0000       1.083992        29.4969 
 456   0.0000       1.087756        29.5993 
 457   0.0000       1.092725        29.7346 
 458   0.0000       1.099105        29.9082 
 459   0.0000       1.101619        29.9766 
 460   0.0000       1.111356        30.2415 
 461   0.0000       1.119402        30.4605 
 462   0.0000       1.122867        30.5548 
 463   0.0000       1.127790        30.6887 
 464   0.0000       1.131273        30.7835 
 465   0.0000       1.137886        30.9634 
 466   0.0000       1.144354        31.1395 
 467   0.0000       1.146966        31.2105 
 468   0.0000       1.157404        31.4946 
 469   0.0000       1.158440        31.5228 
 470   0.0000       1.162755        31.6402 
 471   0.0000       1.168185        31.7879 
 472   0.0000       1.172879        31.9157 
 473   0.0000       1.181839        32.1595 
 474   0.0000       1.182715        32.1833 
 475   0.0000       1.189356        32.3640 
 476   0.0000       1.192431        32.4477 
 477   0.0000       1.196465        32.5575 
 478   0.0000       1.197001        32.5720 
 479   0.0000       1.208096        32.8740 
 480   0.0000       1.214276        33.0421 
 481   0.0000       1.224168        33.3113 
 482   0.0000       1.226910        33.3859 
 483   0.0000       1.230752        33.4905 
 484   0.0000       1.236403        33.6442 
 485   0.0000       1.242426        33.8081 
 486   0.0000       1.245564        33.8935 
 487   0.0000       1.248543        33.9746 
 488   0.0000       1.255604        34.1667 
 489   0.0000       1.260766        34.3072 
 490   0.0000       1.264247        34.4019 
 491   0.0000       1.265335        34.4315 
 492   0.0000       1.272043        34.6141 
 493   0.0000       1.278202        34.7816 
 494   0.0000       1.280272        34.8380 
 495   0.0000       1.285503        34.9803 
 496   0.0000       1.288314        35.0568 
 497   0.0000       1.292211        35.1629 
 498   0.0000       1.299077        35.3497 
 499   0.0000       1.304453        35.4960 
 500   0.0000       1.307227        35.5715 
 501   0.0000       1.309621        35.6366 
 502   0.0000       1.311359        35.6839 
 503   0.0000       1.321268        35.9535 
 504   0.0000       1.323041        36.0018 
 505   0.0000       1.328201        36.1422 
 506   0.0000       1.333931        36.2981 
 507   0.0000       1.334329        36.3089 
 508   0.0000       1.338568        36.4243 
 509   0.0000       1.344531        36.5865 
 510   0.0000       1.349730        36.7280 
 511   0.0000       1.351505        36.7763 
 512   0.0000       1.354685        36.8628 
 513   0.0000       1.355880        36.8954 
 514   0.0000       1.360490        37.0208 
 515   0.0000       1.364090        37.1188 
 516   0.0000       1.369398        37.2632 
 517   0.0000       1.373647        37.3788 
 518   0.0000       1.378434        37.5091 
 519   0.0000       1.379076        37.5266 
 520   0.0000       1.382093        37.6087 
 521   0.0000       1.387126        37.7456 
 522   0.0000       1.391675        37.8694 
 523   0.0000       1.393003        37.9055 
 524   0.0000       1.395468        37.9726 
 525   0.0000       1.397821        38.0366 
 526   0.0000       1.403698        38.1966 
 527   0.0000       1.405856        38.2553 
 528   0.0000       1.410684        38.3867 
 529   0.0000       1.415854        38.5273 
 530   0.0000       1.417183        38.5635 
 531   0.0000       1.422774        38.7157 
 532   0.0000       1.424181        38.7539 
 533   0.0000       1.429002        38.8851 
 534   0.0000       1.432883        38.9907 
 535   0.0000       1.441049        39.2129 
 536   0.0000       1.443895        39.2904 
 537   0.0000       1.446939        39.3732 
 538   0.0000       1.450648        39.4742 
 539   0.0000       1.454685        39.5840 
 540   0.0000       1.458124        39.6776 
 541   0.0000       1.466703        39.9110 
 542   0.0000       1.468528        39.9607 
 543   0.0000       1.473645        40.0999 
 544   0.0000       1.477205        40.1968 
 545   0.0000       1.487409        40.4744 
 546   0.0000       1.488096        40.4932 
 547   0.0000       1.494111        40.6568 
 548   0.0000       1.499868        40.8135 
 549   0.0000       1.501518        40.8584 
 550   0.0000       1.503068        40.9006 
 551   0.0000       1.509758        41.0826 
 552   0.0000       1.516247        41.2592 
 553   0.0000       1.519957        41.3601 
 554   0.0000       1.522567        41.4312 
 555   0.0000       1.526480        41.5376 
 556   0.0000       1.528074        41.5810 
 557   0.0000       1.530215        41.6393 
 558   0.0000       1.534994        41.7693 
 559   0.0000       1.541935        41.9582 
 560   0.0000       1.547198        42.1014 
 561   0.0000       1.553744        42.2795 
 562   0.0000       1.564805        42.5805 
 563   0.0000       1.567993        42.6673 
 564   0.0000       1.570839        42.7447 
 565   0.0000       1.578120        42.9428 
 566   0.0000       1.580476        43.0069 
 567   0.0000       1.582085        43.0507 
 568   0.0000       1.590832        43.2887 
 569   0.0000       1.591430        43.3050 
 570   0.0000       1.598136        43.4875 
 571   0.0000       1.601542        43.5802 
 572   0.0000       1.607428        43.7403 
 573   0.0000       1.616143        43.9775 
 574   0.0000       1.616475        43.9865 
 575   0.0000       1.620909        44.1072 
 576   0.0000       1.625479        44.2315 
 577   0.0000       1.632134        44.4126 
 578   0.0000       1.635753        44.5111 
 579   0.0000       1.639619        44.6163 
 580   0.0000       1.643180        44.7132 
 581   0.0000       1.644694        44.7544 
 582   0.0000       1.646724        44.8096 
 583   0.0000       1.652718        44.9727 
 584   0.0000       1.654290        45.0155 
 585   0.0000       1.656896        45.0864 
 586   0.0000       1.662177        45.2301 
 587   0.0000       1.667338        45.3706 
 588   0.0000       1.669123        45.4191 
 589   0.0000       1.674177        45.5567 
 590   0.0000       1.680066        45.7169 
 591   0.0000       1.683071        45.7987 
 592   0.0000       1.689953        45.9860 
 593   0.0000       1.692814        46.0638 
 594   0.0000       1.703075        46.3430 
 595   0.0000       1.709805        46.5262 
 596   0.0000       1.710519        46.5456 
 597   0.0000       1.718350        46.7587 
 598   0.0000       1.718475        46.7621 
 599   0.0000       1.723185        46.8903 
 600   0.0000       1.727482        47.0072 
 601   0.0000       1.731237        47.1094 
 602   0.0000       1.735252        47.2186 
 603   0.0000       1.744853        47.4799 
 604   0.0000       1.749500        47.6063 
 605   0.0000       1.750194        47.6252 
 606   0.0000       1.759840        47.8877 
 607   0.0000       1.762478        47.9595 
 608   0.0000       1.769876        48.1608 
 609   0.0000       1.775380        48.3106 
 610   0.0000       1.780338        48.4455 
 611   0.0000       1.781598        48.4798 
 612   0.0000       1.787277        48.6343 
 613   0.0000       1.791802        48.7574 
 614   0.0000       1.796838        48.8944 
 615   0.0000       1.801902        49.0323 
 616   0.0000       1.804589        49.1054 
 617   0.0000       1.815256        49.3956 
 618   0.0000       1.820183        49.5297 
 619   0.0000       1.820818        49.5470 
 620   0.0000       1.824464        49.6462 
 621   0.0000       1.832407        49.8623 
 622   0.0000       1.836482        49.9732 
 623   0.0000       1.842982        50.1501 
 624   0.0000       1.846625        50.2492 
 625   0.0000       1.856490        50.5177 
 626   0.0000       1.858522        50.5729 
 627   0.0000       1.863129        50.6983 
 628   0.0000       1.871012        50.9128 
 629   0.0000       1.877869        51.0994 
 630   0.0000       1.882146        51.2158 
 631   0.0000       1.887519        51.3620 
 632   0.0000       1.900829        51.7242 
 633   0.0000       1.902517        51.7701 
 634   0.0000       1.906536        51.8795 
 635   0.0000       1.910812        51.9958 
 636   0.0000       1.926150        52.4132 
 637   0.0000       1.933983        52.6263 
 638   0.0000       1.937528        52.7228 
 639   0.0000       1.947531        52.9950 
 640   0.0000       1.952228        53.1228 
 641   0.0000       1.952992        53.1436 
 642   0.0000       1.966810        53.5196 
 643   0.0000       1.977879        53.8208 
 644   0.0000       1.990894        54.1750 
 645   0.0000       1.992214        54.2109 
 646   0.0000       2.003487        54.5176 
 647   0.0000       2.011318        54.7307 
 648   0.0000       2.019940        54.9654 
 649   0.0000       2.029684        55.2305 
 650   0.0000       2.035617        55.3920 
 651   0.0000       2.040326        55.5201 
 652   0.0000       2.047942        55.7273 
 653   0.0000       2.057102        55.9766 
 654   0.0000       2.060074        56.0575 
 655   0.0000       2.067593        56.2621 
 656   0.0000       2.072705        56.4012 
 657   0.0000       2.081569        56.6424 
 658   0.0000       2.084738        56.7286 
 659   0.0000       2.096476        57.0480 
 660   0.0000       2.098003        57.0896 
 661   0.0000       2.115322        57.5608 
 662   0.0000       2.120381        57.6985 
 663   0.0000       2.130143        57.9641 
 664   0.0000       2.140169        58.2370 
 665   0.0000       2.144713        58.3606 
 666   0.0000       2.155902        58.6651 
 667   0.0000       2.161819        58.8261 
 668   0.0000       2.166724        58.9596 
 669   0.0000       2.169687        59.0402 
 670   0.0000       2.178129        59.2699 
 671   0.0000       2.191700        59.6392 
 672   0.0000       2.196678        59.7747 
 673   0.0000       2.207871        60.0792 
 674   0.0000       2.221179        60.4414 
 675   0.0000       2.224985        60.5449 
 676   0.0000       2.235288        60.8253 
 677   0.0000       2.236590        60.8607 
 678   0.0000       2.254194        61.3397 
 679   0.0000       2.261070        61.5268 
 680   0.0000       2.265232        61.6401 
 681   0.0000       2.272597        61.8405 
 682   0.0000       2.286773        62.2263 
 683   0.0000       2.289178        62.2917 
 684   0.0000       2.295226        62.4563 
 685   0.0000       2.302918        62.6656 
 686   0.0000       2.310285        62.8660 
 687   0.0000       2.313917        62.9649 
 688   0.0000       2.325676        63.2849 
 689   0.0000       2.326266        63.3009 
 690   0.0000       2.335891        63.5628 
 691   0.0000       2.344639        63.8009 
 692   0.0000       2.371888        64.5423 
 693   0.0000       2.377285        64.6892 
 694   0.0000       2.385409        64.9103 
 695   0.0000       2.393163        65.1213 
 696   0.0000       2.395022        65.1718 
 697   0.0000       2.401678        65.3530 
 698   0.0000       2.416791        65.7642 
 699   0.0000       2.433122        66.2086 
 700   0.0000       2.443644        66.4949 
 701   0.0000       2.454006        66.7769 
 702   0.0000       2.459656        66.9306 
 703   0.0000       2.471439        67.2513 
 704   0.0000       2.479305        67.4653 
 705   0.0000       2.486374        67.6577 
 706   0.0000       2.496138        67.9234 
 707   0.0000       2.511154        68.3320 
 708   0.0000       2.528783        68.8117 
 709   0.0000       2.538104        69.0653 
 710   0.0000       2.578314        70.1595 
 711   0.0000       2.586634        70.3859 
 712   0.0000       2.595308        70.6219 
 713   0.0000       2.597206        70.6736 
 714   0.0000       2.608421        70.9787 
 715   0.0000       2.609846        71.0175 
 716   0.0000       2.624570        71.4182 
 717   0.0000       2.643241        71.9263 
 718   0.0000       2.653168        72.1964 
 719   0.0000       2.661381        72.4199 
 720   0.0000       2.671209        72.6873 
 721   0.0000       2.676209        72.8234 
 722   0.0000       2.681636        72.9710 
 723   0.0000       2.687650        73.1347 
 724   0.0000       2.693304        73.2885 
 725   0.0000       2.693891        73.3045 
 726   0.0000       2.699861        73.4670 
 727   0.0000       2.706798        73.6557 
 728   0.0000       2.711296        73.7781 
 729   0.0000       2.720062        74.0167 
 730   0.0000       2.732437        74.3534 
 731   0.0000       2.739894        74.5563 
 732   0.0000       2.752187        74.8908 
 733   0.0000       2.763624        75.2020 
 734   0.0000       2.768892        75.3454 
 735   0.0000       2.773948        75.4830 
 736   0.0000       2.785599        75.8000 
 737   0.0000       2.806634        76.3724 
 738   0.0000       2.810375        76.4742 
 739   0.0000       2.816786        76.6487 
 740   0.0000       2.819657        76.7268 
 741   0.0000       2.823457        76.8302 
 742   0.0000       2.834148        77.1211 
 743   0.0000       2.839604        77.2696 
 744   0.0000       2.863481        77.9193 
 745   0.0000       2.865392        77.9713 
 746   0.0000       2.873574        78.1939 
 747   0.0000       2.877281        78.2948 
 748   0.0000       2.894964        78.7760 
 749   0.0000       2.900779        78.9342 
 750   0.0000       2.905070        79.0510 
 751   0.0000       2.942384        80.0663 
 752   0.0000       2.951204        80.3063 
 753   0.0000       2.959705        80.5377 
 754   0.0000       2.968653        80.7812 
 755   0.0000       2.971185        80.8500 
 756   0.0000       2.986679        81.2717 
 757   0.0000       2.987886        81.3045 
 758   0.0000       2.996469        81.5381 
 759   0.0000       3.003506        81.7296 
 760   0.0000       3.005771        81.7912 
 761   0.0000       3.008094        81.8544 
 762   0.0000       3.010473        81.9191 
 763   0.0000       3.014016        82.0156 
 764   0.0000       3.018924        82.1491 
 765   0.0000       3.026563        82.3570 
 766   0.0000       3.032931        82.5303 
 767   0.0000       3.035886        82.6107 
 768   0.0000       3.037383        82.6514 
 769   0.0000       3.048487        82.9536 
 770   0.0000       3.051466        83.0346 
 771   0.0000       3.066624        83.4471 
 772   0.0000       3.073309        83.6290 
 773   0.0000       3.074685        83.6664 
 774   0.0000       3.076084        83.7045 
 775   0.0000       3.080744        83.8313 
 776   0.0000       3.083170        83.8973 
 777   0.0000       3.086853        83.9975 
 778   0.0000       3.092084        84.1399 
 779   0.0000       3.102112        84.4128 
 780   0.0000       3.108471        84.5858 
 781   0.0000       3.113711        84.7284 
 782   0.0000       3.116083        84.7929 
 783   0.0000       3.118052        84.8465 
 784   0.0000       3.125629        85.0527 
 785   0.0000       3.130792        85.1932 
 786   0.0000       3.135889        85.3319 
 787   0.0000       3.139436        85.4284 
 788   0.0000       3.142237        85.5046 
 789   0.0000       3.152980        85.7970 
 790   0.0000       3.155906        85.8766 
 791   0.0000       3.163241        86.0762 
 792   0.0000       3.166259        86.1583 
 793   0.0000       3.178255        86.4847 
 794   0.0000       3.181492        86.5728 
 795   0.0000       3.188790        86.7714 
 796   0.0000       3.198569        87.0375 
 797   0.0000       3.201863        87.1271 
 798   0.0000       3.213711        87.4495 
 799   0.0000       3.219466        87.6061 
 800   0.0000       3.228189        87.8435 
 801   0.0000       3.235495        88.0423 
 802   0.0000       3.235974        88.0553 
 803   0.0000       3.242905        88.2439 
 804   0.0000       3.246166        88.3327 
 805   0.0000       3.257437        88.6394 
 806   0.0000       3.261368        88.7463 
 807   0.0000       3.266696        88.8913 
 808   0.0000       3.271125        89.0118 
 809   0.0000       3.277278        89.1793 
 810   0.0000       3.283356        89.3447 
 811   0.0000       3.286918        89.4416 
 812   0.0000       3.289833        89.5209 
 813   0.0000       3.297812        89.7380 
 814   0.0000       3.298390        89.7537 
 815   0.0000       3.303376        89.8894 
 816   0.0000       3.304764        89.9272 
 817   0.0000       3.312303        90.1323 
 818   0.0000       3.315731        90.2256 
 819   0.0000       3.320900        90.3663 
 820   0.0000       3.321363        90.3789 
 821   0.0000       3.325602        90.4942 
 822   0.0000       3.334605        90.7392 
 823   0.0000       3.335136        90.7537 
 824   0.0000       3.336736        90.7972 
 825   0.0000       3.342208        90.9461 
 826   0.0000       3.345686        91.0407 
 827   0.0000       3.353034        91.2407 
 828   0.0000       3.357660        91.3666 
 829   0.0000       3.362493        91.4981 
 830   0.0000       3.370356        91.7120 
 831   0.0000       3.375517        91.8525 
 832   0.0000       3.379103        91.9501 
 833   0.0000       3.382794        92.0505 
 834   0.0000       3.383658        92.0740 
 835   0.0000       3.392980        92.3277 
 836   0.0000       3.395207        92.3883 
 837   0.0000       3.399956        92.5175 
 838   0.0000       3.403196        92.6057 
 839   0.0000       3.407079        92.7113 
 840   0.0000       3.420600        93.0793 
 841   0.0000       3.427686        93.2721 
 842   0.0000       3.429368        93.3178 
 843   0.0000       3.438255        93.5597 
 844   0.0000       3.442679        93.6800 
 845   0.0000       3.445838        93.7660 
 846   0.0000       3.446896        93.7948 
 847   0.0000       3.450776        93.9004 
 848   0.0000       3.455813        94.0374 
 849   0.0000       3.460575        94.1670 
 850   0.0000       3.467125        94.3453 
 851   0.0000       3.470547        94.4384 
 852   0.0000       3.475025        94.5602 
 853   0.0000       3.475983        94.5863 
 854   0.0000       3.483469        94.7900 
 855   0.0000       3.487363        94.8960 
 856   0.0000       3.488076        94.9154 
 857   0.0000       3.493494        95.0628 
 858   0.0000       3.499566        95.2280 
 859   0.0000       3.502428        95.3059 
 860   0.0000       3.509220        95.4907 
 861   0.0000       3.520044        95.7853 
 862   0.0000       3.522242        95.8451 
 863   0.0000       3.528448        96.0140 
 864   0.0000       3.530207        96.0618 
 865   0.0000       3.540577        96.3440 
 866   0.0000       3.545909        96.4891 
 867   0.0000       3.550697        96.6194 
 868   0.0000       3.553353        96.6916 
 869   0.0000       3.556967        96.7900 
 870   0.0000       3.561440        96.9117 
 871   0.0000       3.570275        97.1521 
 872   0.0000       3.572247        97.2058 
 873   0.0000       3.576369        97.3179 
 874   0.0000       3.585738        97.5729 
 875   0.0000       3.589677        97.6801 
 876   0.0000       3.591420        97.7275 
 877   0.0000       3.599361        97.9436 
 878   0.0000       3.607548        98.1664 
 879   0.0000       3.618607        98.4673 
 880   0.0000       3.621691        98.5512 
 881   0.0000       3.627093        98.6982 
 882   0.0000       3.630419        98.7887 
 883   0.0000       3.633116        98.8621 
 884   0.0000       3.644462        99.1709 
 885   0.0000       3.648212        99.2729 
 886   0.0000       3.652181        99.3809 
 887   0.0000       3.660790        99.6151 
 888   0.0000       3.668759        99.8320 
 889   0.0000       3.674304        99.9829 
 890   0.0000       3.678167       100.0880 
 891   0.0000       3.681687       100.1838 
 892   0.0000       3.685050       100.2753 
 893   0.0000       3.690597       100.4263 
 894   0.0000       3.698468       100.6404 
 895   0.0000       3.701177       100.7141 
 896   0.0000       3.711423       100.9930 
 897   0.0000       3.713673       101.0542 
 898   0.0000       3.721908       101.2783 
 899   0.0000       3.731615       101.5424 
 900   0.0000       3.732956       101.5789 
 901   0.0000       3.739886       101.7675 
 902   0.0000       3.749211       102.0212 
 903   0.0000       3.754218       102.1575 
 904   0.0000       3.764124       102.4270 
 905   0.0000       3.769837       102.5825 
 906   0.0000       3.774344       102.7051 
 907   0.0000       3.775583       102.7388 
 908   0.0000       3.780682       102.8776 
 909   0.0000       3.784714       102.9873 
 910   0.0000       3.789182       103.1089 
 911   0.0000       3.794666       103.2581 
[...]
      dx2y2   :     0.008196
      dxy     :     0.008835
 25 H s       :     0.685756  s :     0.685756
      pz      :     0.085270  p :     0.267523
      px      :     0.086917
      py      :     0.095336
      dz2     :     0.006492  d :     0.029293
      dxz     :     0.005723
      dyz     :     0.005021
      dx2y2   :     0.006719
      dxy     :     0.005338
 26 H s       :     0.684784  s :     0.684784
      pz      :     0.085334  p :     0.268367
      px      :     0.094520
      py      :     0.088512
      dz2     :     0.006628  d :     0.029328
      dxz     :     0.004916
      dyz     :     0.005956
      dx2y2   :     0.006574
      dxy     :     0.005255
 27 H s       :     0.696971  s :     0.696971
      pz      :     0.073950  p :     0.264395
      px      :     0.120795
      py      :     0.069650
      dz2     :     0.003777  d :     0.029190
      dxz     :     0.008866
      dyz     :     0.000621
      dx2y2   :     0.007369
      dxy     :     0.008556
 28 H s       :     0.685983  s :     0.685983
      pz      :     0.121482  p :     0.275590
      px      :     0.075046
      py      :     0.079062
      dz2     :     0.010371  d :     0.029377
      dxz     :     0.008572
      dyz     :     0.008940
      dx2y2   :     0.000908
      dxy     :     0.000586
 29 H s       :     0.669048  s :     0.669048
      pz      :     0.101350  p :     0.301300
      px      :     0.087935
      py      :     0.112016
      dz2     :     0.006294  d :     0.029697
      dxz     :     0.004977
      dyz     :     0.005279
      dx2y2   :     0.007055
      dxy     :     0.006093
 30 H s       :     0.659413  s :     0.659413
      pz      :     0.080363  p :     0.332356
      px      :     0.124309
      py      :     0.127684
      dz2     :     0.003147  d :     0.031360
      dxz     :     0.003974
      dyz     :     0.005637
      dx2y2   :     0.010096
      dxy     :     0.008506
 31 H s       :     0.684442  s :     0.684442
      pz      :     0.075662  p :     0.268691
      px      :     0.095462
      py      :     0.097566
      dz2     :     0.002899  d :     0.029309
      dxz     :     0.004456
      dyz     :     0.004645
      dx2y2   :     0.009239
      dxy     :     0.008069
 32 H s       :     0.679708  s :     0.679708
      pz      :     0.087443  p :     0.285301
      px      :     0.117501
      py      :     0.080357
      dz2     :     0.006347  d :     0.029483
      dxz     :     0.007823
      dyz     :     0.003113
      dx2y2   :     0.005607
      dxy     :     0.006593
 33 H s       :     0.667570  s :     0.667570
      pz      :     0.076419  p :     0.300859
      px      :     0.104445
      py      :     0.119995
      dz2     :     0.002973  d :     0.029794
      dxz     :     0.004416
      dyz     :     0.004924
      dx2y2   :     0.009388
      dxy     :     0.008093
 34 H s       :     0.696793  s :     0.696793
      pz      :     0.120024  p :     0.264592
      px      :     0.074235
      py      :     0.070333
      dz2     :     0.010546  d :     0.029178
      dxz     :     0.008845
      dyz     :     0.008273
      dx2y2   :     0.000514
      dxy     :     0.001001
 35 H s       :     0.697751  s :     0.697751
      pz      :     0.073961  p :     0.265201
      px      :     0.078047
      py      :     0.113192
      dz2     :     0.003939  d :     0.029193
      dxz     :     0.002203
      dyz     :     0.007206
      dx2y2   :     0.007550
      dxy     :     0.008296
 36 H s       :     0.685813  s :     0.685813
      pz      :     0.069241  p :     0.267648
      px      :     0.094360
      py      :     0.104047
      dz2     :     0.003039  d :     0.029293
      dxz     :     0.004929
      dyz     :     0.004283
      dx2y2   :     0.009209
      dxy     :     0.007832
 37 H s       :     0.697196  s :     0.697196
      pz      :     0.085635  p :     0.264747
      px      :     0.106918
      py      :     0.072195
      dz2     :     0.006287  d :     0.029187
      dxz     :     0.007740
      dyz     :     0.002828
      dx2y2   :     0.005563
      dxy     :     0.006769
 38 H s       :     0.685001  s :     0.685001
      pz      :     0.070539  p :     0.268792
      px      :     0.100217
      py      :     0.098036
      dz2     :     0.003070  d :     0.029308
      dxz     :     0.004183
      dyz     :     0.005059
      dx2y2   :     0.009192
      dxy     :     0.007806
 39 H s       :     0.689660  s :     0.689660
      pz      :     0.120815  p :     0.277408
      px      :     0.081705
      py      :     0.074888
      dz2     :     0.010777  d :     0.029457
      dxz     :     0.008791
      dyz     :     0.008290
      dx2y2   :     0.000535
      dxy     :     0.001064
 40 H s       :     0.672915  s :     0.672915
      pz      :     0.078934  p :     0.298651
      px      :     0.096567
      py      :     0.123150
      dz2     :     0.002904  d :     0.029583
      dxz     :     0.004433
      dyz     :     0.004816
      dx2y2   :     0.009256
      dxy     :     0.008174
 41 H s       :     0.662621  s :     0.662621
      pz      :     0.135359  p :     0.318434
      px      :     0.095600
      py      :     0.087475
      dz2     :     0.011460  d :     0.031020
      dxz     :     0.009569
      dyz     :     0.008790
      dx2y2   :     0.000414
      dxy     :     0.000787
 42 H s       :     0.675097  s :     0.675097
      pz      :     0.083873  p :     0.302576
      px      :     0.105846
      py      :     0.112857
      dz2     :     0.003306  d :     0.029563
      dxz     :     0.002181
      dyz     :     0.006960
      dx2y2   :     0.008824
      dxy     :     0.008292
 43 H s       :     0.677101  s :     0.677101
      pz      :     0.123421  p :     0.275081
      px      :     0.078409
      py      :     0.073251
      dz2     :     0.010825  d :     0.029428
      dxz     :     0.009138
      dyz     :     0.008683
      dx2y2   :     0.000242
      dxy     :     0.000540
 44 H s       :     0.684997  s :     0.684997
      pz      :     0.122624  p :     0.267746
      px      :     0.072851
      py      :     0.072271
      dz2     :     0.010495  d :     0.029301
      dxz     :     0.008979
      dyz     :     0.008806
      dx2y2   :     0.000363
      dxy     :     0.000658
 45 H s       :     0.696658  s :     0.696658
      pz      :     0.076529  p :     0.264615
      px      :     0.087664
      py      :     0.100423
      dz2     :     0.004056  d :     0.029203
      dxz     :     0.003777
      dyz     :     0.005288
      dx2y2   :     0.008454
      dxy     :     0.007628
 46 H s       :     0.685789  s :     0.685789
      pz      :     0.124402  p :     0.267550
      px      :     0.074748
      py      :     0.068400
      dz2     :     0.010113  d :     0.029298
      dxz     :     0.009370
      dyz     :     0.008389
      dx2y2   :     0.000506
      dxy     :     0.000920
 47 H s       :     0.698015  s :     0.698015
      pz      :     0.087775  p :     0.264704
      px      :     0.108183
      py      :     0.068746
      dz2     :     0.006208  d :     0.029180
      dxz     :     0.007848
      dyz     :     0.002228
      dx2y2   :     0.005927
      dxy     :     0.006969
 48 H s       :     0.696794  s :     0.696794
      pz      :     0.073431  p :     0.264885
      px      :     0.080552
      py      :     0.110902
      dz2     :     0.003333  d :     0.029209
      dxz     :     0.002216
      dyz     :     0.006744
      dx2y2   :     0.008591
      dxy     :     0.008326
 49 H s       :     0.685170  s :     0.685170
      pz      :     0.121966  p :     0.267650
      px      :     0.071857
      py      :     0.073827
      dz2     :     0.010715  d :     0.029306
      dxz     :     0.009111
      dyz     :     0.008661
      dx2y2   :     0.000243
      dxy     :     0.000576
 50 H s       :     0.681350  s :     0.681350
      pz      :     0.079619  p :     0.294875
      px      :     0.113841
      py      :     0.101415
      dz2     :     0.004136  d :     0.029610
      dxz     :     0.003744
      dyz     :     0.005501
      dx2y2   :     0.008555
      dxy     :     0.007675
 51 H s       :     0.678116  s :     0.678116
      pz      :     0.124537  p :     0.273821
      px      :     0.076783
      py      :     0.072500
      dz2     :     0.010575  d :     0.029358
      dxz     :     0.009031
      dyz     :     0.008849
      dx2y2   :     0.000322
      dxy     :     0.000580


                      *****************************
                      * MAYER POPULATION ANALYSIS *
                      *****************************

  NA   - Mulliken gross atomic population
  ZA   - Total nuclear charge
  QA   - Mulliken gross atomic charge
  VA   - Mayer's total valence
  BVA  - Mayer's bonded valence
  FA   - Mayer's free valence

  ATOM       NA         ZA         QA         VA         BVA        FA
  0 P     16.3118    15.0000    -1.3118     1.7130     1.7130     0.0000
  1 C      5.5167     6.0000     0.4833     4.5252     4.5252    -0.0000
  2 C      5.8076     6.0000     0.1924     3.9670     3.9670    -0.0000
  3 C      6.2533     6.0000    -0.2533     4.4077     4.4077     0.0000
  4 C      5.8609     6.0000     0.1391     4.1166     4.1166     0.0000
  5 C      6.1628     6.0000    -0.1628     4.3558     4.3558     0.0000
  6 C      6.2340     6.0000    -0.2340     4.5564     4.5564     0.0000
  7 C      5.4917     6.0000     0.5083     4.6109     4.6109    -0.0000
  8 C      6.0467     6.0000    -0.0467     4.3924     4.3924    -0.0000
  9 C      6.0915     6.0000    -0.0915     4.2939     4.2939     0.0000
 10 C      5.9235     6.0000     0.0765     4.1608     4.1608    -0.0000
 11 C      6.1568     6.0000    -0.1568     4.3357     4.3357    -0.0000
 12 C      6.0911     6.0000    -0.0911     4.0499     4.0499    -0.0000
 13 C      5.8025     6.0000     0.1975     4.8710     4.8710    -0.0000
 14 C      6.0344     6.0000    -0.0344     4.0932     4.0932     0.0000
 15 C      6.0063     6.0000    -0.0063     4.2295     4.2295    -0.0000
 16 C      6.0629     6.0000    -0.0629     4.3195     4.3195    -0.0000
 17 C      5.9846     6.0000     0.0154     4.1584     4.1584    -0.0000
 18 C      6.1090     6.0000    -0.1090     3.9816     3.9816     0.0000
 19 H      0.8404     1.0000     0.1596     0.5280     0.5280    -0.0000
 20 H      0.9250     1.0000     0.0750     0.8184     0.8184     0.0000
 21 H      1.1371     1.0000    -0.1371     1.0038     1.0038    -0.0000
 22 H      1.0799     1.0000    -0.0799     1.0248     1.0248     0.0000
 23 H      0.9240     1.0000     0.0760     0.9102     0.9102     0.0000
 24 H      1.0739     1.0000    -0.0739     1.0406     1.0406     0.0000
 25 H      0.9190     1.0000     0.0810     0.8968     0.8968    -0.0000
 26 H      0.9295     1.0000     0.0705     0.9159     0.9159     0.0000
 27 H      1.0738     1.0000    -0.0738     1.0424     1.0424     0.0000
 28 H      0.9801     1.0000     0.0199     0.8034     0.8034     0.0000
 29 H      0.8588     1.0000     0.1412     0.8286     0.8286    -0.0000
 30 H      0.8003     1.0000     0.1997     0.6149     0.6149     0.0000
 31 H      0.9443     1.0000     0.0557     0.9245     0.9245     0.0000
 32 H      1.0813     1.0000    -0.0813     0.9884     0.9884     0.0000
 33 H      0.8417     1.0000     0.1583     0.7467     0.7467    -0.0000
 34 H      1.0908     1.0000    -0.0908     1.0315     1.0315     0.0000
 35 H      1.0655     1.0000    -0.0655     1.0466     1.0466     0.0000
 36 H      0.9264     1.0000     0.0736     0.9122     0.9122    -0.0000
 37 H      1.0730     1.0000    -0.0730     1.0339     1.0339     0.0000
 38 H      0.9432     1.0000     0.0568     0.9314     0.9314    -0.0000
 39 H      1.0150     1.0000    -0.0150     0.8012     0.8012    -0.0000
 40 H      0.9222     1.0000     0.0778     0.9301     0.9301    -0.0000
 41 H      0.7214     1.0000     0.2786     0.4152     0.4152    -0.0000
 42 H      1.0822     1.0000    -0.0822     1.0659     1.0659     0.0000
 43 H      0.8250     1.0000     0.1750     0.7917     0.7917     0.0000
 44 H      0.9432     1.0000     0.0568     0.9309     0.9309    -0.0000
 45 H      1.0736     1.0000    -0.0736     1.0080     1.0080    -0.0000
 46 H      0.9179     1.0000     0.0821     0.9109     0.9109     0.0000
 47 H      1.0695     1.0000    -0.0695     1.0476     1.0476    -0.0000
 48 H      1.0552     1.0000    -0.0552     1.0102     1.0102    -0.0000
 49 H      0.9490     1.0000     0.0510     0.9163     0.9163    -0.0000
 50 H      1.1304     1.0000    -0.1304     1.1336     1.1336     0.0000
 51 H      0.8391     1.0000     0.1609     0.8144     0.8144     0.0000

  Mayer bond orders larger than 0.100000
B(  0-P ,  1-C ) :   0.5182 B(  0-P ,  6-C ) :   0.3453 B(  0-P ,  7-C ) :   0.4255 
B(  0-P ,  8-C ) :   0.1896 B(  0-P , 12-C ) :   0.1527 B(  0-P , 13-C ) :   0.5176 
B(  0-P , 14-C ) :   0.2489 B(  0-P , 19-H ) :  -0.1858 B(  0-P , 30-H ) :  -0.1079 
B(  0-P , 39-H ) :  -0.1402 B(  1-C ,  2-C ) :   0.9389 B(  1-C ,  3-C ) :   0.2971 
B(  1-C ,  5-C ) :   0.3410 B(  1-C ,  6-C ) :   1.0946 B(  1-C ,  7-C ) :   0.1700 
B(  1-C , 13-C ) :   0.1055 B(  1-C , 19-H ) :   0.8180 B(  2-C ,  3-C ) :   1.0004 
B(  2-C ,  4-C ) :   0.1386 B(  2-C ,  6-C ) :   0.1501 B(  2-C , 20-H ) :   0.8702 
B(  2-C , 21-H ) :   0.8964 B(  3-C ,  4-C ) :   0.9460 B(  3-C ,  5-C ) :   0.2089 
B(  3-C , 21-H ) :   0.1568 B(  3-C , 22-H ) :   0.9045 B(  3-C , 23-H ) :   0.9287 
B(  4-C ,  5-C ) :   0.9713 B(  4-C ,  6-C ) :   0.1205 B(  4-C , 24-H ) :   0.9713 
B(  4-C , 25-H ) :   0.9167 B(  5-C ,  6-C ) :   0.9509 B(  5-C , 26-H ) :   0.9495 
B(  5-C , 27-H ) :   0.9456 B(  6-C , 12-C ) :   0.1042 B(  6-C , 28-H ) :   0.8644 
B(  6-C , 29-H ) :   0.9109 B(  7-C ,  8-C ) :   1.0989 B(  7-C ,  9-C ) :   0.2880 
B(  7-C , 11-C ) :   0.2789 B(  7-C , 12-C ) :   1.1055 B(  7-C , 13-C ) :   0.1949 
B(  7-C , 18-C ) :   0.1064 B(  7-C , 30-H ) :   0.7792 B(  7-C , 39-H ) :   0.1338 
B(  8-C ,  9-C ) :   0.9669 B(  8-C , 10-C ) :   0.1428 B(  8-C , 32-H ) :   0.9309 
B(  8-C , 33-H ) :   0.8827 B(  9-C , 10-C ) :   0.9610 B(  9-C , 11-C ) :   0.1769 
B(  9-C , 31-H ) :   0.9296 B(  9-C , 34-H ) :   0.9228 B( 10-C , 11-C ) :   0.9775 
B( 10-C , 12-C ) :   0.1113 B( 10-C , 35-H ) :   0.9747 B( 10-C , 36-H ) :   0.9344 
B( 11-C , 12-C ) :   0.8606 B( 11-C , 37-H ) :   0.9513 B( 11-C , 38-H ) :   0.9723 
B( 12-C , 39-H ) :   0.9157 B( 12-C , 40-H ) :   0.9273 B( 13-C , 14-C ) :   1.0935 
B( 13-C , 15-C ) :   0.2832 B( 13-C , 17-C ) :   0.2438 B( 13-C , 18-C ) :   1.1255 
B( 13-C , 41-H ) :   0.7910 B( 14-C , 15-C ) :   0.8229 B( 14-C , 16-C ) :   0.2181 
B( 14-C , 41-H ) :  -0.1118 B( 14-C , 42-H ) :   0.9571 B( 14-C , 43-H ) :   0.7911 
B( 15-C , 16-C ) :   0.9572 B( 15-C , 17-C ) :   0.1264 B( 15-C , 42-H ) :   0.1678 
B( 15-C , 44-H ) :   0.9306 B( 15-C , 45-H ) :   0.9730 B( 16-C , 17-C ) :   0.9542 
B( 16-C , 18-C ) :   0.2377 B( 16-C , 46-H ) :   0.9518 B( 16-C , 47-H ) :   0.9671 
B( 17-C , 18-C ) :   0.7915 B( 17-C , 48-H ) :   0.9750 B( 17-C , 49-H ) :   0.9258 
B( 17-C , 50-H ) :   0.1697 B( 18-C , 50-H ) :   0.9599 B( 18-C , 51-H ) :   0.8156 


-------
TIMINGS
-------

Total SCF time: 0 days 0 hours 26 min 54 sec 

Total time                  ....    1614.511 sec
Sum of individual times     ....    1612.124 sec  ( 99.9%)

Fock matrix formation       ....    1603.704 sec  ( 99.3%)
  XC integration            ....      24.877 sec  (  1.6% of F)
    Basis function eval.    ....       1.949 sec  (  7.8% of XC)
    Density eval.           ....       8.720 sec  ( 35.1% of XC)
    XC-Functional eval.     ....       0.150 sec  (  0.6% of XC)
    XC-Potential eval.      ....      11.794 sec  ( 47.4% of XC)
Diagonalization             ....       1.715 sec  (  0.1%)
Density matrix formation    ....       0.178 sec  (  0.0%)
Population analysis         ....       0.440 sec  (  0.0%)
Initial guess               ....       1.864 sec  (  0.1%)
Orbital Transformation      ....       0.000 sec  (  0.0%)
Orbital Orthonormalization  ....       0.000 sec  (  0.0%)
DIIS solution               ....       1.487 sec  (  0.1%)
SOSCF solution              ....       1.592 sec  (  0.1%)
Grid generation             ....       1.145 sec  (  0.1%)


-------------------------------------------------------------------------------
                          DFT DISPERSION CORRECTION                            
                                                                               
                              DFTD3 V3.1  Rev 1                                
                          USING Becke-Johnson damping                          
-------------------------------------------------------------------------------
The TPSSH functional is recognized
Active option DFTDOPT                   ...         4   

molecular C6(AA) [au] = 21541.164526 


            DFT-D V3
 parameters
 s6 scaling factor         :     1.0000 
 a1 scaling factor         :     0.4529 
 s8 scaling factor         :     2.2382 
 a2 scaling factor         :     4.6550 
 ad hoc parameters k1-k3   :    16.0000     1.3333    -4.0000 

 Edisp/kcal,au: -49.810886378875  -0.079378691676 
 E6   /kcal   : -24.515864696 
 E8   /kcal   : -25.295021683 
 % E8         :  50.782115160 

-------------------------   ----------------
Dispersion correction           -0.079378692
-------------------------   ----------------


-------------------------   --------------------
FINAL SINGLE POINT ENERGY     -1047.594333708082
-------------------------   --------------------


                            ***************************************
                            *     ORCA property calculations      *
                            ***************************************

                                    ---------------------
                                    Active property flags
                                    ---------------------
   (+) Dipole Moment


------------------------------------------------------------------------------
                       ORCA ELECTRIC PROPERTIES CALCULATION
------------------------------------------------------------------------------

Dipole Moment Calculation                       ... on
Quadrupole Moment Calculation                   ... off
Polarizability Calculation                      ... off
GBWName                                         ... MOR22_pcy3.gbw
Electron density file                           ... MOR22_pcy3.scfp
The origin for moment calculation is the CENTER OF MASS  = (-0.009096, -0.003360 -0.045198)

-------------
DIPOLE MOMENT
-------------
                                X             Y             Z
Electronic contribution:     -1.36800      -0.47815      -6.52735
Nuclear contribution   :      1.41899       0.52417       7.05083
                        -----------------------------------------
Total Dipole Moment    :      0.05099       0.04602       0.52348
                        -----------------------------------------
Magnitude (a.u.)       :      0.52797
Magnitude (Debye)      :      1.34199



--------------------
Rotational spectrum 
--------------------
 
Rotational constants in cm-1:     0.011612     0.009073     0.005947 
Rotational constants in MHz :   348.132374   272.016111   178.294122 

 Dipole components along the rotational axes: 
x,y,z [a.u.] :     0.051975    -0.046051     0.523380 
x,y,z [Debye]:     0.132111    -0.117051     1.330327 

 

Timings for individual modules:

Sum of individual times         ...     1616.862 sec (=  26.948 min)
GTO integral calculation        ...        1.935 sec (=   0.032 min)   0.1 %
SCF iterations                  ...     1614.928 sec (=  26.915 min)  99.9 %
                             ****ORCA TERMINATED NORMALLY****
TOTAL RUN TIME: 0 days 0 hours 26 minutes 57 seconds 682 msec
