
                                 *****************
                                 * O   R   C   A *
                                 *****************

           --- An Ab Initio, DFT and Semiempirical electronic structure package ---

                  #######################################################
                  #                        -***-                        #
                  #          Department of theory and spectroscopy      #
                  #               Directorship: Frank Neese             #
                  #        Max Planck Institute fuer Kohlenforschung    #
                  #                Kaiser Wilhelm Platz 1               #
                  #                 D-45470 Muelheim/Ruhr               #
                  #                      Germany                        #
                  #                                                     #
                  #                  All rights reserved                #
                  #                        -***-                        #
                  #######################################################


                         Program Version 4.2.0 -  RELEASE  -


 With contributions from (in alphabetic order):
   Daniel Aravena         : Magnetic Suceptibility
   Michael Atanasov       : Ab Initio Ligand Field Theory (pilot matlab implementation)
   Alexander A. Auer      : GIAO ZORA, VPT2
   Ute Becker             : Parallelization
   Giovanni Bistoni       : ED, misc. LED, open-shell LED, HFLED
   Martin Brehm           : Molecular dynamics
   Dmytro Bykov           : SCF Hessian
   Vijay G. Chilkuri      : MRCI spin determinant printing, contributions to CSF-ICE
   Dipayan Datta          : RHF DLPNO-CCSD density
   Achintya Kumar Dutta   : EOM-CC, STEOM-CC
   Dmitry Ganyushin       : Spin-Orbit,Spin-Spin,Magnetic field MRCI
   Miquel Garcia          : C-PCM Hessian, Gaussian charge scheme
   Yang Guo               : DLPNO-NEVPT2, CIM, IAO-localization
   Andreas Hansen         : Spin unrestricted coupled pair/coupled cluster methods
   Benjamin Helmich-Paris : CASSCF linear response (MC-RPA)
   Lee Huntington         : MR-EOM, pCC
   Robert Izsak           : Overlap fitted RIJCOSX, COSX-SCS-MP3, EOM
   Christian Kollmar      : KDIIS, OOCD, Brueckner-CCSD(T), CCSD density
   Simone Kossmann        : Meta GGA functionals, TD-DFT gradient, OOMP2, MP2 Hessian
   Martin Krupicka        : AUTO-CI
   Lucas Lang             : DCDCAS
   Dagmar Lenk            : GEPOL surface, SMD
   Dimitrios Liakos       : Extrapolation schemes; Compound Job, initial MDCI parallelization
   Dimitrios Manganas     : Further ROCIS development; embedding schemes
   Dimitrios Pantazis     : SARC Basis sets
   Taras Petrenko         : DFT Hessian,TD-DFT gradient, ASA, ECA, R-Raman, ABS, FL, XAS/XES, NRVS
   Peter Pinski           : DLPNO-MP2, DLPNO-MP2 Gradient
   Christoph Reimann      : Effective Core Potentials
   Marius Retegan         : Local ZFS, SOC
   Christoph Riplinger    : Optimizer, TS searches, QM/MM, DLPNO-CCSD(T), (RO)-DLPNO pert. Triples
   Tobias Risthaus        : Range-separated hybrids, TD-DFT gradient, RPA, STAB
   Michael Roemelt        : Original ROCIS implementation
   Masaaki Saitow         : Open-shell DLPNO-CCSD energy and density
   Barbara Sandhoefer     : DKH picture change effects
   Avijit Sen             : IP-ROCIS
   Kantharuban Sivalingam : CASSCF convergence, NEVPT2, FIC-MRCI
   Bernardo de Souza      : ESD, SOC TD-DFT
   Georgi Stoychev        : AutoAux, RI-MP2 NMR
   Willem Van den Heuvel  : Paramagnetic NMR
   Boris Wezisla          : Elementary symmetry handling
   Frank Wennmohs         : Technical directorship


 We gratefully acknowledge several colleagues who have allowed us to
 interface, adapt or use parts of their codes:
   Stefan Grimme, W. Hujo, H. Kruse,             : VdW corrections, initial TS optimization,
                  C. Bannwarth                     DFT functionals, gCP, sTDA/sTD-DF
   Ed Valeev, F. Pavosevic, A. Kumar             : LibInt (2-el integral package), F12 methods
   Garnet Chan, S. Sharma, J. Yang, R. Olivares  : DMRG
   Ulf Ekstrom                                   : XCFun DFT Library
   Mihaly Kallay                                 : mrcc  (arbitrary order and MRCC methods)
   Andreas Klamt, Michael Diedenhofen            : otool_cosmo (COSMO solvation model)
   Jiri Pittner, Ondrej Demel                    : Mk-CCSD
   Frank Weinhold                                : gennbo (NPA and NBO analysis)
   Christopher J. Cramer and Donald G. Truhlar   : smd solvation model
   Lars Goerigk                                  : TD-DFT with DH, B97 family of functionals
   V. Asgeirsson, H. Jonsson                     : NEB implementation
   FAccTs GmbH                                   : IRC, NEB, NEB-TS, Multilevel, MM, QM/MM, CI optimization
   S Lehtola, MJT Oliveira, MAL Marques          : LibXC Library


 Your calculation uses the libint2 library for the computation of 2-el integrals
 For citations please refer to: http://libint.valeyev.net

 Your ORCA version has been built with support for libXC version: 4.2.3
 For citations please refer to: https://tddft.org/programs/libxc/

 This ORCA versions uses:
   CBLAS   interface :  Fast vector & matrix operations
   LAPACKE interface :  Fast linear algebra routines
   SCALAPACK package :  Parallel linear algebra routines


Your calculation utilizes the atom-pairwise dispersion correction
with the Becke-Johnson damping scheme (D3BJ)
Cite in your paper:
S.Grimme, S.Ehrlich, L.Goerigk, J Comput Chem, (2011), 32, 1456–1465 
S.Grimme, J.Antony, S.Ehrlich and H.Krieg, J.Chem.Phys., 132, (2010), 154104 
   

----- Orbital basis set information -----
Your calculation utilizes the basis: def2-TZVPPD
   F. Weigend and R. Ahlrichs, Phys. Chem. Chem. Phys. 7, 3297 (2005).
   D. Rappoport and F. Furche, J. Chem. Phys. 133 134105 (2010).

----- AuxJK basis set information -----
Your calculation utilizes the auxiliary basis: def2/JK
   H-Ba, Hf-Rn: F. Weigend, J. Comput. Chem. 29, 167 (2008).

cite the ECPs for Rh [Def2-ECP] as follows:
Ce-Yb(ecp-28): M. Dolg, H. Stoll, H.Preuss, J. Chem. Phys., 1989, 90, 1730-1734.
Y-Cd(ecp-28), Hf-Hg(ecp-46): D. Andrae,U. Haeussermann, M. Dolg, H. Stoll, H. Preuss, Theor. Chim. Acta, 1990, 77, 123-141.
In-Sb(ecp-28), Tl-Bi(ecp-46): B. Metz, H. Stoll, M. Dolg, J. Chem. Phys., 2000, 113, 2563-2569.
Te-Xe(ecp-28), Po-Rn(ecp-46): K. A. Peterson, D. Figgen, E. Goll, H. Stoll, M. Dolg, J. Chem. Phys., 2003, 119, 11113-11123.
Rb(ecp-28), Cs(ecp-46): T. Leininger, A. Nicklass, W. Kuechle, H. Stoll, M. Dolg, A. Bergner, Chem. Phys. Lett., 1996, 255, 274-280.
Sr(ecp-28), Ba(ecp-46): M. Kaupp, P. V. Schleyer, H. Stoll and H. Preuss, J. Chem. Phys., 1991, 94, 1360-1366.
La(ecp-46): M. Dolg, H. Stoll, A. Savin, H. Preuss, Theor. Chim. Acta, 1989, 75, 173-194.
Lu(ecp-28): X. Cao, M. Dolg, J. Chem. Phys., 2001, 115, 7348-7355.

ECP parameters for Rh [Def2-ECP] have been obtained from:
TURBOMOLE (7.0.2)

================================================================================
                                        WARNINGS
                       Please study these warnings very carefully!
================================================================================


INFO   : the flag for use of LIBINT has been found!

================================================================================
                                       INPUT FILE
================================================================================
NAME = MOR28_pr09.in
|  1> #
|  2> # MOR28_pr09 TPSSh-D3BJ/Def2-TZVPPD
|  3> #
|  4> ! tpssh d3bj def2-tzvppd def2/jk grid4 nofinalgrid
|  5> 
|  6> *xyz 0 1
|  7> Rh       0.002553    0.015324   -0.037445 
|  8> P       -2.290286    0.102034   -0.002141 
|  9> P        2.295185    0.104741   -0.029108 
| 10> H       -0.000447    1.293328    0.830281 
| 11> H        0.001130    1.304527   -0.889045 
| 12> Cl       0.007749   -2.380443   -0.037879 
| 13> C        3.048741    1.714400   -0.468454 
| 14> C        3.042509   -0.273930    1.598336 
| 15> C        3.097153   -1.069215   -1.172055 
| 16> C       -3.110022   -0.330980   -1.580554 
| 17> C       -3.050128   -1.025999    1.213911 
| 18> C       -3.019556    1.731005    0.405513 
| 19> C        4.221249    1.798414   -1.230361 
| 20> C        4.789108    3.041134   -1.513476 
| 21> C        4.197347    4.208872   -1.032572 
| 22> C        3.028536    4.131819   -0.272310 
| 23> C        2.452968    2.893237    0.001453 
| 24> H        4.686057    0.892043   -1.605584 
| 25> H        5.694526    3.094809   -2.111614 
| 26> H        4.640059    5.175809   -1.254830 
| 27> H        2.559280    5.038271    0.099833 
| 28> H        1.532532    2.831516    0.574445 
| 29> C        2.492740   -1.274577   -2.419700 
| 30> C        3.069210   -2.141848   -3.343202 
| 31> C        4.245283   -2.823200   -3.021963 
| 32> C        4.842886   -2.633499   -1.775820 
| 33> C        4.272633   -1.757382   -0.851682 
| 34> H        1.559916   -0.765736   -2.648777 
| 35> H        2.592837   -2.299617   -4.306681 
| 36> H        4.688326   -3.509606   -3.738122 
| 37> H        5.750981   -3.171899   -1.518950 
| 38> H        4.733770   -1.615306    0.121218 
| 39> C        2.573432   -1.401325    2.291237 
| 40> C        3.112349   -1.729837    3.532773 
| 41> C        4.110733   -0.934394    4.100320 
| 42> C        4.573407    0.190471    3.418246 
| 43> C        4.043987    0.520908    2.169837 
| 44> H        1.789551   -2.010529    1.847481 
| 45> H        2.746524   -2.605505    4.061892 
| 46> H        4.523765   -1.189174    5.072491 
| 47> H        5.347947    0.814312    3.855909 
| 48> H        4.408962    1.396682    1.642408 
| 49> C       -4.114004    1.861395    1.269146 
| 50> C       -4.661457    3.119187    1.526531 
| 51> C       -4.128475    4.254505    0.917253 
| 52> C       -3.037090    4.130954    0.054341 
| 53> C       -2.480194    2.878757   -0.192845 
| 54> H       -4.534614    0.980084    1.743054 
| 55> H       -5.505661    3.209295    2.204432 
| 56> H       -4.556024    5.232793    1.118339 
| 57> H       -2.613755    5.012384   -0.419158 
| 58> H       -1.618255    2.782567   -0.846864 
| 59> C       -4.156822    0.429958   -2.116482 
| 60> C       -4.751801    0.052668   -3.321119 
| 61> C       -4.309469   -1.085441   -3.994829 
| 62> C       -3.265632   -1.846455   -3.463206 
| 63> C       -2.661736   -1.471384   -2.265369 
| 64> H       -4.506373    1.315520   -1.594998 
| 65> H       -5.561640    0.650007   -3.730969 
| 66> H       -4.773990   -1.377169   -4.932751 
| 67> H       -2.915705   -2.732129   -3.986302 
| 68> H       -1.843939   -2.054854   -1.849211 
| 69> C       -2.377196   -1.225504    2.426817 
| 70> C       -2.923708   -2.054207    3.402951 
| 71> C       -4.138807   -2.701607    3.169380 
| 72> C       -4.805427   -2.517892    1.957599 
| 73> C       -4.264583   -1.681339    0.980942 
| 74> H       -1.416572   -0.742639    2.587014 
| 75> H       -2.394478   -2.207926    4.339105 
| 76> H       -4.559549   -3.357196    3.926721 
| 77> H       -5.744700   -3.030292    1.768738 
| 78> H       -4.779554   -1.544060    0.034665 
| 79> *
| 80> 
| 81> %maxcore 5000
| 82> 
| 83> %pal
| 84> nprocs = 24
| 85> end
| 86> 
| 87> 
| 88>                          ****END OF INPUT****
================================================================================

                       ****************************
                       * Single Point Calculation *
                       ****************************

---------------------------------
CARTESIAN COORDINATES (ANGSTROEM)
---------------------------------
  Rh     0.002553    0.015324   -0.037445
  P     -2.290286    0.102034   -0.002141
  P      2.295185    0.104741   -0.029108
  H     -0.000447    1.293328    0.830281
  H      0.001130    1.304527   -0.889045
  Cl     0.007749   -2.380443   -0.037879
  C      3.048741    1.714400   -0.468454
  C      3.042509   -0.273930    1.598336
  C      3.097153   -1.069215   -1.172055
  C     -3.110022   -0.330980   -1.580554
  C     -3.050128   -1.025999    1.213911
  C     -3.019556    1.731005    0.405513
  C      4.221249    1.798414   -1.230361
  C      4.789108    3.041134   -1.513476
  C      4.197347    4.208872   -1.032572
  C      3.028536    4.131819   -0.272310
  C      2.452968    2.893237    0.001453
  H      4.686057    0.892043   -1.605584
  H      5.694526    3.094809   -2.111614
  H      4.640059    5.175809   -1.254830
  H      2.559280    5.038271    0.099833
  H      1.532532    2.831516    0.574445
  C      2.492740   -1.274577   -2.419700
  C      3.069210   -2.141848   -3.343202
  C      4.245283   -2.823200   -3.021963
  C      4.842886   -2.633499   -1.775820
  C      4.272633   -1.757382   -0.851682
  H      1.559916   -0.765736   -2.648777
  H      2.592837   -2.299617   -4.306681
  H      4.688326   -3.509606   -3.738122
  H      5.750981   -3.171899   -1.518950
  H      4.733770   -1.615306    0.121218
  C      2.573432   -1.401325    2.291237
  C      3.112349   -1.729837    3.532773
  C      4.110733   -0.934394    4.100320
  C      4.573407    0.190471    3.418246
  C      4.043987    0.520908    2.169837
  H      1.789551   -2.010529    1.847481
  H      2.746524   -2.605505    4.061892
  H      4.523765   -1.189174    5.072491
  H      5.347947    0.814312    3.855909
  H      4.408962    1.396682    1.642408
  C     -4.114004    1.861395    1.269146
  C     -4.661457    3.119187    1.526531
  C     -4.128475    4.254505    0.917253
  C     -3.037090    4.130954    0.054341
  C     -2.480194    2.878757   -0.192845
  H     -4.534614    0.980084    1.743054
  H     -5.505661    3.209295    2.204432
  H     -4.556024    5.232793    1.118339
  H     -2.613755    5.012384   -0.419158
  H     -1.618255    2.782567   -0.846864
  C     -4.156822    0.429958   -2.116482
  C     -4.751801    0.052668   -3.321119
  C     -4.309469   -1.085441   -3.994829
  C     -3.265632   -1.846455   -3.463206
  C     -2.661736   -1.471384   -2.265369
  H     -4.506373    1.315520   -1.594998
  H     -5.561640    0.650007   -3.730969
  H     -4.773990   -1.377169   -4.932751
  H     -2.915705   -2.732129   -3.986302
  H     -1.843939   -2.054854   -1.849211
  C     -2.377196   -1.225504    2.426817
  C     -2.923708   -2.054207    3.402951
  C     -4.138807   -2.701607    3.169380
  C     -4.805427   -2.517892    1.957599
  C     -4.264583   -1.681339    0.980942
  H     -1.416572   -0.742639    2.587014
  H     -2.394478   -2.207926    4.339105
  H     -4.559549   -3.357196    3.926721
  H     -5.744700   -3.030292    1.768738
  H     -4.779554   -1.544060    0.034665

----------------------------
CARTESIAN COORDINATES (A.U.)
----------------------------
  NO LB      ZA    FRAG     MASS         X           Y           Z
   0 Rh   17.0000*   0   102.910    0.004824    0.028958   -0.070761
   1 P    15.0000    0    30.974   -4.328013    0.192816   -0.004046
   2 P    15.0000    0    30.974    4.337271    0.197932   -0.055006
   3 H     1.0000    0     1.008   -0.000845    2.444036    1.569004
   4 H     1.0000    0     1.008    0.002135    2.465199   -1.680052
   5 Cl   17.0000    0    35.453    0.014643   -4.498385   -0.071581
   6 C     6.0000    0    12.011    5.761286    3.239746   -0.885250
   7 C     6.0000    0    12.011    5.749509   -0.517653    3.020417
   8 C     6.0000    0    12.011    5.852771   -2.020524   -2.214863
   9 C     6.0000    0    12.011   -5.877090   -0.625462   -2.986814
  10 C     6.0000    0    12.011   -5.763907   -1.938857    2.293959
  11 C     6.0000    0    12.011   -5.706134    3.271125    0.766309
  12 C     6.0000    0    12.011    7.977005    3.398510   -2.325045
  13 C     6.0000    0    12.011    9.050103    5.746910   -2.860055
  14 C     6.0000    0    12.011    7.931836    7.953615   -1.951278
  15 C     6.0000    0    12.011    5.723104    7.808006   -0.514591
  16 C     6.0000    0    12.011    4.635438    5.467426    0.002746
  17 H     1.0000    0     1.008    8.855364    1.685717   -3.034114
  18 H     1.0000    0     1.008   10.761095    5.848341   -3.990372
  19 H     1.0000    0     1.008    8.768441    9.780862   -2.371285
  20 H     1.0000    0     1.008    4.836338    9.520952    0.188657
  21 H     1.0000    0     1.008    2.896066    5.350790    1.085544
  22 C     6.0000    0    12.011    4.710596   -2.408601   -4.572570
  23 C     6.0000    0    12.011    5.799966   -4.047506   -6.317736
  24 C     6.0000    0    12.011    8.022422   -5.335075   -5.710682
  25 C     6.0000    0    12.011    9.151728   -4.976592   -3.355813
  26 C     6.0000    0    12.011    8.074106   -3.320971   -1.609446
  27 H     1.0000    0     1.008    2.947814   -1.447031   -5.005463
  28 H     1.0000    0     1.008    4.899752   -4.345646   -8.138448
  29 H     1.0000    0     1.008    8.859652   -6.632194   -7.064027
  30 H     1.0000    0     1.008   10.867779   -5.994020   -2.870400
  31 H     1.0000    0     1.008    8.945529   -3.052486    0.229069
  32 C     6.0000    0    12.011    4.863082   -2.648120    4.329810
  33 C     6.0000    0    12.011    5.881487   -3.268918    6.675973
  34 C     6.0000    0    12.011    7.768160   -1.765749    7.748482
  35 C     6.0000    0    12.011    8.642487    0.359938    6.459549
  36 C     6.0000    0    12.011    7.642028    0.984373    4.100398
  37 H     1.0000    0     1.008    3.381761   -3.799349    3.491233
  38 H     1.0000    0     1.008    5.190178   -4.923691    7.675863
  39 H     1.0000    0     1.008    8.548677   -2.247213    9.585619
  40 H     1.0000    0     1.008   10.106155    1.538827    7.286612
  41 H     1.0000    0     1.008    8.331731    2.639346    3.103701
  42 C     6.0000    0    12.011   -7.774341    3.517527    2.398338
  43 C     6.0000    0    12.011   -8.808877    5.894409    2.884726
  44 C     6.0000    0    12.011   -7.801687    8.039849    1.733357
  45 C     6.0000    0    12.011   -5.739268    7.806372    0.102690
  46 C     6.0000    0    12.011   -4.686887    5.440062   -0.364424
  47 H     1.0000    0     1.008   -8.569179    1.852090    3.293895
  48 H     1.0000    0     1.008  -10.404191    6.064689    4.165773
  49 H     1.0000    0     1.008   -8.609638    9.888546    2.113354
  50 H     1.0000    0     1.008   -4.939281    9.472033   -0.792094
  51 H     1.0000    0     1.008   -3.058059    5.258290   -1.600341
  52 C     6.0000    0    12.011   -7.855255    0.812503   -3.999571
  53 C     6.0000    0    12.011   -8.979603    0.099528   -6.276005
  54 C     6.0000    0    12.011   -8.143716   -2.051186   -7.549133
  55 C     6.0000    0    12.011   -6.171150   -3.489294   -6.544511
  56 C     6.0000    0    12.011   -5.029952   -2.780513   -4.280927
  57 H     1.0000    0     1.008   -8.515811    2.485973   -3.014109
  58 H     1.0000    0     1.008  -10.509976    1.228335   -7.050510
  59 H     1.0000    0     1.008   -9.021534   -2.602472   -9.321548
  60 H     1.0000    0     1.008   -5.509884   -5.162976   -7.533019
  61 H     1.0000    0     1.008   -3.484540   -3.883111   -3.494502
  62 C     6.0000    0    12.011   -4.492249   -2.315867    4.586020
  63 C     6.0000    0    12.011   -5.525007   -3.881889    6.430645
  64 C     6.0000    0    12.011   -7.821212   -5.105297    5.989260
  65 C     6.0000    0    12.011   -9.080941   -4.758126    3.699326
  66 C     6.0000    0    12.011   -8.058894   -3.177270    1.853712
  67 H     1.0000    0     1.008   -2.676933   -1.403384    4.888748
  68 H     1.0000    0     1.008   -4.524908   -4.172375    8.199720
  69 H     1.0000    0     1.008   -8.616299   -6.344181    7.420427
  70 H     1.0000    0     1.008  -10.855910   -5.726422    3.342430
  71 H     1.0000    0     1.008   -9.032048   -2.917851    0.065507
* core charge reduced due to ECP

--------------------------------
INTERNAL COORDINATES (ANGSTROEM)
--------------------------------
 Rh     0   0   0     0.000000000000     0.00000000     0.00000000
 P      1   0   0     2.294749589048     0.00000000     0.00000000
 P      1   2   0     2.294390200659   175.46790937     0.00000000
 H      1   2   3     1.544749699819    87.60182724    20.27659786
 H      1   2   4     1.545078949484    88.62653194   292.34270864
 Cl     1   2   4     2.395772673911    92.28991802   145.80580958
 C      3   1   4     1.830812292162   116.40245330   310.16438078
 C      3   1   4     1.830425868576   113.77426055    69.89215437
 C      3   1   4     1.824185628649   114.32655176   189.38302179
 C      2   1   4     1.830534302454   115.16556931   140.42172529
 C      2   1   4     1.824445335097   113.76730973   260.35690386
 C      2   1   4     1.830727460726   115.78948979    20.28869998
 C      7   3   1     1.400833908395   121.85418118   217.68935157
 C     13   7   3     1.395339007376   120.29196881   181.87192107
 C     14  13   7     1.394654715326   120.20335537     0.39327954
 C     15  14  13     1.396443563906   119.77990362   359.61865988
 C     16  15  14     1.392950133177   120.12627032   359.79694213
 H     13   7   3     1.085517004120   119.75725034     2.17890224
 H     14  13   7     1.086476795607   119.65987214   180.45550880
 H     15  14  13     1.086443599768   120.11611573   180.07062138
 H     16  15  14     1.086437680812   120.12996905   180.38926888
 H     17  16  15     1.085970415804   120.29490122   181.30616847
 C      9   3   1     1.401465900990   117.54756577    38.71278201
 C     23   9   3     1.391880954804   120.22220890   178.95920467
 C     24  23   9     1.396632644740   120.00849461     0.76629328
 C     25  24  23     1.394986806912   119.99114663   359.94047337
 C     26  25  24     1.395277938169   120.13014470   359.59454838
 H     23   9   3     1.086994043308   119.28288780   357.69523632
 H     24  23   9     1.086330555554   119.82369727   179.72803905
 H     25  24  23     1.086427176559   120.00030433   179.23154526
 H     26  25  24     1.086505078647   120.12281742   179.23296441
 H     27  26  25     1.085986801276   120.13009380   179.54379502
 C      8   3   1     1.403981664323   117.93762956    46.91908620
 C     33   8   3     1.392753857050   120.00440915   179.96392340
 C     34  33   8     1.397000277349   120.29029753     0.62777363
 C     35  34  33     1.394493972729   119.84827752   359.74530276
 C     36  35  34     1.395707411548   120.17360413   359.84387374
 H     33   8   3     1.087436583582   119.29461448     0.00000000
 H     34  33   8     1.086549259357   119.59818563   180.18509434
 H     35  34  33     1.086565568507   120.10850415   179.53504400
 H     36  35  34     1.086571997822   120.17344383   179.84223614
 H     37  36  35     1.085526692321   119.87219591   180.10519873
 C     12   2   1     1.400242813048   122.11035621   222.45359428
 C     43  12   2     1.395705033558   120.28088791   181.65678806
 C     44  43  12     1.394358796986   120.21561404     0.48444701
 C     45  44  43     1.396783156961   119.77482488   359.54402726
 C     46  45  44     1.392562889144   120.11039039   359.76950852
 H     43  12   2     1.085454118461   119.77193331     1.92144314
 H     44  43  12     1.086438958746   119.64315136   180.47883602
 H     45  44  43     1.086407445547   120.12471973   179.97483472
 H     46  45  44     1.086431162166   120.12884899   180.34087972
 H     47  46  45     1.086246844958   120.25356306   181.30496413
 C     10   2   1     1.400726847400   122.41631937   225.72440542
 C     53  10   2     1.395527877296   120.13383855   180.28238152
 C     54  53  10     1.394573360639   120.16030917     0.17610373
 C     55  54  53     1.396911237300   119.85177045   359.81679258
 C     56  55  54     1.392904200735   120.30139682   359.79824218
 H     53  10   2     1.085519009369   120.00139571     0.32483229
 H     54  53  10     1.086568041745   119.65241460   180.14770669
 H     55  54  53     1.086546208640   120.03489159   180.01699768
 H     56  55  54     1.086506679603   120.10076697   180.19369707
 H     57  56  55     1.087389835833   120.71001166   180.44286715
 C     11   2   1     1.401349594671   117.70577026    35.54878052
 C     63  11   2     1.392214643763   120.20483192   178.69125724
 C     64  63  11     1.396476907021   120.01613499     0.71407556
 C     65  64  63     1.395186947182   119.99782435     0.00000000
 C     66  65  64     1.395059873193   120.11766724   359.59213207
 H     63  11   2     1.087023530753   119.25378599   357.45762701
 H     64  63  11     1.086323264768   119.81517582   179.72500257
 H     65  64  63     1.086455778100   120.00756179   179.30181581
 H     66  65  64     1.086487922551   120.12813246   179.23434248
 H     67  66  65     1.086039048751   120.12957891   179.53830482

---------------------------
INTERNAL COORDINATES (A.U.)
---------------------------
 Rh     0   0   0     0.000000000000     0.00000000     0.00000000
 P      1   0   0     4.336448269229     0.00000000     0.00000000
 P      1   2   0     4.335769123599   175.46790937     0.00000000
 H      1   2   3     2.919153878116    87.60182724    20.27659786
 H      1   2   4     2.919776069811    88.62653194   292.34270864
 Cl     1   2   4     4.527354232825    92.28991802   145.80580958
 C      3   1   4     3.459733834804   116.40245330   310.16438078
 C      3   1   4     3.459003600054   113.77426055    69.89215437
 C      3   1   4     3.447211255581   114.32655176   189.38302179
 C      2   1   4     3.459208510387   115.16556931   140.42172529
 C      2   1   4     3.447702029643   113.76730973   260.35690386
 C      2   1   4     3.459573526622   115.78948979    20.28869998
 C      7   3   1     2.647192445977   121.85418118   217.68935157
 C     13   7   3     2.636808587919   120.29196881   181.87192107
 C     14  13   7     2.635515463348   120.20335537     0.39327954
 C     15  14  13     2.638895897259   119.77990362   359.61865988
 C     16  15  14     2.632294269913   120.12627032   359.79694213
 H     13   7   3     2.051329851502   119.75725034     2.17890224
 H     14  13   7     2.053143594558   119.65987214   180.45550880
 H     15  14  13     2.053080863513   120.11611573   180.07062138
 H     16  15  14     2.053069678308   120.12996905   180.38926888
 H     17  16  15     2.052186675410   120.29490122   181.30616847
 C      9   3   1     2.648386738900   117.54756577    38.71278201
 C     23   9   3     2.630273815600   120.22220890   178.95920467
 C     24  23   9     2.639253208253   120.00849461     0.76629328
 C     25  24  23     2.636143025497   119.99114663   359.94047337
 C     26  25  24     2.636693183842   120.13014470   359.59454838
 H     23   9   3     2.054121051055   119.28288780   357.69523632
 H     24  23   9     2.052867240908   119.82369727   179.72803905
 H     25  24  23     2.053049828146   120.00030433   179.23154526
 H     26  25  24     2.053197041757   120.12281742   179.23296441
 H     27  26  25     2.052217639464   120.13009380   179.54379502
 C      8   3   1     2.653140842617   117.93762956    46.91908620
 C     33   8   3     2.631923361788   120.00440915   179.96392340
 C     34  33   8     2.639947933202   120.29029753     0.62777363
 C     35  34  33     2.635211703861   119.84827752   359.74530276
 C     36  35  34     2.637504770910   120.17360413   359.84387374
 H     33   8   3     2.054957330977   119.29461448     0.00000000
 H     34  33   8     2.053280531200   119.59818563   180.18509434
 H     35  34  33     2.053311351027   120.10850415   179.53504400
 H     36  35  34     2.053323500670   120.17344383   179.84223614
 H     37  36  35     2.051348159549   119.87219591   180.10519873
 C     12   2   1     2.646075437653   122.11035621   222.45359428
 C     43  12   2     2.637500277159   120.28088791   181.65678806
 C     44  43  12     2.634956258727   120.21561404     0.48444701
 C     45  44  43     2.639537635130   119.77482488   359.54402726
 C     46  45  44     2.631562484744   120.11039039   359.76950852
 H     43  12   2     2.051211014829   119.77193331     1.92144314
 H     44  43  12     2.053072093252   119.64315136   180.47883602
 H     45  44  43     2.053012541938   120.12471973   179.97483472
 H     46  45  44     2.053057359852   120.12884899   180.34087972
 H     47  46  45     2.052709050807   120.25356306   181.30496413
 C     10   2   1     2.646990130017   122.41631937   225.72440542
 C     53  10   2     2.637165500342   120.13383855   180.28238152
 C     54  53  10     2.635361725271   120.16030917     0.17610373
 C     55  54  53     2.639779671893   119.85177045   359.81679258
 C     56  55  54     2.632207470178   120.30139682   359.79824218
 H     53  10   2     2.051333640873   120.00139571     0.32483229
 H     54  53  10     2.053316024770   119.65241460   180.14770669
 H     55  54  53     2.053274766179   120.03489159   180.01699768
 H     56  55  54     2.053200067125   120.10076697   180.19369707
 H     57  56  55     2.054868990534   120.71001166   180.44286715
 C     11   2   1     2.648166951810   117.70577026    35.54878052
 C     63  11   2     2.630904396347   120.20483192   178.69125724
 C     64  63  11     2.638958906614   120.01613499     0.71407556
 C     65  64  63     2.636521235795   119.99782435     0.00000000
 C     66  65  64     2.636281100758   120.11766724   359.59213207
 H     63  11   2     2.054176774251   119.25378599   357.45762701
 H     64  63  11     2.052853463319   119.81517582   179.72500257
 H     65  64  63     2.053103877225   120.00756179   179.30181581
 H     66  65  64     2.053164621435   120.12813246   179.23434248
 H     67  66  65     2.052316372883   120.12957891   179.53830482

---------------------
BASIS SET INFORMATION
---------------------
There are 5 groups of distinct atoms

 Group   1 Type Rh  : 7s7p6d2f1g contracted to 6s4p3d2f1g pattern {211111/4111/411/11/1}
 Group   2 Type P   : 15s9p4d1f contracted to 6s5p4d1f pattern {732111/51111/1111/1}
 Group   3 Type H   : 5s3p1d contracted to 3s3p1d pattern {311/111/1}
 Group   4 Type Cl  : 15s10p4d1f contracted to 6s6p4d1f pattern {732111/511111/1111/1}
 Group   5 Type C   : 12s6p3d1f contracted to 6s3p3d1f pattern {621111/411/111/1}

Atom   0Rh   basis set group =>   1
Atom   1P    basis set group =>   2
Atom   2P    basis set group =>   2
Atom   3H    basis set group =>   3
Atom   4H    basis set group =>   3
Atom   5Cl   basis set group =>   4
Atom   6C    basis set group =>   5
Atom   7C    basis set group =>   5
Atom   8C    basis set group =>   5
Atom   9C    basis set group =>   5
Atom  10C    basis set group =>   5
Atom  11C    basis set group =>   5
Atom  12C    basis set group =>   5
Atom  13C    basis set group =>   5
Atom  14C    basis set group =>   5
Atom  15C    basis set group =>   5
Atom  16C    basis set group =>   5
Atom  17H    basis set group =>   3
Atom  18H    basis set group =>   3
Atom  19H    basis set group =>   3
Atom  20H    basis set group =>   3
Atom  21H    basis set group =>   3
Atom  22C    basis set group =>   5
Atom  23C    basis set group =>   5
Atom  24C    basis set group =>   5
Atom  25C    basis set group =>   5
Atom  26C    basis set group =>   5
Atom  27H    basis set group =>   3
Atom  28H    basis set group =>   3
Atom  29H    basis set group =>   3
Atom  30H    basis set group =>   3
Atom  31H    basis set group =>   3
Atom  32C    basis set group =>   5
Atom  33C    basis set group =>   5
Atom  34C    basis set group =>   5
Atom  35C    basis set group =>   5
Atom  36C    basis set group =>   5
Atom  37H    basis set group =>   3
Atom  38H    basis set group =>   3
Atom  39H    basis set group =>   3
Atom  40H    basis set group =>   3
Atom  41H    basis set group =>   3
Atom  42C    basis set group =>   5
Atom  43C    basis set group =>   5
Atom  44C    basis set group =>   5
Atom  45C    basis set group =>   5
Atom  46C    basis set group =>   5
Atom  47H    basis set group =>   3
Atom  48H    basis set group =>   3
Atom  49H    basis set group =>   3
Atom  50H    basis set group =>   3
Atom  51H    basis set group =>   3
Atom  52C    basis set group =>   5
Atom  53C    basis set group =>   5
Atom  54C    basis set group =>   5
Atom  55C    basis set group =>   5
Atom  56C    basis set group =>   5
Atom  57H    basis set group =>   3
Atom  58H    basis set group =>   3
Atom  59H    basis set group =>   3
Atom  60H    basis set group =>   3
Atom  61H    basis set group =>   3
Atom  62C    basis set group =>   5
Atom  63C    basis set group =>   5
Atom  64C    basis set group =>   5
Atom  65C    basis set group =>   5
Atom  66C    basis set group =>   5
Atom  67H    basis set group =>   3
Atom  68H    basis set group =>   3
Atom  69H    basis set group =>   3
Atom  70H    basis set group =>   3
Atom  71H    basis set group =>   3
----------------------------------
AUXILIARY/JK BASIS SET INFORMATION
----------------------------------
There are 5 groups of distinct atoms

 Group   1 Type Rh  : 13s12p10d9f6g3h2i contracted to 11s10p9d8f6g3h2i pattern {31111111111/3111111111/211111111/21111111/111111/111/11}
 Group   2 Type P   : 16s12p10d4f1g contracted to 13s11p9d4f1g pattern {4111111111111/21111111111/211111111/1111/1}
 Group   3 Type H   : 4s2p2d contracted to 2s2p2d pattern {31/11/11}
 Group   4 Type Cl  : 16s12p10d4f1g contracted to 13s11p9d4f1g pattern {4111111111111/21111111111/211111111/1111/1}
 Group   5 Type C   : 14s10p6d2f1g contracted to 10s8p5d1f1g pattern {5111111111/31111111/21111/2/1}

Atom   0Rh   basis set group =>   1
Atom   1P    basis set group =>   2
Atom   2P    basis set group =>   2
Atom   3H    basis set group =>   3
Atom   4H    basis set group =>   3
Atom   5Cl   basis set group =>   4
Atom   6C    basis set group =>   5
Atom   7C    basis set group =>   5
Atom   8C    basis set group =>   5
Atom   9C    basis set group =>   5
Atom  10C    basis set group =>   5
Atom  11C    basis set group =>   5
Atom  12C    basis set group =>   5
Atom  13C    basis set group =>   5
Atom  14C    basis set group =>   5
Atom  15C    basis set group =>   5
Atom  16C    basis set group =>   5
Atom  17H    basis set group =>   3
Atom  18H    basis set group =>   3
Atom  19H    basis set group =>   3
Atom  20H    basis set group =>   3
Atom  21H    basis set group =>   3
Atom  22C    basis set group =>   5
Atom  23C    basis set group =>   5
Atom  24C    basis set group =>   5
Atom  25C    basis set group =>   5
Atom  26C    basis set group =>   5
Atom  27H    basis set group =>   3
Atom  28H    basis set group =>   3
Atom  29H    basis set group =>   3
Atom  30H    basis set group =>   3
Atom  31H    basis set group =>   3
Atom  32C    basis set group =>   5
Atom  33C    basis set group =>   5
Atom  34C    basis set group =>   5
Atom  35C    basis set group =>   5
Atom  36C    basis set group =>   5
Atom  37H    basis set group =>   3
Atom  38H    basis set group =>   3
Atom  39H    basis set group =>   3
Atom  40H    basis set group =>   3
Atom  41H    basis set group =>   3
Atom  42C    basis set group =>   5
Atom  43C    basis set group =>   5
Atom  44C    basis set group =>   5
Atom  45C    basis set group =>   5
Atom  46C    basis set group =>   5
Atom  47H    basis set group =>   3
Atom  48H    basis set group =>   3
Atom  49H    basis set group =>   3
Atom  50H    basis set group =>   3
Atom  51H    basis set group =>   3
Atom  52C    basis set group =>   5
Atom  53C    basis set group =>   5
Atom  54C    basis set group =>   5
Atom  55C    basis set group =>   5
Atom  56C    basis set group =>   5
Atom  57H    basis set group =>   3
Atom  58H    basis set group =>   3
Atom  59H    basis set group =>   3
Atom  60H    basis set group =>   3
Atom  61H    basis set group =>   3
Atom  62C    basis set group =>   5
Atom  63C    basis set group =>   5
Atom  64C    basis set group =>   5
Atom  65C    basis set group =>   5
Atom  66C    basis set group =>   5
Atom  67H    basis set group =>   3
Atom  68H    basis set group =>   3
Atom  69H    basis set group =>   3
Atom  70H    basis set group =>   3
Atom  71H    basis set group =>   3
-------------------------
ECP PARAMETER INFORMATION
-------------------------

 Group 1, Type Rh ECP Def2-ECP (replacing 28 core electrons, lmax=3)

Atom   0Rh   ECP group =>   1



           ************************************************************
           *        Program running with 24 parallel MPI-processes    *
           *              working on a common directory               *
           ************************************************************
------------------------------------------------------------------------------
                           ORCA GTO INTEGRAL CALCULATION
------------------------------------------------------------------------------

                         BASIS SET STATISTICS AND STARTUP INFO

 # of primitive gaussian shells          ... 1191
 # of primitive gaussian functions       ... 2771
 # of contracted shells                  ...  757
 # of contracted basis functions         ... 2079
 Highest angular momentum                ...    4
 Maximum contraction depth               ...    7
 Integral package used                   ... LIBINT
 Integral threshhold            Thresh   ...  1.000e-10
 Primitive cut-off              TCut     ...  1.000e-11


------------------------------ INTEGRAL EVALUATION ----------------------------


 * One electron integrals 

   ECP integrals                         ... done
 Pre-screening matrix                    ... done
 Shell pair data                         ... done (   0.063 sec)



           ************************************************************
           *        Program running with 24 parallel MPI-processes    *
           *              working on a common directory               *
           ************************************************************
-------------------------------------------------------------------------------
                                 ORCA SCF
-------------------------------------------------------------------------------

------------
SCF SETTINGS
------------
Hamiltonian:
 Density Functional     Method          .... DFT(GTOs)
 Exchange Functional    Exchange        .... TPSS
 Correlation Functional Correlation     .... TPSS
 LDA part of GGA corr.  LDAOpt          .... PW91-LDA
 Gradients option       PostSCFGGA      .... off
 Hybrid DFT is turned on
   Fraction HF Exchange ScalHFX         ....  0.100000
   Scaling of DF-GGA-X  ScalDFX         ....  0.900000
   Scaling of DF-GGA-C  ScalDFC         ....  1.000000
   Scaling of DF-LDA-C  ScalLDAC        ....  1.000000
   Perturbative correction              ....  0.000000
   Density functional embedding theory  .... OFF
   NL short-range parameter             ....  5.200000


General Settings:
 Integral files         IntName         .... MOR28_pr09
 Hartree-Fock type      HFTyp           .... RHF
 Total Charge           Charge          ....    0
 Multiplicity           Mult            ....    1
 Number of Electrons    NEL             ....  312
 Basis Dimension        Dim             .... 2079
 Nuclear Repulsion      ENuc            ....   5365.2837436785 Eh

Convergence Acceleration:
 DIIS                   CNVDIIS         .... on
   Start iteration      DIISMaxIt       ....    12
   Startup error        DIISStart       ....  0.200000
   # of expansion vecs  DIISMaxEq       ....     5
   Bias factor          DIISBfac        ....   1.050
   Max. coefficient     DIISMaxC        ....  10.000
 Newton-Raphson         CNVNR           .... off
 SOSCF                  CNVSOSCF        .... off
 Level Shifting         CNVShift        .... on
   Level shift para.    LevelShift      ....    0.2500
   Turn off err/grad.   ShiftErr        ....    0.0010
 Zerner damping         CNVZerner       .... off
 Static damping         CNVDamp         .... on
   Fraction old density DampFac         ....    0.7000
   Max. Damping (<1)    DampMax         ....    0.9800
   Min. Damping (>=0)   DampMin         ....    0.0000
   Turn off err/grad.   DampErr         ....    0.1000
 Fernandez-Rico         CNVRico         .... off

SCF Procedure:
 Maximum # iterations   MaxIter         ....   125
 SCF integral mode      SCFMode         .... Direct
   Integral package                     .... LIBINT
 Reset frequency        DirectResetFreq ....    20
 Integral Threshold     Thresh          ....  1.000e-10 Eh
 Primitive CutOff       TCut            ....  1.000e-11 Eh

Convergence Tolerance:
 Convergence Check Mode ConvCheckMode   .... Total+1el-Energy
 Convergence forced     ConvForced      .... 0
 Energy Change          TolE            ....  1.000e-06 Eh
 1-El. energy change                    ....  1.000e-03 Eh
 DIIS Error             TolErr          ....  1.000e-06


Diagonalization of the overlap matrix:
Smallest eigenvalue                        ... 2.955e-07
Time for diagonalization                   ...    0.557 sec
Threshold for overlap eigenvalues          ... 1.000e-08
Number of eigenvalues below threshold      ... 0
Time for construction of square roots      ...    0.637 sec
Total time needed                          ...    1.213 sec

-------------------
DFT GRID GENERATION
-------------------

General Integration Accuracy     IntAcc      ...  4.670
Radial Grid Type                 RadialGrid  ... Gauss-Chebyshev
Angular Grid (max. acc.)         AngularGrid ... Lebedev-302
Angular grid pruning method      GridPruning ... 3 (G Style)
Weight generation scheme         WeightScheme... Becke
Basis function cutoff            BFCut       ...    1.0000e-10
Integration weight cutoff        WCut        ...    1.0000e-14
Grids for H and He will be reduced by one unit

# of grid points (after initial pruning)     ... 363268 (   0.0 sec)
# of grid points (after weights+screening)   ... 308893 (   0.5 sec)
nearest neighbour list constructed           ...    0.0 sec
Grid point re-assignment to atoms done       ...    0.1 sec
Grid point division into batches done        ...    0.9 sec
Reduced shell lists constructed in    1.6 sec

Total number of grid points                  ...   308893
Total number of batches                      ...     4862
Average number of points per batch           ...       63
Average number of grid points per atom       ...     4290
Average number of shells per batch           ...   367.94 (48.60%)
Average number of basis functions per batch  ...   982.58 (47.26%)
Average number of large shells per batch     ...   246.85 (67.09%)
Average number of large basis fcns per batch ...   663.85 (67.56%)
Maximum spatial batch extension              ...   2.39,  2.29,  2.72 au
Average spatial batch extension              ...   0.04,  0.04,  0.04 au

Time for grid setup =    2.329 sec

------------------------------
INITIAL GUESS: MODEL POTENTIAL
------------------------------
Loading Hartree-Fock densities                     ... done
  calling /sw/apps/orca/orca_4_2_0_linux_x86-64_openmpi314/orca MOR28_pr09_atom45.inp > MOR28_pr09_atom45.out in order to generate an atomic fitting density for atom 0 (Rh with ECP) on-the-fly... 
    atom 0 (Rh), assumed electronic state with S=4: 1s2 2s2 2p6 3s2 3p6 4s2 3d10 4p6 5s2 4d7           ... done
Calculating cut-offs                               ... done
Setting up the integral package                    ... done
Initializing the effective Hamiltonian             ... done
Starting the Coulomb interaction                   ... done (   1.0 sec)
Reading the grid                                   ... done
Mapping shells                                     ... done
Starting the XC term evaluation                    ... done (   2.1 sec)
  promolecular density results
     # of electrons  =    339.984399097
     EX              =   -399.586790270
     EC              =    -12.469204043
     EX+EC           =   -412.055994313
Transforming the Hamiltonian                       ... done (   0.6 sec)
Diagonalizing the Hamiltonian                      ... done (   0.6 sec)
Back transforming the eigenvectors                 ... done (   0.2 sec)
Now organizing SCF variables                       ... done
                      ------------------
                      INITIAL GUESS DONE (   8.9 sec)
                      ------------------
--------------
SCF ITERATIONS
--------------
ITER       Energy         Delta-E        Max-DP      RMS-DP      [F,P]     Damp
               ***  Starting incremental Fock matrix formation  ***
  0  -2644.5586834116   0.000000000000 0.54289583  0.00250527  0.4509186 0.7000
  1  -2644.9275713194  -0.368887907728 0.44797885  0.00191587  0.3001064 0.7000
  2  -2645.0790074185  -0.151436099081 0.34627471  0.00136128  0.2040582 0.7000
                               ***Turning on DIIS***
  3  -2645.1647450994  -0.085737680948 0.23566447  0.00093042  0.1438399 0.7000
  4  -2645.2249197032  -0.060174603792 0.13545611  0.00067198  0.1020921 0.7000
  5  -2645.2675369924  -0.042617289172 0.36958817  0.00219451  0.0705718 0.0000
  6  -2645.3663545025  -0.098817510159 0.38646927  0.00202302  0.0063392 0.0000
  7  -2645.3663410529   0.000013449635 0.56082618  0.00309022  0.0094864 0.0000
  8  -2645.3665184613  -0.000177408390103.34050143  0.63658887  0.0003192 0.0000
  9  -2645.3919352296  -0.025416768332658034.85261465 2571.20157549  0.0018690 0.0000
 10 -1891784.2345126113-1889138.8425773817581650.11440836  6.06062602 14.4564325 0.7000
 11 -1888184.81497280463599.419539806666158877.59519600 489.59077947 14.5404588 0.7000
 12 -1996072.6049080347-107887.789935230045110969.85105799 342.88499461 12.8240052 0.7000
 13 -2064192.9425728777-68120.337664843071171365.15730402 530.67073166 11.4893747 0.7000
 14 -2214677.5086421939-150484.566069316119201571.08709847 846.91742332  9.6649546 0.7000
 15 -2911035.1110275327-696357.602385338861144618.40432841 514.46158823  7.3501519 0.7000
 16 -3370941.6178066297-459906.506779097021102979.46530107 368.72417828  5.5580275 0.7000
 17 -3728633.6146768024-357691.99687017267673060.75232055 262.98882493  4.0897352 0.7000
 18 -3990537.0580702880-261903.44339348562151579.84697660 186.35633367  2.9604450 0.7000
 19 -4179031.7049061209-188494.64683583285736210.24321465 131.56209102  2.1200543 0.7000
               *** Restarting incremental Fock matrix formation ***
                                   *** Resetting DIIS ***
 20 -4313611.4611047013-134579.75619858037724659.79772732 95.28629628  1.5074227 0.7000
 21 -4409300.3170970492-95688.85599234793317892.62978056 62.75813546  1.0670699 0.7000
 22 -4476466.8355342513-67166.51843720208912535.34172301 45.27315777  0.7521293 0.7000
 23 -4524026.1517721629-47559.3162379115828844.39091538 32.38072599  0.5290553 0.7000
 24 -4557532.2259394927-33506.0741673298186228.72541044 23.09805687  0.3715835 0.7000
 25 -4581103.9897636827-23571.7638241900134382.38330537 16.61695081  0.2607044 0.7000
 26 -4597669.0624046363-16565.0726409535863087.32064299 11.85922191  0.1827877 0.7000
 27 -4609298.0895644119-11629.0271597756072165.41157329  8.51021792  0.1280826 0.7000
 28 -4617458.3692239970-8160.2796595850965061.03747631 20.40473901  0.0897183 0.0000
 29 -4636577.1226672465-19118.753443249501361.54534997  1.47312729  0.0120808 0.0000
 30 -4636578.5473837191  -1.424716472626286.78712175  1.19872592  0.0027153 0.0000
 31 -4636579.0162330633  -0.46884934417986.22178170  0.37282322  0.0005864 0.0000
 32 -4636579.0507281115  -0.03449504822517.52765519  0.07845242  0.0002414 0.0000
 33 -4636579.0765419854  -0.02581387385718.98110803  0.06249584  0.0000805 0.0000
 34 -4636579.0876522465  -0.011110261083 8.18282084  0.02661052  0.0000248 0.0000
 35 -4636579.1030555256  -0.015403279103 0.73974516  0.00304912  0.0000073 0.0000
 36 -4636579.0747525431   0.028302982450 0.25934276  0.00115721  0.0000031 0.0000
                            ***DIIS convergence achieved***

               *****************************************************
               *                     SUCCESS                       *
               *           SCF CONVERGED AFTER  37 CYCLES          *
               *****************************************************


----------------
TOTAL SCF ENERGY
----------------

Total Energy       :     -4636579.06103305 Eh      -126167730.49418 eV

Components:
Nuclear Repulsion  :         5365.28374368 Eh          145996.79300 eV
Electronic Energy  :     -4641944.34477673 Eh      -126313727.28718 eV
One Electron Energy:        -9386.39285059 Eh         -255416.73460 eV
Two Electron Energy:     -4632557.95192613 Eh      -126058310.55258 eV

Virial components:
Potential Energy   :     -4637996.61447416 Eh      -126206304.08436 eV
Kinetic Energy     :         1417.55344111 Eh           38573.59018 eV
Virial Ratio       :         3271.83193238


DFT components:
N(Alpha)           :      156.136481493049 electrons
N(Beta)            :      156.136481493049 electrons
N(Total)           :      312.272962986097 electrons
E(X)               :      -86.426712741280 Eh       
E(C)               :      -10.074305210667 Eh       
E(XC)              :      -96.501017951946 Eh       
DFET-embed. en.    :        0.000000000000 Eh       

---------------
SCF CONVERGENCE
---------------

  Last Energy change         ...    1.3719e-02  Tolerance :   1.0000e-06
  Last MAX-Density change    ...    1.3006e-01  Tolerance :   1.0000e-05
  Last RMS-Density change    ...    5.6186e-04  Tolerance :   1.0000e-06
  Last DIIS Error            ...    7.9254e-07  Tolerance :   1.0000e-06

================================================================================
                                        WARNING
Check your MOs and check whether a frozen core calculation is appropriate
MO 0 should be a C  d core orbital but seems to be delocalized with a C  p orbital (51.4% vs. 47.4%)
================================================================================
================================================================================
                                        WARNING
Check your MOs and check whether a frozen core calculation is appropriate
MO 1 should be a C  d core orbital but seems to be delocalized with a C  p orbital (51.3% vs. 47.0%)
================================================================================
================================================================================
                                        WARNING
Check your MOs and check whether a frozen core calculation is appropriate
MO 2 should be a C  d core orbital but seems to be delocalized with a C  p orbital (63.0% vs. 31.9%)
================================================================================
================================================================================
                                        WARNING
Check your MOs and check whether a frozen core calculation is appropriate
MO 3 should be a C  d core orbital but seems to be delocalized with a C  p orbital (68.0% vs. 25.9%)
================================================================================
================================================================================
                                        WARNING
Check your MOs and check whether a frozen core calculation is appropriate
MO 4 should be a C  d core orbital but seems to be delocalized with a C  p orbital (63.6% vs. 28.9%)
================================================================================
================================================================================
                                        WARNING
Check your MOs and check whether a frozen core calculation is appropriate
MO 5 should be a C  d core orbital but seems to be delocalized with a C  p orbital (74.1% vs. 25.5%)
================================================================================
================================================================================
                                        WARNING
Check your MOs and check whether a frozen core calculation is appropriate
MO 6 should be a C  d core orbital but seems to be delocalized with a C  p orbital (68.7% vs. 19.1%)
================================================================================
================================================================================
                                        WARNING
Check your MOs and check whether a frozen core calculation is appropriate
MO 7 should be a C  d core orbital but seems to be delocalized with a C  s orbital (80.4% vs. 14.3%)
================================================================================
================================================================================
                                        WARNING
Check your MOs and check whether a frozen core calculation is appropriate
MO 8 should be a C  d core orbital but seems to be delocalized with a C  s orbital (75.0% vs. 13.0%)
================================================================================
================================================================================
                                        WARNING
Check your MOs and check whether a frozen core calculation is appropriate
MO 9 should be a C  d core orbital but seems to be delocalized with a C  p orbital (73.4% vs. 23.8%)
================================================================================
================================================================================
                                        WARNING
Check your MOs and check whether a frozen core calculation is appropriate
MO 10 should be a C  d core orbital but seems to be delocalized with a C  p orbital (72.9% vs. 21.6%)
================================================================================
================================================================================
                                        WARNING
Check your MOs and check whether a frozen core calculation is appropriate
MO 11 should be a C  d core orbital but seems to be delocalized with a C  p orbital (64.1% vs. 27.2%)
================================================================================
================================================================================
                                        WARNING
Check your MOs and check whether a frozen core calculation is appropriate
MO 12 should be a C  d core orbital but seems to be delocalized with a C  p orbital (63.5% vs. 28.0%)
================================================================================
================================================================================
                                        WARNING
Check your MOs and check whether a frozen core calculation is appropriate
MO 13 should be a C  d core orbital but seems to be delocalized with a C  p orbital (70.7% vs. 16.2%)
================================================================================
================================================================================
                                        WARNING
Check your MOs and check whether a frozen core calculation is appropriate
MO 14 should be a C  d core orbital but seems to be delocalized with a C  p orbital (64.7% vs. 21.2%)
================================================================================
================================================================================
                                        WARNING
Check your MOs and check whether a frozen core calculation is appropriate
MO 15 should be a C  d core orbital but seems to be delocalized with a C  p orbital (59.7% vs. 19.5%)
================================================================================
================================================================================
                                        WARNING
Check your MOs and check whether a frozen core calculation is appropriate
MO 16 should be a C  d core orbital but seems to be delocalized with a C  p orbital (68.1% vs. 20.2%)
================================================================================
================================================================================
                                        WARNING
Check your MOs and check whether a frozen core calculation is appropriate
MO 17 should be a C  d core orbital but seems to be delocalized with a C  p orbital (61.2% vs. 20.6%)
================================================================================
================================================================================
                                        WARNING
Check your MOs and check whether a frozen core calculation is appropriate
MO 18 should be a C  d core orbital but seems to be delocalized with a C  p orbital (66.8% vs. 23.5%)
================================================================================
================================================================================
                                        WARNING
Check your MOs and check whether a frozen core calculation is appropriate
MO 19 should be a C  d core orbital but seems to be delocalized with a C  p orbital (54.2% vs. 34.4%)
================================================================================
================================================================================
                                        WARNING
Check your MOs and check whether a frozen core calculation is appropriate
MO 20 should be a C  d core orbital but seems to be delocalized with a C  p orbital (54.5% vs. 21.7%)
================================================================================
================================================================================
                                        WARNING
Check your MOs and check whether a frozen core calculation is appropriate
MO 21 should be a C  d core orbital but seems to be delocalized with a C  p orbital (68.8% vs. 13.8%)
================================================================================
================================================================================
                                        WARNING
Check your MOs and check whether a frozen core calculation is appropriate
MO 22 should be a C  d core orbital but seems to be delocalized with a C  p orbital (57.2% vs. 19.9%)
================================================================================
================================================================================
                                        WARNING
Check your MOs and check whether a frozen core calculation is appropriate
MO 23 should be a C  d core orbital but seems to be delocalized with a C  p orbital (51.1% vs. 28.7%)
================================================================================
================================================================================
                                        WARNING
Check your MOs and check whether a frozen core calculation is appropriate
MO 24 should be a C  d core orbital but seems to be delocalized with a C  p orbital (59.0% vs. 15.2%)
================================================================================
================================================================================
                                        WARNING
Check your MOs and check whether a frozen core calculation is appropriate
MO 25 should be a C  d core orbital but seems to be delocalized with a C  p orbital (50.2% vs. 25.0%)
================================================================================
================================================================================
                                        WARNING
Check your MOs and check whether a frozen core calculation is appropriate
MO 26 should be a C  d core orbital but seems to be delocalized with a C  p orbital (50.6% vs. 20.6%)
================================================================================
================================================================================
                                        WARNING
Check your MOs and check whether a frozen core calculation is appropriate
MO 27 should be a C  d core orbital but seems to be delocalized with a P  d orbital (46.6% vs. 17.9%)
================================================================================
================================================================================
                                        WARNING
Check your MOs and check whether a frozen core calculation is appropriate
MO 28 should be a C  d core orbital but seems to be delocalized with a C  p orbital (63.8% vs. 14.8%)
================================================================================
================================================================================
                                        WARNING
Check your MOs and check whether a frozen core calculation is appropriate
MO 29 should be a C  d core orbital but seems to be delocalized with a P  d orbital (40.3% vs. 15.3%)
================================================================================
================================================================================
                                        WARNING
Check your MOs and check whether a frozen core calculation is appropriate
MO 30 should be a C  d core orbital but seems to be delocalized with a C  s orbital (54.9% vs. 14.1%)
================================================================================
================================================================================
                                        WARNING
Check your MOs and check whether a frozen core calculation is appropriate
MO 31 should be a C  d core orbital but seems to be delocalized with a C  p orbital (51.4% vs. 22.3%)
================================================================================
================================================================================
                                        WARNING
Check your MOs and check whether a frozen core calculation is appropriate
MO 32 should be a C  d core orbital but seems to be delocalized with a C  s orbital (47.2% vs. 15.7%)
================================================================================
================================================================================
                                        WARNING
Check your MOs and check whether a frozen core calculation is appropriate
MO 33 should be a C  d core orbital but seems to be delocalized with a C  p orbital (46.1% vs. 16.6%)
================================================================================
================================================================================
                                        WARNING
Check your MOs and check whether a frozen core calculation is appropriate
MO 34 should be a C  d core orbital but seems to be delocalized with a C  p orbital (49.5% vs. 22.2%)
================================================================================
================================================================================
                                        WARNING
Check your MOs and check whether a frozen core calculation is appropriate
MO 35 should be a C  d core orbital but seems to be delocalized with a C  s orbital (52.9% vs. 13.9%)
================================================================================
*** Error in `/sw/apps/orca/orca_4_2_0_linux_x86-64_openmpi314/orca_scf_mpi': free(): invalid next size (fast): 0x000000000a52ec80 ***
*** Error in `/sw/apps/orca/orca_4_2_0_linux_x86-64_openmpi314/orca_scf_mpi': corrupted size vs. prev_size: 0x0000000009f367f0 ***
*** Error in `/sw/apps/orca/orca_4_2_0_linux_x86-64_openmpi314/orca_scf_mpi': corrupted size vs. prev_size: 0x000000000a7f16b0 ***
*** Error in `/sw/apps/orca/orca_4_2_0_linux_x86-64_openmpi314/orca_scf_mpi': corrupted size vs. prev_size: 0x000000000b052430 ***
*** Error in `/sw/apps/orca/orca_4_2_0_linux_x86-64_openmpi314/orca_scf_mpi': free(): invalid next size (fast): 0x000000000b244100 ***
*** Error in `/sw/apps/orca/orca_4_2_0_linux_x86-64_openmpi314/orca_scf_mpi': free(): invalid next size (fast): 0x000000000b64cd40 ***
*** Error in `/sw/apps/orca/orca_4_2_0_linux_x86-64_openmpi314/orca_scf_mpi': free(): invalid next size (fast): 0x000000000bb8e620 ***
*** Error in `/sw/apps/orca/orca_4_2_0_linux_x86-64_openmpi314/orca_scf_mpi': free(): invalid next size (fast): 0x000000000ba7bd00 ***
*** Error in `/sw/apps/orca/orca_4_2_0_linux_x86-64_openmpi314/orca_scf_mpi': free(): invalid next size (fast): 0x000000000bfa5a80 ***
*** Error in `/sw/apps/orca/orca_4_2_0_linux_x86-64_openmpi314/orca_scf_mpi': corrupted size vs. prev_size: 0x000000000b8b5a70 ***
*** Error in `/sw/apps/orca/orca_4_2_0_linux_x86-64_openmpi314/orca_scf_mpi': free(): invalid next size (fast): 0x000000000a95ac80 ***
*** Error in `/sw/apps/orca/orca_4_2_0_linux_x86-64_openmpi314/orca_scf_mpi': free(): invalid next size (fast): 0x000000000a9b9ea0 ***
*** Error in `/sw/apps/orca/orca_4_2_0_linux_x86-64_openmpi314/orca_scf_mpi': corrupted size vs. prev_size: 0x000000000a7cae90 ***
*** Error in `/sw/apps/orca/orca_4_2_0_linux_x86-64_openmpi314/orca_scf_mpi': free(): invalid next size (fast): 0x000000000b3240e0 ***
*** Error in `/sw/apps/orca/orca_4_2_0_linux_x86-64_openmpi314/orca_scf_mpi': corrupted size vs. prev_size: 0x000000000a158e10 ***
*** Error in `/sw/apps/orca/orca_4_2_0_linux_x86-64_openmpi314/orca_scf_mpi': corrupted size vs. prev_size: 0x000000000a24c9f0 ***
*** Error in `/sw/apps/orca/orca_4_2_0_linux_x86-64_openmpi314/orca_scf_mpi': free(): invalid next size (fast): 0x000000000a313ba0 ***
*** Error in `/sw/apps/orca/orca_4_2_0_linux_x86-64_openmpi314/orca_scf_mpi': free(): invalid next size (fast): 0x000000000bd98fe0 ***
*** Error in `/sw/apps/orca/orca_4_2_0_linux_x86-64_openmpi314/orca_scf_mpi': free(): invalid next size (fast): 0x000000000aedca80 ***
*** Error in `/sw/apps/orca/orca_4_2_0_linux_x86-64_openmpi314/orca_scf_mpi': corrupted size vs. prev_size: 0x000000000a1c05b0 ***
*** Error in `/sw/apps/orca/orca_4_2_0_linux_x86-64_openmpi314/orca_scf_mpi': corrupted size vs. prev_size: 0x000000000a5f1130 ***
*** Error in `/sw/apps/orca/orca_4_2_0_linux_x86-64_openmpi314/orca_scf_mpi': free(): invalid next size (fast): 0x000000000a89ffe0 ***
*** Error in `/sw/apps/orca/orca_4_2_0_linux_x86-64_openmpi314/orca_scf_mpi': free(): invalid next size (fast): 0x000000000a481f80 ***
================================================================================
                                        WARNING
Check your MOs and check whether a frozen core calculation is appropriate
MO 139 should be a P  s core orbital but seems to be delocalized with a C  p orbital (67.3% vs. 19.8%)
================================================================================
================================================================================
                                        WARNING
Number of found core electrons (78) does not match given number of chemical core electrons (102)
================================================================================

================================================================================
MOs in valence range (operator=0) identified as core orbitals.
Correct this by swapping MOs
================================================================================
                                        WARNING
Number of orbitals to swap in and swap out does not match (3, 3, 15)
SKIPPING Reordering!
================================================================================
*** Error in `/sw/apps/orca/orca_4_2_0_linux_x86-64_openmpi314/orca_scf_mpi': free(): invalid next size (fast): 0x000000000ab8ea00 ***
======= Backtrace: =========
======= Backtrace: =========
======= Backtrace: =========
/lib64/libc.so.6(+0x80ba7)[0x2b958d218ba7]
======= Backtrace: =========
/lib64/libc.so.6(+0x80ba7)[0x2b87e0ad7ba7]
======= Backtrace: =========
/lib64/libc.so.6(+0x81299)[0x2af9ec426299]
======= Backtrace: =========
======= Backtrace: =========
/lib64/libc.so.6(+0x80ba7)[0x2ac74287cba7]
======= Backtrace: =========
/lib64/libc.so.6(+0x81299)[0x2aab8c26b299]
/sw/apps/orca/orca_4_2_0_linux_x86-64_openmpi314/orca_scf_mpi[0x787ded]
/sw/apps/orca/orca_4_2_0_linux_x86-64_openmpi314/orca_scf_mpi[0xf19e44]
/sw/apps/orca/orca_4_2_0_linux_x86-64_openmpi314/orca_scf_mpi[0x46eae2]
/lib64/libc.so.6(+0x81299)[0x2b7e3e318299]
/sw/apps/orca/orca_4_2_0_linux_x86-64_openmpi314/orca_scf_mpi[0x787ded]
/sw/apps/orca/orca_4_2_0_linux_x86-64_openmpi314/orca_scf_mpi[0xf19e44]
/sw/apps/orca/orca_4_2_0_linux_x86-64_openmpi314/orca_scf_mpi[0x46eae2]
======= Backtrace: =========
/lib64/libc.so.6(+0x81299)[0x2b6f38eac299]
======= Backtrace: =========
======= Backtrace: =========
/lib64/libc.so.6(+0x80ba7)[0x2b03c9fa6ba7]
======= Backtrace: =========
======= Backtrace: =========
======= Backtrace: =========
/lib64/libc.so.6(+0x80ba7)[0x2aca3c03bba7]
======= Backtrace: =========
/lib64/libc.so.6(+0x81299)[0x2adeadf3b299]
/sw/apps/orca/orca_4_2_0_linux_x86-64_openmpi314/orca_scf_mpi[0x787ded]
======= Backtrace: =========
/lib64/libc.so.6(+0x80ba7)[0x2ac63f2d3ba7]
/lib64/libc.so.6(+0x81299)[0x2b455e3d6299]
/sw/apps/orca/orca_4_2_0_linux_x86-64_openmpi314/orca_scf_mpi[0x787ded]
/sw/apps/orca/orca_4_2_0_linux_x86-64_openmpi314/orca_scf_mpi[0xf19e44]
/sw/apps/orca/orca_4_2_0_linux_x86-64_openmpi314/orca_scf_mpi[0x46eae2]
/sw/apps/orca/orca_4_2_0_linux_x86-64_openmpi314/orca_scf_mpi[0x4704f1]
/sw/apps/orca/orca_4_2_0_linux_x86-64_openmpi314/orca_scf_mpi[0x4772cc]
/lib64/libc.so.6(__libc_start_main+0xf5)[0x2b455e377555]
/sw/apps/orca/orca_4_2_0_linux_x86-64_openmpi314/orca_scf_mpi[0x462839]
======= Memory map: ========
/sw/apps/orca/orca_4_2_0_linux_x86-64_openmpi314/orca_scf_mpi[0x4704f1]
/sw/apps/orca/orca_4_2_0_linux_x86-64_openmpi314/orca_scf_mpi[0x4772cc]
/lib64/libc.so.6(__libc_start_main+0xf5)[0x2af9ec3c7555]
/sw/apps/orca/orca_4_2_0_linux_x86-64_openmpi314/orca_scf_mpi[0x462839]
======= Memory map: ========
/lib64/libc.so.6(+0x81299)[0x2ad6b6393299]
/sw/apps/orca/orca_4_2_0_linux_x86-64_openmpi314/orca_scf_mpi[0x787ded]
/sw/apps/orca/orca_4_2_0_linux_x86-64_openmpi314/orca_scf_mpi[0xf19e44]
/sw/apps/orca/orca_4_2_0_linux_x86-64_openmpi314/orca_scf_mpi[0x46eae2]
/sw/apps/orca/orca_4_2_0_linux_x86-64_openmpi314/orca_scf_mpi[0x4704f1]
/sw/apps/orca/orca_4_2_0_linux_x86-64_openmpi314/orca_scf_mpi[0x4772cc]
======= Backtrace: =========
/lib64/libc.so.6(+0x8117e)[0x2ac74287d17e]
/sw/apps/orca/orca_4_2_0_linux_x86-64_openmpi314/orca_scf_mpi[0x73cc28]
/sw/apps/orca/orca_4_2_0_linux_x86-64_openmpi314/orca_scf_mpi[0xf19f50]
/sw/apps/orca/orca_4_2_0_linux_x86-64_openmpi314/orca_scf_mpi[0x46eae2]
/sw/apps/orca/orca_4_2_0_linux_x86-64_openmpi314/orca_scf_mpi[0x4704f1]
/lib64/libc.so.6(+0x8117e)[0x2b958d21917e]
/sw/apps/orca/orca_4_2_0_linux_x86-64_openmpi314/orca_scf_mpi[0x73cc28]
/sw/apps/orca/orca_4_2_0_linux_x86-64_openmpi314/orca_scf_mpi[0xf19f50]
/sw/apps/orca/orca_4_2_0_linux_x86-64_openmpi314/orca_scf_mpi[0x46eae2]
/sw/apps/orca/orca_4_2_0_linux_x86-64_openmpi314/orca_scf_mpi[0x4704f1]
/sw/apps/orca/orca_4_2_0_linux_x86-64_openmpi314/orca_scf_mpi[0x4772cc]
/lib64/libc.so.6(__libc_start_main+0xf5)[0x2b958d1ba555]
/sw/apps/orca/orca_4_2_0_linux_x86-64_openmpi314/orca_scf_mpi[0x462839]
======= Memory map: ========
======= Backtrace: =========
/lib64/libc.so.6(+0x80ba7)[0x2b6e40aa8ba7]
/lib64/libc.so.6(+0x8117e)[0x2b6e40aa917e]
======= Backtrace: =========
/lib64/libc.so.6(+0x80ba7)[0x2b7dcf073ba7]
/lib64/libc.so.6(+0x8117e)[0x2b7dcf07417e]
======= Backtrace: =========
/lib64/libc.so.6(+0x80ba7)[0x2b24e50e2ba7]
/lib64/libc.so.6(+0x8117e)[0x2b24e50e317e]
/lib64/libc.so.6(+0x8117e)[0x2b87e0ad817e]
/sw/apps/orca/orca_4_2_0_linux_x86-64_openmpi314/orca_scf_mpi[0x73cc28]
/sw/apps/orca/orca_4_2_0_linux_x86-64_openmpi314/orca_scf_mpi[0xf19f50]
/sw/apps/orca/orca_4_2_0_linux_x86-64_openmpi314/orca_scf_mpi[0x46eae2]
/sw/apps/orca/orca_4_2_0_linux_x86-64_openmpi314/orca_scf_mpi[0x4704f1]
/sw/apps/orca/orca_4_2_0_linux_x86-64_openmpi314/orca_scf_mpi[0x4772cc]
/lib64/libc.so.6(__libc_start_main+0xf5)[0x2b87e0a79555]
/sw/apps/orca/orca_4_2_0_linux_x86-64_openmpi314/orca_scf_mpi[0x462839]
======= Memory map: ========
======= Backtrace: =========
/lib64/libc.so.6(+0x81299)[0x2ba645400299]
/sw/apps/orca/orca_4_2_0_linux_x86-64_openmpi314/orca_scf_mpi[0x787ded]
/sw/apps/orca/orca_4_2_0_linux_x86-64_openmpi314/orca_scf_mpi[0xf19e44]
/sw/apps/orca/orca_4_2_0_linux_x86-64_openmpi314/orca_scf_mpi[0x46eae2]
/sw/apps/orca/orca_4_2_0_linux_x86-64_openmpi314/orca_scf_mpi[0x4704f1]
======= Backtrace: =========
/lib64/libc.so.6(+0x81299)[0x2b0de7252299]
/sw/apps/orca/orca_4_2_0_linux_x86-64_openmpi314/orca_scf_mpi[0x787ded]
/sw/apps/orca/orca_4_2_0_linux_x86-64_openmpi314/orca_scf_mpi[0xf19e44]
/sw/apps/orca/orca_4_2_0_linux_x86-64_openmpi314/orca_scf_mpi[0x46eae2]
/sw/apps/orca/orca_4_2_0_linux_x86-64_openmpi314/orca_scf_mpi[0x4704f1]
/sw/apps/orca/orca_4_2_0_linux_x86-64_openmpi314/orca_scf_mpi[0x787ded]
/sw/apps/orca/orca_4_2_0_linux_x86-64_openmpi314/orca_scf_mpi[0xf19e44]
/sw/apps/orca/orca_4_2_0_linux_x86-64_openmpi314/orca_scf_mpi[0x46eae2]
/sw/apps/orca/orca_4_2_0_linux_x86-64_openmpi314/orca_scf_mpi[0x4704f1]
/sw/apps/orca/orca_4_2_0_linux_x86-64_openmpi314/orca_scf_mpi[0x4772cc]
/lib64/libc.so.6(__libc_start_main+0xf5)[0x2aab8c20c555]
======= Backtrace: =========
/lib64/libc.so.6(+0x81299)[0x2b5bb72cb299]
/sw/apps/orca/orca_4_2_0_linux_x86-64_openmpi314/orca_scf_mpi[0x787ded]
/sw/apps/orca/orca_4_2_0_linux_x86-64_openmpi314/orca_scf_mpi[0xf19e44]
/sw/apps/orca/orca_4_2_0_linux_x86-64_openmpi314/orca_scf_mpi[0x46eae2]
/sw/apps/orca/orca_4_2_0_linux_x86-64_openmpi314/orca_scf_mpi[0x4704f1]
/sw/apps/orca/orca_4_2_0_linux_x86-64_openmpi314/orca_scf_mpi[0x4772cc]
/sw/apps/orca/orca_4_2_0_linux_x86-64_openmpi314/orca_scf_mpi[0x4704f1]
/sw/apps/orca/orca_4_2_0_linux_x86-64_openmpi314/orca_scf_mpi[0x4772cc]
/lib64/libc.so.6(__libc_start_main+0xf5)[0x2b7e3e2b9555]
/sw/apps/orca/orca_4_2_0_linux_x86-64_openmpi314/orca_scf_mpi[0x462839]
======= Memory map: ========
/sw/apps/orca/orca_4_2_0_linux_x86-64_openmpi314/orca_scf_mpi[0x787ded]
/sw/apps/orca/orca_4_2_0_linux_x86-64_openmpi314/orca_scf_mpi[0xf19e44]
/sw/apps/orca/orca_4_2_0_linux_x86-64_openmpi314/orca_scf_mpi[0x46eae2]
/sw/apps/orca/orca_4_2_0_linux_x86-64_openmpi314/orca_scf_mpi[0x4704f1]
/sw/apps/orca/orca_4_2_0_linux_x86-64_openmpi314/orca_scf_mpi[0x4772cc]
/lib64/libc.so.6(__libc_start_main+0xf5)[0x2b6f38e4d555]
/lib64/libc.so.6(+0x81299)[0x2ba4e1261299]
/sw/apps/orca/orca_4_2_0_linux_x86-64_openmpi314/orca_scf_mpi[0x787ded]
/sw/apps/orca/orca_4_2_0_linux_x86-64_openmpi314/orca_scf_mpi[0xf19e44]
/sw/apps/orca/orca_4_2_0_linux_x86-64_openmpi314/orca_scf_mpi[0x46eae2]
/sw/apps/orca/orca_4_2_0_linux_x86-64_openmpi314/orca_scf_mpi[0x4704f1]
/sw/apps/orca/orca_4_2_0_linux_x86-64_openmpi314/orca_scf_mpi[0x4772cc]
/lib64/libc.so.6(+0x8117e)[0x2b03c9fa717e]
/sw/apps/orca/orca_4_2_0_linux_x86-64_openmpi314/orca_scf_mpi[0x73cc28]
/sw/apps/orca/orca_4_2_0_linux_x86-64_openmpi314/orca_scf_mpi[0xf19f50]
/sw/apps/orca/orca_4_2_0_linux_x86-64_openmpi314/orca_scf_mpi[0x46eae2]
/sw/apps/orca/orca_4_2_0_linux_x86-64_openmpi314/orca_scf_mpi[0x4704f1]
/lib64/libc.so.6(+0x81299)[0x2b855da53299]
/sw/apps/orca/orca_4_2_0_linux_x86-64_openmpi314/orca_scf_mpi[0x787ded]
/sw/apps/orca/orca_4_2_0_linux_x86-64_openmpi314/orca_scf_mpi[0xf19e44]
/sw/apps/orca/orca_4_2_0_linux_x86-64_openmpi314/orca_scf_mpi[0x46eae2]
/sw/apps/orca/orca_4_2_0_linux_x86-64_openmpi314/orca_scf_mpi[0x4704f1]
/sw/apps/orca/orca_4_2_0_linux_x86-64_openmpi314/orca_scf_mpi[0x4772cc]
/lib64/libc.so.6(__libc_start_main+0xf5)[0x2b855d9f4555]
/lib64/libc.so.6(+0x81299)[0x2b5e10932299]
/sw/apps/orca/orca_4_2_0_linux_x86-64_openmpi314/orca_scf_mpi[0x787ded]
/sw/apps/orca/orca_4_2_0_linux_x86-64_openmpi314/orca_scf_mpi[0xf19e44]
/sw/apps/orca/orca_4_2_0_linux_x86-64_openmpi314/orca_scf_mpi[0x46eae2]
/sw/apps/orca/orca_4_2_0_linux_x86-64_openmpi314/orca_scf_mpi[0x4704f1]
/sw/apps/orca/orca_4_2_0_linux_x86-64_openmpi314/orca_scf_mpi[0x4772cc]
/lib64/libc.so.6(+0x8117e)[0x2aca3c03c17e]
/sw/apps/orca/orca_4_2_0_linux_x86-64_openmpi314/orca_scf_mpi[0x73cc28]
/sw/apps/orca/orca_4_2_0_linux_x86-64_openmpi314/orca_scf_mpi[0xf19f50]
/sw/apps/orca/orca_4_2_0_linux_x86-64_openmpi314/orca_scf_mpi[0x46eae2]
/sw/apps/orca/orca_4_2_0_linux_x86-64_openmpi314/orca_scf_mpi[0x4704f1]
/sw/apps/orca/orca_4_2_0_linux_x86-64_openmpi314/orca_scf_mpi[0x4772cc]
/lib64/libc.so.6(__libc_start_main+0xf5)[0x2aca3bfdd555]
/sw/apps/orca/orca_4_2_0_linux_x86-64_openmpi314/orca_scf_mpi[0xf19e44]
/sw/apps/orca/orca_4_2_0_linux_x86-64_openmpi314/orca_scf_mpi[0x46eae2]
/sw/apps/orca/orca_4_2_0_linux_x86-64_openmpi314/orca_scf_mpi[0x4704f1]
/sw/apps/orca/orca_4_2_0_linux_x86-64_openmpi314/orca_scf_mpi[0x4772cc]
/lib64/libc.so.6(__libc_start_main+0xf5)[0x2adeadedc555]
/sw/apps/orca/orca_4_2_0_linux_x86-64_openmpi314/orca_scf_mpi[0x462839]
======= Memory map: ========
/lib64/libc.so.6(+0x8117e)[0x2ac63f2d417e]
/sw/apps/orca/orca_4_2_0_linux_x86-64_openmpi314/orca_scf_mpi[0x73cc28]
/sw/apps/orca/orca_4_2_0_linux_x86-64_openmpi314/orca_scf_mpi[0xf19f50]
/sw/apps/orca/orca_4_2_0_linux_x86-64_openmpi314/orca_scf_mpi[0x46eae2]
/sw/apps/orca/orca_4_2_0_linux_x86-64_openmpi314/orca_scf_mpi[0x4704f1]
/sw/apps/orca/orca_4_2_0_linux_x86-64_openmpi314/orca_scf_mpi[0x4772cc]
/lib64/libc.so.6(__libc_start_main+0xf5)[0x2ad6b6334555]
/sw/apps/orca/orca_4_2_0_linux_x86-64_openmpi314/orca_scf_mpi[0x462839]
======= Memory map: ========
/lib64/libc.so.6(+0x81299)[0x2aeb0a055299]
/sw/apps/orca/orca_4_2_0_linux_x86-64_openmpi314/orca_scf_mpi[0x787ded]
/sw/apps/orca/orca_4_2_0_linux_x86-64_openmpi314/orca_scf_mpi[0xf19e44]
/sw/apps/orca/orca_4_2_0_linux_x86-64_openmpi314/orca_scf_mpi[0x46eae2]
/sw/apps/orca/orca_4_2_0_linux_x86-64_openmpi314/orca_scf_mpi[0x4704f1]
/sw/apps/orca/orca_4_2_0_linux_x86-64_openmpi314/orca_scf_mpi[0x4772cc]
/lib64/libc.so.6(__libc_start_main+0xf5)[0x2aeb09ff6555]
/sw/apps/orca/orca_4_2_0_linux_x86-64_openmpi314/orca_scf_mpi[0x4772cc]
/lib64/libc.so.6(__libc_start_main+0xf5)[0x2ac74281e555]
/sw/apps/orca/orca_4_2_0_linux_x86-64_openmpi314/orca_scf_mpi[0x462839]
======= Memory map: ========
/sw/apps/orca/orca_4_2_0_linux_x86-64_openmpi314/orca_scf_mpi[0x73cc28]
/sw/apps/orca/orca_4_2_0_linux_x86-64_openmpi314/orca_scf_mpi[0xf19f50]
/sw/apps/orca/orca_4_2_0_linux_x86-64_openmpi314/orca_scf_mpi[0x46eae2]
/sw/apps/orca/orca_4_2_0_linux_x86-64_openmpi314/orca_scf_mpi[0x4704f1]
/sw/apps/orca/orca_4_2_0_linux_x86-64_openmpi314/orca_scf_mpi[0x4772cc]
/lib64/libc.so.6(__libc_start_main+0xf5)[0x2b6e40a4a555]
/sw/apps/orca/orca_4_2_0_linux_x86-64_openmpi314/orca_scf_mpi[0x462839]
======= Memory map: ========
/sw/apps/orca/orca_4_2_0_linux_x86-64_openmpi314/orca_scf_mpi[0x73cc28]
/sw/apps/orca/orca_4_2_0_linux_x86-64_openmpi314/orca_scf_mpi[0xf19f50]
/sw/apps/orca/orca_4_2_0_linux_x86-64_openmpi314/orca_scf_mpi[0x46eae2]
/sw/apps/orca/orca_4_2_0_linux_x86-64_openmpi314/orca_scf_mpi[0x4704f1]
/sw/apps/orca/orca_4_2_0_linux_x86-64_openmpi314/orca_scf_mpi[0x4772cc]
/lib64/libc.so.6(__libc_start_main+0xf5)[0x2b7dcf015555]
/sw/apps/orca/orca_4_2_0_linux_x86-64_openmpi314/orca_scf_mpi[0x462839]
======= Memory map: ========
/sw/apps/orca/orca_4_2_0_linux_x86-64_openmpi314/orca_scf_mpi[0x73cc28]
/sw/apps/orca/orca_4_2_0_linux_x86-64_openmpi314/orca_scf_mpi[0xf19f50]
/sw/apps/orca/orca_4_2_0_linux_x86-64_openmpi314/orca_scf_mpi[0x46eae2]
/sw/apps/orca/orca_4_2_0_linux_x86-64_openmpi314/orca_scf_mpi[0x4704f1]
/sw/apps/orca/orca_4_2_0_linux_x86-64_openmpi314/orca_scf_mpi[0x4772cc]
/lib64/libc.so.6(__libc_start_main+0xf5)[0x2b24e5084555]
/sw/apps/orca/orca_4_2_0_linux_x86-64_openmpi314/orca_scf_mpi[0x462839]
======= Memory map: ========
/sw/apps/orca/orca_4_2_0_linux_x86-64_openmpi314/orca_scf_mpi[0x4772cc]
[...]
2accad68c000-2accad88b000 ---p 00005000 00:29 27946630960                /sw/lib/openmpi-4.0.2/lib/pmix/mca_preg_native.so
2accad88b000-2accad88c000 r--p 00004000 00:29 27946630960                /sw/lib/openmpi-4.0.2/lib/pmix/mca_preg_native.so
2accad88c000-2accad88d000 rw-p 00005000 00:29 27946630960                /sw/lib/openmpi-4.0.2/lib/pmix/mca_preg_native.so
2accad88d000-2accad88f000 r-xp 00000000 00:29 27946630950                /sw/lib/openmpi-4.0.2/lib/pmix/mca_plog_default.so
2accad88f000-2accada8e000 ---p 00002000 00:29 27946630950                /sw/lib/openmpi-4.0.2/lib/pmix/mca_plog_default.so
2accada8e000-2accada8f000 r--p 00001000 00:29 27946630950                /sw/lib/openmpi-4.0.2/lib/pmix/mca_plog_default.so
2accada8f000-2accada90000 rw-p 00002000 00:29 27946630950                /sw/lib/openmpi-4.0.2/lib/pmix/mca_plog_default.so
2accada90000-2accada91000 r-xp 00000000 00:29 27946630952                /sw/lib/openmpi-4.0.2/lib/pmix/mca_plog_stdfd.so
2accada91000-2accadc90000 ---p 00001000 00:29 27946630952                /sw/lib/openmpi-4.0.2/lib/pmix/mca_plog_stdfd.so
2accadc90000-2accadc91000 r--p 00000000 00:29 27946630952                /sw/lib/openmpi-4.0.2/lib/pmix/mca_plog_stdfd.so
2accadc91000-2accadc92000 rw-p 00001000 00:29 27946630952                /sw/lib/openmpi-4.0.2/lib/pmix/mca_plog_stdfd.so
2accadc92000-2accadc94000 r-xp 00000000 00:29 27946630954                /sw/lib/openmpi-4.0.2/lib/pmix/mca_plog_syslog.so
2accadc94000-2accade93000 ---p 00002000 00:29 27946630954                /sw/lib/openmpi-4.0.2/lib/pmix/mca_plog_syslog.so
2accade93000-2accade94000 r--p 00001000 00:29 27946630954                /sw/lib/openmpi-4.0.2/lib/pmix/mca_plog_syslog.so
2accade94000-2accade95000 rw-p 00002000 00:29 27946630954                /sw/lib/openmpi-4.0.2/lib/pmix/mca_plog_syslog.so
2accade95000-2accade96000 ---p 00000000 00:00 0 
2accade96000-2accae096000 rw-p 00000000 00:00 0 
2accae096000-2accae496000 r--s 00000000 fd:01 10741593187                /tmp/pbs.3768643.bp1/ompi.bp1-compute00209.375339/pid.24880/pmix_dstor_ds21_24880/smseg-982581249-0
2accae496000-2accae896000 r--s 00000000 fd:01 10741593188                /tmp/pbs.3768643.bp1/ompi.bp1-compute00209.375339/pid.24880/pmix_dstor_ds21_24880/smdataseg-982581249-0
2accae896000-2accae898000 r-xp 00000000 00:29 23650205451                /sw/lib/openmpi-4.0.2/lib/openmpi/mca_state_app.so
2accae898000-2accaea97000 ---p 00002000 00:29 23650205451                /sw/lib/openmpi-4.0.2/lib/openmpi/mca_state_app.so
2accaea97000-2accaea98000 r--p 00001000 00:29 23650205451                /sw/lib/openmpi-4.0.2/lib/openmpi/mca_state_app.so
2accaea98000-2accaea99000 rw-p 00002000 00:29 23650205451                /sw/lib/openmpi-4.0.2/lib/openmpi/mca_state_app.so
2accaea99000-2accaea9b000 r-xp 00000000 00:29 23650199667                /sw/lib/openmpi-4.0.2/lib/openmpi/mca_errmgr_default_app.so
2accaea9b000-2accaec9a000 ---p 00002000 00:29 23650199667                /sw/lib/openmpi-4.0.2/lib/openmpi/mca_errmgr_default_app.so
2accaec9a000-2accaec9b000 r--p 00001000 00:29 23650199667                /sw/lib/openmpi-4.0.2/lib/openmpi/mca_errmgr_default_app.so
2accaec9b000-2accaec9c000 rw-p 00002000 00:29 23650199667                /sw/lib/openmpi-4.0.2/lib/openmpi/mca_errmgr_default_app.so
2accaec9c000-2accaec9e000 r-xp 00000000 00:29 23650199627                /sw/lib/openmpi-4.0.2/lib/openmpi/mca_allocator_basic.so
2accaec9e000-2accaee9e000 ---p 00002000 00:29 23650199627                /sw/lib/openmpi-4.0.2/lib/openmpi/mca_allocator_basic.so
2accaee9e000-2accaee9f000 r--p 00002000 00:29 23650199627                /sw/lib/openmpi-4.0.2/lib/openmpi/mca_allocator_basic.so
2accaee9f000-2accaeea0000 rw-p 00003000 00:29 23650199627                /sw/lib/openmpi-4.0.2/lib/openmpi/mca_allocator_basic.so
2accaeea0000-2accaeea2000 r-xp 00000000 00:29 23650199629                /sw/lib/openmpi-4.0.2/lib/openmpi/mca_allocator_bucket.so
2accaeea2000-2accaf0a1000 ---p 00002000 00:29 23650199629                /sw/lib/openmpi-4.0.2/lib/openmpi/mca_allocator_bucket.so
2accaf0a1000-2accaf0a2000 r--p 00001000 00:29 23650199629                /sw/lib/openmpi-4.0.2/lib/openmpi/mca_allocator_bucket.so
2accaf0a2000-2accaf0a3000 rw-p 00002000 00:29 23650199629                /sw/lib/openmpi-4.0.2/lib/openmpi/mca_allocator_bucket.so
2accaf0a3000-2accaf0a6000 r-xp 00000000 00:29 23650199657                /sw/lib/openmpi-4.0.2/lib/openmpi/mca_rcache_grdma.so
2accaf0a6000-2accaf2a6000 ---p 00003000 00:29 23650199657                /sw/lib/openmpi-4.0.2/lib/openmpi/mca_rcache_grdma.so
2accaf2a6000-2accaf2a7000 r--p 00003000 00:29 23650199657                /sw/lib/openmpi-4.0.2/lib/openmpi/mca_rcache_grdma.so
2accaf2a7000-2accaf2a8000 rw-p 00004000 00:29 23650199657                /sw/lib/openmpi-4.0.2/lib/openmpi/mca_rcache_grdma.so
2accaf2a8000-2accaf2ab000 r-xp 00000000 00:29 23650199645                /sw/lib/openmpi-4.0.2/lib/openmpi/mca_mpool_hugepage.so
2accaf2ab000-2accaf4aa000 ---p 00003000 00:29 23650199645                /sw/lib/openmpi-4.0.2/lib/openmpi/mca_mpool_hugepage.so
2accaf4aa000-2accaf4ab000 r--p 00002000 00:29 23650199645                /sw/lib/openmpi-4.0.2/lib/openmpi/mca_mpool_hugepage.so
2accaf4ab000-2accaf4ac000 rw-p 00003000 00:29 23650199645                /sw/lib/openmpi-4.0.2/lib/openmpi/mca_mpool_hugepage.so
2accaf4ac000-2accaf4b0000 r-xp 00000000 00:29 23650205463                /sw/lib/openmpi-4.0.2/lib/openmpi/mca_bml_r2.so
2accaf4b0000-2accaf6af000 ---p 00004000 00:29 23650205463                /sw/lib/openmpi-4.0.2/lib/openmpi/mca_bml_r2.so
2accaf6af000-2accaf6b0000 r--p 00003000 00:29 23650205463                /sw/lib/openmpi-4.0.2/lib/openmpi/mca_bml_r2.so
2accaf6b0000-2accaf6b1000 rw-p 00004000 00:29 23650205463                /sw/lib/openmpi-4.0.2/lib/openmpi/mca_bml_r2.so
2accaf6b1000-2accaf6b4000 r-xp 00000000 00:29 23650199631                /sw/lib/openmpi-4.0.2/lib/openmpi/mca_btl_self.so
2accaf6b4000-2accaf8b3000 ---p 00003000 00:29 23650199631                /sw/lib/openmpi-4.0.2/lib/openmpi/mca_btl_self.so
2accaf8b3000-2accaf8b4000 r--p 00002000 00:29 23650199631                /sw/lib/openmpi-4.0.2/lib/openmpi/mca_btl_self.so
2accaf8b4000-2accaf8b5000 rw-p 00003000 00:29 23650199631                /sw/lib/openmpi-4.0.2/lib/openmpi/mca_btl_self.so
2accaf8b5000-2accaf8b6000 r-xp 00000000 00:29 23650199633                /sw/lib/openmpi-4.0.2/lib/openmpi/mca_btl_sm.so
2accaf8b6000-2accafab5000 ---p 00001000 00:29 23650199633                /sw/lib/openmpi-4.0.2/lib/openmpi/mca_btl_sm.so
2accafab5000-2accafab6000 r--p 00000000 00:29 23650199633                /sw/lib/openmpi-4.0.2/lib/openmpi/mca_btl_sm.so
2accafab6000-2accafab7000 rw-p 00001000 00:29 23650199633                /sw/lib/openmpi-4.0.2/lib/openmpi/mca_btl_sm.so
2accafab7000-2accafac7000 r-xp 00000000 00:29 23650199635                /sw/lib/openmpi-4.0.2/lib/openmpi/mca_btl_tcp.so
2accafac7000-2accafcc6000 ---p 00010000 00:29 23650199635                /sw/lib/openmpi-4.0.2/lib/openmpi/mca_btl_tcp.so
2accafcc6000-2accafcc7000 r--p 0000f000 00:29 23650199635                /sw/lib/openmpi-4.0.2/lib/openmpi/mca_btl_tcp.so
2accafcc7000-2accafcc9000 rw-p 00010000 00:29 23650199635                /sw/lib/openmpi-4.0.2/lib/openmpi/mca_btl_tcp.so
2accafcc9000-2accafcd3000 r-xp 00000000 00:29 23650199637                /sw/lib/openmpi-4.0.2/lib/openmpi/mca_btl_vader.so
2accafcd3000-2accafed2000 ---p 0000a000 00:29 23650199637                /sw/lib/openmpi-4.0.2/lib/openmpi/mca_btl_vader.so
2accafed2000-2accafed3000 r--p 00009000 00:29 23650199637                /sw/lib/openmpi-4.0.2/lib/openmpi/mca_btl_vader.so
2accafed3000-2accafed5000 rw-p 0000a000 00:29 23650199637                /sw/lib/openmpi-4.0.2/lib/openmpi/mca_btl_vader.so
2accb0000000-2accb0021000 rw-p 00000000 00:00 0 
2accb0021000-2accb4000000 ---p 00000000 00:00 0 
2accb4000000-2accb4401000 rw-s 00000000 00:13 8527496                    /dev/shm/vader_segment.bp1-compute00209.3a910001.22
2accb4401000-2accb4405000 r-xp 00000000 00:29 23650205467                /sw/lib/openmpi-4.0.2/lib/openmpi/mca_coll_inter.so
2accb4405000-2accb4604000 ---p 00004000 00:29 23650205467                /sw/lib/openmpi-4.0.2/lib/openmpi/mca_coll_inter.so
2accb4604000-2accb4605000 r--p 00003000 00:29 23650205467                /sw/lib/openmpi-4.0.2/lib/openmpi/mca_coll_inter.so
2accb4605000-2accb4606000 rw-p 00004000 00:29 23650205467                /sw/lib/openmpi-4.0.2/lib/openmpi/mca_coll_inter.so
2accb4606000-2accb4a07000 rw-s 00000000 00:13 8471909                    /dev/shm/vader_segment.bp1-compute00209.3a910001.0
2accb4a16000-2accb4a37000 r-xp 00000000 00:29 23650208263                /sw/lib/openmpi-4.0.2/lib/openmpi/mca_pml_ob1.so
2accb4a37000-2accb4c36000 ---p 00021000 00:29 23650208263                /sw/lib/openmpi-4.0.2/lib/openmpi/mca_pml_ob1.so
2accb4c36000-2accb4c37000 r--p 00020000 00:29 23650208263                /sw/lib/openmpi-4.0.2/lib/openmpi/mca_pml_ob1.so
2accb4c37000-2accb4c38000 rw-p 00021000 00:29 23650208263                /sw/lib/openmpi-4.0.2/lib/openmpi/mca_pml_ob1.so
2accb4c38000-2accb4c45000 r-xp 00000000 00:29 23650205465                /sw/lib/openmpi-4.0.2/lib/openmpi/mca_coll_basic.so
2accb4c45000-2accb4e44000 ---p 0000d000 00:29 23650205465                /sw/lib/openmpi-4.0.2/lib/openmpi/mca_coll_basic.so
2accb4e44000-2accb4e45000 r--p 0000c000 00:29 23650205465                /sw/lib/openmpi-4.0.2/lib/openmpi/mca_coll_basic.so
2accb4e45000-2accb4e46000 rw-p 0000d000 00:29 23650205465                /sw/lib/openmpi-4.0.2/lib/openmpi/mca_coll_basic.so
2accb4e46000-2accb4e65000 r-xp 00000000 00:29 23650205469                /sw/lib/openmpi-4.0.2/lib/openmpi/mca_coll_libnbc.so
2accb4e65000-2accb5064000 ---p 0001f000 00:29 23650205469                /sw/lib/openmpi-4.0.2/lib/openmpi/mca_coll_libnbc.so
2accb5064000-2accb5065000 r--p 0001e000 00:29 23650205469                /sw/lib/openmpi-4.0.2/lib/openmpi/mca_coll_libnbc.so
2accb5065000-2accb5066000 rw-p 0001f000 00:29 23650205469                /sw/lib/openmpi-4.0.2/lib/openmpi/mca_coll_libnbc.so
2accb5066000-2accb5068000 r-xp 00000000 00:29 23650205471                /sw/lib/openmpi-4.0.2/lib/openmpi/mca_coll_self.so
2accb5068000-2accb5268000 ---p 00002000 00:29 23650205471                /sw/lib/openmpi-4.0.2/lib/openmpi/mca_coll_self.so
2accb5268000-2accb5269000 r--p 00002000 00:29 23650205471                /sw/lib/openmpi-4.0.2/lib/openmpi/mca_coll_self.so
2accb5269000-2accb526a000 rw-p 00003000 00:29 23650205471                /sw/lib/openmpi-4.0.2/lib/openmpi/mca_coll_self.so
2accb526a000-2accb5270000 r-xp 00000000 00:29 23650205473                /sw/lib/openmpi-4.0.2/lib/openmpi/mca_coll_sm.so
2accb5270000-2accb546f000 ---p 00006000 00:29 23650205473                /sw/lib/openmpi-4.0.2/lib/openmpi/mca_coll_sm.so
2accb546f000-2accb5470000 r--p 00005000 00:29 23650205473                /sw/lib/openmpi-4.0.2/lib/openmpi/mca_coll_sm.so
2accb5470000-2accb5471000 rw-p 00006000 00:29 23650205473                /sw/lib/openmpi-4.0.2/lib/openmpi/mca_coll_sm.so
2accb5471000-2accb5473000 r-xp 00000000 00:29 21503616184                /sw/lib/openmpi-4.0.2/lib/libmca_common_sm.so.40.20.0
2accb5473000-2accb5672000 ---p 00002000 00:29 21503616184                /sw/lib/openmpi-4.0.2/lib/libmca_common_sm.so.40.20.0
2accb5672000-2accb5673000 r--p 00001000 00:29 21503616184                /sw/lib/openmpi-4.0.2/lib/libmca_common_sm.so.40.20.0
2accb5673000-2accb5674000 rw-p 00002000 00:29 21503616184                /sw/lib/openmpi-4.0.2/lib/libmca_common_sm.so.40.20.0
2accb5674000-2accb5677000 r-xp 00000000 00:29 23650205475                /sw/lib/openmpi-4.0.2/lib/openmpi/mca_coll_sync.so
2accb5677000-2accb5877000 ---p 00003000 00:29 23650205475                /sw/lib/openmpi-4.0.2/lib/openmpi/mca_coll_sync.so
2accb5877000-2accb5878000 r--p 00003000 00:29 23650205475                /sw/lib/openmpi-4.0.2/lib/openmpi/mca_coll_sync.so
2accb5878000-2accb5879000 rw-p 00004000 00:29 23650205475                /sw/lib/openmpi-4.0.2/lib/openmpi/mca_coll_sync.so
2accb5879000-2accb5889000 r-xp 00000000 00:29 23650205477                /sw/lib/openmpi-4.0.2/lib/openmpi/mca_coll_tuned.so
2accb5889000-2accb5a88000 ---p 00010000 00:29 23650205477                /sw/lib/openmpi-4.0.2/lib/openmpi/mca_coll_tuned.so
2accb5a88000-2accb5a89000 r--p 0000f000 00:29 23650205477                /sw/lib/openmpi-4.0.2/lib/openmpi/mca_coll_tuned.so
2accb5a89000-2accb5a8a000 rw-p 00010000 00:29 23650205477                /sw/lib/openmpi-4.0.2/lib/openmpi/mca_coll_tuned.so
2accb5c99000-2accb5c9f000 r-xp 00000000 00:29 23650205499                /sw/lib/openmpi-4.0.2/lib/openmpi/mca_osc_sm.so
2accb5c9f000-2accb5e9e000 ---p 00006000 00:29 23650205499                /sw/lib/openmpi-4.0.2/lib/openmpi/mca_osc_sm.so
2accb5e9e000-2accb5e9f000 r--p 00005000 00:29 23650205499                /sw/lib/openmpi-4.0.2/lib/openmpi/mca_osc_sm.so
2accb5e9f000-2accb5ea1000 rw-p 00006000 00:29 23650205499                /sw/lib/openmpi-4.0.2/lib/openmpi/mca_osc_sm.so
2accb60ac000-2accb60c7000 r-xp 00000000 00:29 23650205503                /sw/lib/openmpi-4.0.2/lib/openmpi/mca_osc_pt2pt.so
2accb60c7000-2accb62c6000 ---p 0001b000 00:29 23650205503                /sw/lib/openmpi-4.0.2/lib/openmpi/mca_osc_pt2pt.so
2accb62c6000-2accb62c7000 r--p 0001a000 00:29 23650205503                /sw/lib/openmpi-4.0.2/lib/openmpi/mca_osc_pt2pt.so
2accb62c7000-2accb62c8000 rw-p 0001b000 00:29 23650205503                /sw/lib/openmpi-4.0.2/lib/openmpi/mca_osc_pt2pt.so
2accb62c8000-2accb62e9000 r-xp 00000000 00:29 23650208257                /sw/lib/openmpi-4.0.2/lib/openmpi/mca_osc_rdma.so
2accb62e9000-2accb64e8000 ---p 00021000 00:29 23650208257                /sw/lib/openmpi-4.0.2/lib/openmpi/mca_osc_rdma.so
2accb64e8000-2accb64e9000 r--p 00020000 00:29 23650208257                /sw/lib/openmpi-4.0.2/lib/openmpi/mca_osc_rdma.so
2accb64e9000-2accb64ea000 rw-p 00021000 00:29 23650208257                /sw/lib/openmpi-4.0.2/lib/openmpi/mca_osc_rdma.so
2accb64ea000-2accb68eb000 rw-s 00000000 00:13 8621437                    /dev/shm/vader_segment.bp1-compute00209.3a910001.1
2accb68eb000-2accb6cec000 rw-s 00000000 00:13 8163099                    /dev/shm/vader_segment.bp1-compute00209.3a910001.2
2accb6cec000-2accb70ed000 rw-s 00000000 00:13 8620707                    /dev/shm/vader_segment.bp1-compute00209.3a910001.3
2accb70ed000-2accb74ee000 rw-s 00000000 00:13 8179675                    /dev/shm/vader_segment.bp1-compute00209.3a910001.4
2accb74ee000-2accb78ef000 rw-s 00000000 00:13 8292008                    /dev/shm/vader_segment.bp1-compute00209.3a910001.5
2accb78ef000-2accb7cf0000 rw-s 00000000 00:13 8607822                    /dev/shm/vader_segment.bp1-compute00209.3a910001.6
2accb7cf0000-2accb80f1000 rw-s 00000000 00:13 7759863                    /dev/shm/vader_segment.bp1-compute00209.3a910001.7
2accb80f1000-2accb84f2000 rw-s 00000000 00:13 8575217                    /dev/shm/vader_segment.bp1-compute00209.3a910001.8
2accb84f2000-2accb88f3000 rw-s 00000000 00:13 8552413                    /dev/shm/vader_segment.bp1-compute00209.3a910001.9
2accb88f3000-2accb8cf4000 rw-s 00000000 00:13 8568551                    /dev/shm/vader_segment.bp1-compute00209.3a910001.10
2accb8cf4000-2accb90f5000 rw-s 00000000 00:13 8631398                    /dev/shm/vader_segment.bp1-compute00209.3a910001.11
2accb90f5000-2accb94f6000 rw-s 00000000 00:13 8622753                    /dev/shm/vader_segment.bp1-compute00209.3a910001.12
2accb94f6000-2accb98f7000 rw-s 00000000 00:13 8633353                    /dev/shm/vader_segment.bp1-compute00209.3a910001.13
2accb98f7000-2accb9cf8000 rw-s 00000000 00:13 8511997                    /dev/shm/vader_segment.bp1-compute00209.3a910001.14
2accb9cf8000-2accba0f9000 rw-s 00000000 00:13 8605026                    /dev/shm/vader_segment.bp1-compute00209.3a910001.15
2accba0f9000-2accba4fa000 rw-s 00000000 00:13 8599786                    /dev/shm/vader_segment.bp1-compute00209.3a910001.16
2accba4fa000-2accba8fb000 rw-s 00000000 00:13 8598285                    /dev/shm/vader_segment.bp1-compute00209.3a910001.17
2accba8fb000-2accbacfc000 rw-s 00000000 00:13 8594752                    /dev/shm/vader_segment.bp1-compute00209.3a910001.18
2accbacfc000-2accbb0fd000 rw-s 00000000 00:13 8623305                    /dev/shm/vader_segment.bp1-compute00209.3a910001.19
2accbb0fd000-2accbb4fe000 rw-s 00000000 00:13 8602811                    /dev/shm/vader_segment.bp1-compute00209.3a910001.20
2accbb4fe000-2accbb8ff000 rw-s 00000000 00:13 8598665                    /dev/shm/vader_segment.bp1-compute00209.3a910001.21
2accbb8ff000-2accbbd00000 rw-s 00000000 00:13 8632424                    /dev/shm/vader_segment.bp1-compute00209.3a910001.23
2accbbd00000-2accbcd80000 rw-p 00000000 00:00 0 
2accbcd80000-2accbcd96000 r-xp 00000000 00:29 53687523181                /sw/lang/gcc-9.1.0/lib64/libgcc_s.so.1
2accbcd96000-2accbcf96000 ---p 00016000 00:29 53687523181                /sw/lang/gcc-9.1.0/lib64/libgcc_s.so.1
2accbcf96000-2accbcf97000 r--p 00016000 00:29 53687523181                /sw/lang/gcc-9.1.0/lib64/libgcc_s.so.1
2accbcf97000-2accbcf98000 rw-p 00017000 00:29 53687523181                /sw/lang/gcc-9.1.0/lib64/libgcc_s.so.1
2accbde00000-2accc1ffa000 rw-p 00000000 00:00 0 
2accc40f4000-2accc5174000 rw-p 00000000 00:00 0 
2accc691c000-2accc7be2000 rw-p 00000000 00:00 0 
2accc8000000-2accc8021000 rw-p 00000000 00:00 0 
2accc8021000-2acccc000000 ---p 00000000 00:00 0 
7ffc7f1af000-7ffc7f2e8000 rw-p 00000000 00:00 0                          [stack]
7ffc7f3a1000-7ffc7f3a3000 r-xp 00000000 00:00 0                          [vdso]
ffffffffff600000-ffffffffff601000 r-xp 00000000 00:00 0                  [vsyscall]
[bp1-compute00209:24926] *** Process received signal ***
[bp1-compute00209:24926] Signal: Aborted (6)
[bp1-compute00209:24926] Signal code:  (-6)
[bp1-compute00209:24926] [ 0] /lib64/libc.so.6(+0x36400)[0x2acca53d5400]
[bp1-compute00209:24926] [ 1] /lib64/libc.so.6(gsignal+0x37)[0x2acca53d5387]
[bp1-compute00209:24926] [ 2] /lib64/libc.so.6(abort+0x148)[0x2acca53d6a78]
[bp1-compute00209:24926] [ 3] /lib64/libc.so.6(+0x78ed7)[0x2acca5417ed7]
[bp1-compute00209:24926] [ 4] /lib64/libc.so.6(+0x81299)[0x2acca5420299]
[bp1-compute00209:24926] [ 5] /sw/apps/orca/orca_4_2_0_linux_x86-64_openmpi314/orca_scf_mpi[0x787ded]
[bp1-compute00209:24926] [ 6] /sw/apps/orca/orca_4_2_0_linux_x86-64_openmpi314/orca_scf_mpi[0xf19e44]
[bp1-compute00209:24926] [ 7] /sw/apps/orca/orca_4_2_0_linux_x86-64_openmpi314/orca_scf_mpi[0x46eae2]
[bp1-compute00209:24926] [ 8] /sw/apps/orca/orca_4_2_0_linux_x86-64_openmpi314/orca_scf_mpi[0x4704f1]
[bp1-compute00209:24926] [ 9] /sw/apps/orca/orca_4_2_0_linux_x86-64_openmpi314/orca_scf_mpi[0x4772cc]
[bp1-compute00209:24926] [10] /lib64/libc.so.6(__libc_start_main+0xf5)[0x2acca53c1555]
[bp1-compute00209:24926] [11] /sw/apps/orca/orca_4_2_0_linux_x86-64_openmpi314/orca_scf_mpi[0x462839]
[bp1-compute00209:24926] *** End of error message ***
--------------------------------------------------------------------------
Primary job  terminated normally, but 1 process returned
a non-zero exit code. Per user-direction, the job has been aborted.
--------------------------------------------------------------------------
--------------------------------------------------------------------------
mpirun noticed that process rank 1 with PID 0 on node bp1-compute00209 exited on signal 6 (Aborted).
--------------------------------------------------------------------------

ORCA finished by error termination in SCF
Calling Command: mpirun -np 24  /sw/apps/orca/orca_4_2_0_linux_x86-64_openmpi314/orca_scf_mpi MOR28_pr09.gbw b MOR28_pr09 
[file orca_tools/qcmsg.cpp, line 458]: 
  .... aborting the run

[file orca_tools/qcmsg.cpp, line 458]: 
  .... aborting the run

