
                                 *****************
                                 * O   R   C   A *
                                 *****************

           --- An Ab Initio, DFT and Semiempirical electronic structure package ---

                  #######################################################
                  #                        -***-                        #
                  #          Department of theory and spectroscopy      #
                  #               Directorship: Frank Neese             #
                  #        Max Planck Institute fuer Kohlenforschung    #
                  #                Kaiser Wilhelm Platz 1               #
                  #                 D-45470 Muelheim/Ruhr               #
                  #                      Germany                        #
                  #                                                     #
                  #                  All rights reserved                #
                  #                        -***-                        #
                  #######################################################


                         Program Version 4.2.0 -  RELEASE  -


 With contributions from (in alphabetic order):
   Daniel Aravena         : Magnetic Suceptibility
   Michael Atanasov       : Ab Initio Ligand Field Theory (pilot matlab implementation)
   Alexander A. Auer      : GIAO ZORA, VPT2
   Ute Becker             : Parallelization
   Giovanni Bistoni       : ED, misc. LED, open-shell LED, HFLED
   Martin Brehm           : Molecular dynamics
   Dmytro Bykov           : SCF Hessian
   Vijay G. Chilkuri      : MRCI spin determinant printing, contributions to CSF-ICE
   Dipayan Datta          : RHF DLPNO-CCSD density
   Achintya Kumar Dutta   : EOM-CC, STEOM-CC
   Dmitry Ganyushin       : Spin-Orbit,Spin-Spin,Magnetic field MRCI
   Miquel Garcia          : C-PCM Hessian, Gaussian charge scheme
   Yang Guo               : DLPNO-NEVPT2, CIM, IAO-localization
   Andreas Hansen         : Spin unrestricted coupled pair/coupled cluster methods
   Benjamin Helmich-Paris : CASSCF linear response (MC-RPA)
   Lee Huntington         : MR-EOM, pCC
   Robert Izsak           : Overlap fitted RIJCOSX, COSX-SCS-MP3, EOM
   Christian Kollmar      : KDIIS, OOCD, Brueckner-CCSD(T), CCSD density
   Simone Kossmann        : Meta GGA functionals, TD-DFT gradient, OOMP2, MP2 Hessian
   Martin Krupicka        : AUTO-CI
   Lucas Lang             : DCDCAS
   Dagmar Lenk            : GEPOL surface, SMD
   Dimitrios Liakos       : Extrapolation schemes; Compound Job, initial MDCI parallelization
   Dimitrios Manganas     : Further ROCIS development; embedding schemes
   Dimitrios Pantazis     : SARC Basis sets
   Taras Petrenko         : DFT Hessian,TD-DFT gradient, ASA, ECA, R-Raman, ABS, FL, XAS/XES, NRVS
   Peter Pinski           : DLPNO-MP2, DLPNO-MP2 Gradient
   Christoph Reimann      : Effective Core Potentials
   Marius Retegan         : Local ZFS, SOC
   Christoph Riplinger    : Optimizer, TS searches, QM/MM, DLPNO-CCSD(T), (RO)-DLPNO pert. Triples
   Tobias Risthaus        : Range-separated hybrids, TD-DFT gradient, RPA, STAB
   Michael Roemelt        : Original ROCIS implementation
   Masaaki Saitow         : Open-shell DLPNO-CCSD energy and density
   Barbara Sandhoefer     : DKH picture change effects
   Avijit Sen             : IP-ROCIS
   Kantharuban Sivalingam : CASSCF convergence, NEVPT2, FIC-MRCI
   Bernardo de Souza      : ESD, SOC TD-DFT
   Georgi Stoychev        : AutoAux, RI-MP2 NMR
   Willem Van den Heuvel  : Paramagnetic NMR
   Boris Wezisla          : Elementary symmetry handling
   Frank Wennmohs         : Technical directorship


 We gratefully acknowledge several colleagues who have allowed us to
 interface, adapt or use parts of their codes:
   Stefan Grimme, W. Hujo, H. Kruse,             : VdW corrections, initial TS optimization,
                  C. Bannwarth                     DFT functionals, gCP, sTDA/sTD-DF
   Ed Valeev, F. Pavosevic, A. Kumar             : LibInt (2-el integral package), F12 methods
   Garnet Chan, S. Sharma, J. Yang, R. Olivares  : DMRG
   Ulf Ekstrom                                   : XCFun DFT Library
   Mihaly Kallay                                 : mrcc  (arbitrary order and MRCC methods)
   Andreas Klamt, Michael Diedenhofen            : otool_cosmo (COSMO solvation model)
   Jiri Pittner, Ondrej Demel                    : Mk-CCSD
   Frank Weinhold                                : gennbo (NPA and NBO analysis)
   Christopher J. Cramer and Donald G. Truhlar   : smd solvation model
   Lars Goerigk                                  : TD-DFT with DH, B97 family of functionals
   V. Asgeirsson, H. Jonsson                     : NEB implementation
   FAccTs GmbH                                   : IRC, NEB, NEB-TS, Multilevel, MM, QM/MM, CI optimization
   S Lehtola, MJT Oliveira, MAL Marques          : LibXC Library


 Your calculation uses the libint2 library for the computation of 2-el integrals
 For citations please refer to: http://libint.valeyev.net

 Your ORCA version has been built with support for libXC version: 4.2.3
 For citations please refer to: https://tddft.org/programs/libxc/

 This ORCA versions uses:
   CBLAS   interface :  Fast vector & matrix operations
   LAPACKE interface :  Fast linear algebra routines
   SCALAPACK package :  Parallel linear algebra routines


Your calculation utilizes the atom-pairwise dispersion correction
with the Becke-Johnson damping scheme (D3BJ)
Cite in your paper:
S.Grimme, S.Ehrlich, L.Goerigk, J Comput Chem, (2011), 32, 1456–1465 
S.Grimme, J.Antony, S.Ehrlich and H.Krieg, J.Chem.Phys., 132, (2010), 154104 
   

----- Orbital basis set information -----
Your calculation utilizes the basis: def2-TZVPPD
   F. Weigend and R. Ahlrichs, Phys. Chem. Chem. Phys. 7, 3297 (2005).
   D. Rappoport and F. Furche, J. Chem. Phys. 133 134105 (2010).

----- AuxJK basis set information -----
Your calculation utilizes the auxiliary basis: def2/JK
   H-Ba, Hf-Rn: F. Weigend, J. Comput. Chem. 29, 167 (2008).

cite the ECPs for Pd [Def2-ECP], I  [Def2-ECP] as follows:
Ce-Yb(ecp-28): M. Dolg, H. Stoll, H.Preuss, J. Chem. Phys., 1989, 90, 1730-1734.
Y-Cd(ecp-28), Hf-Hg(ecp-46): D. Andrae,U. Haeussermann, M. Dolg, H. Stoll, H. Preuss, Theor. Chim. Acta, 1990, 77, 123-141.
In-Sb(ecp-28), Tl-Bi(ecp-46): B. Metz, H. Stoll, M. Dolg, J. Chem. Phys., 2000, 113, 2563-2569.
Te-Xe(ecp-28), Po-Rn(ecp-46): K. A. Peterson, D. Figgen, E. Goll, H. Stoll, M. Dolg, J. Chem. Phys., 2003, 119, 11113-11123.
Rb(ecp-28), Cs(ecp-46): T. Leininger, A. Nicklass, W. Kuechle, H. Stoll, M. Dolg, A. Bergner, Chem. Phys. Lett., 1996, 255, 274-280.
Sr(ecp-28), Ba(ecp-46): M. Kaupp, P. V. Schleyer, H. Stoll and H. Preuss, J. Chem. Phys., 1991, 94, 1360-1366.
La(ecp-46): M. Dolg, H. Stoll, A. Savin, H. Preuss, Theor. Chim. Acta, 1989, 75, 173-194.
Lu(ecp-28): X. Cao, M. Dolg, J. Chem. Phys., 2001, 115, 7348-7355.

ECP parameters for Pd [Def2-ECP], I  [Def2-ECP] have been obtained from:
TURBOMOLE (7.0.2)

================================================================================
                                        WARNINGS
                       Please study these warnings very carefully!
================================================================================


INFO   : the flag for use of LIBINT has been found!

================================================================================
                                       INPUT FILE
================================================================================
NAME = MOR29_pr11.in
|  1> #
|  2> # MOR29_pr11 TPSSh-D3BJ/Def2-TZVPPD
|  3> #
|  4> ! tpssh d3bj def2-tzvppd def2/jk grid4 nofinalgrid
|  5> 
|  6> *xyz 0 1
|  7> C       -1.039290   -2.639432    0.178033 
|  8> C       -2.178017   -3.305635   -0.258724 
|  9> C       -3.296391   -2.550827   -0.605540 
| 10> C       -3.231094   -1.166811   -0.503382 
| 11> H       -0.140242   -3.178187    0.457229 
| 12> H       -2.180740   -4.388297   -0.324253 
| 13> H       -4.206388   -3.031472   -0.950846 
| 14> H       -4.092575   -0.563880   -0.765153 
| 15> N       -0.970920   -1.306381    0.272680 
| 16> C       -2.050199   -0.559703   -0.062217 
| 17> C       -1.896627    0.903347    0.053727 
| 18> N       -0.715899    1.344389    0.547476 
| 19> C       -0.493208    2.660516    0.650101 
| 20> C       -2.657172    3.172580   -0.229603 
| 21> C       -1.435330    3.611046    0.276469 
| 22> H        0.481431    2.944320    1.031789 
| 23> H       -1.207232    4.666962    0.373432 
| 24> C       -2.888209    1.807210   -0.342538 
| 25> H       -3.826394    1.449184   -0.749672 
| 26> H       -3.416704    3.882938   -0.540755 
| 27> Pd       0.796966   -0.183618    0.920224 
| 28> C        2.296006    1.038742    1.594093 
| 29> H        1.829551    1.776866    2.255021 
| 30> H        2.734263    1.506656    0.710942 
| 31> H        3.050202    0.480142    2.149825 
| 32> C        2.162541   -1.690695    1.159536 
| 33> H        3.086547   -1.399047    0.660601 
| 34> H        1.744149   -2.568037    0.656862 
| 35> H        2.334771   -1.896294    2.218292 
| 36> I        1.451603    0.093477   -1.772045 
| 37> C        0.284011   -0.444486    2.913651 
| 38> H       -0.123661   -1.453796    3.016265 
| 39> H       -0.476481    0.304111    3.153737 
| 40> H        1.159721   -0.321172    3.551993 
| 41> *
| 42> 
| 43> %maxcore 5000
| 44> 
| 45> %pal
| 46> nprocs = 24
| 47> end
| 48> 
| 49> 
| 50>                          ****END OF INPUT****
================================================================================

                       ****************************
                       * Single Point Calculation *
                       ****************************

---------------------------------
CARTESIAN COORDINATES (ANGSTROEM)
---------------------------------
  C     -1.039290   -2.639432    0.178033
  C     -2.178017   -3.305635   -0.258724
  C     -3.296391   -2.550827   -0.605540
  C     -3.231094   -1.166811   -0.503382
  H     -0.140242   -3.178187    0.457229
  H     -2.180740   -4.388297   -0.324253
  H     -4.206388   -3.031472   -0.950846
  H     -4.092575   -0.563880   -0.765153
  N     -0.970920   -1.306381    0.272680
  C     -2.050199   -0.559703   -0.062217
  C     -1.896627    0.903347    0.053727
  N     -0.715899    1.344389    0.547476
  C     -0.493208    2.660516    0.650101
  C     -2.657172    3.172580   -0.229603
  C     -1.435330    3.611046    0.276469
  H      0.481431    2.944320    1.031789
  H     -1.207232    4.666962    0.373432
  C     -2.888209    1.807210   -0.342538
  H     -3.826394    1.449184   -0.749672
  H     -3.416704    3.882938   -0.540755
  Pd     0.796966   -0.183618    0.920224
  C      2.296006    1.038742    1.594093
  H      1.829551    1.776866    2.255021
  H      2.734263    1.506656    0.710942
  H      3.050202    0.480142    2.149825
  C      2.162541   -1.690695    1.159536
  H      3.086547   -1.399047    0.660601
  H      1.744149   -2.568037    0.656862
  H      2.334771   -1.896294    2.218292
  I      1.451603    0.093477   -1.772045
  C      0.284011   -0.444486    2.913651
  H     -0.123661   -1.453796    3.016265
  H     -0.476481    0.304111    3.153737
  H      1.159721   -0.321172    3.551993

----------------------------
CARTESIAN COORDINATES (A.U.)
----------------------------
  NO LB      ZA    FRAG     MASS         X           Y           Z
   0 C     6.0000    0    12.011   -1.963973   -4.987804    0.336434
   1 C     6.0000    0    12.011   -4.115856   -6.246745   -0.488918
   2 C     6.0000    0    12.011   -6.229276   -4.820364   -1.144305
   3 C     6.0000    0    12.011   -6.105883   -2.204953   -0.951254
   4 H     1.0000    0     1.008   -0.265019   -6.005903    0.864038
   5 H     1.0000    0     1.008   -4.121001   -8.292680   -0.612749
   6 H     1.0000    0     1.008   -7.948921   -5.728652   -1.796839
   7 H     1.0000    0     1.008   -7.733846   -1.065579   -1.445930
   8 N     7.0000    0    14.007   -1.834773   -2.468702    0.515291
   9 C     6.0000    0    12.011   -3.874315   -1.057685   -0.117573
  10 C     6.0000    0    12.011   -3.584106    1.707078    0.101529
  11 N     7.0000    0    14.007   -1.352853    2.540527    1.034580
  12 C     6.0000    0    12.011   -0.932028    5.027647    1.228513
  13 C     6.0000    0    12.011   -5.021327    5.995307   -0.433887
  14 C     6.0000    0    12.011   -2.712381    6.823888    0.522451
  15 H     1.0000    0     1.008    0.909773    5.563958    1.949799
  16 H     1.0000    0     1.008   -2.281338    8.819280    0.705684
  17 C     6.0000    0    12.011   -5.457924    3.415132   -0.647303
  18 H     1.0000    0     1.008   -7.230837    2.738561   -1.416675
  19 H     1.0000    0     1.008   -6.456635    7.337689   -1.021879
  20 Pd   18.0000*   0   106.400    1.506047   -0.346988    1.738971
  21 C     6.0000    0    12.011    4.338823    1.962938    3.012399
  22 H     1.0000    0     1.008    3.457350    3.357790    4.261372
  23 H     1.0000    0     1.008    5.167008    2.847167    1.343486
  24 H     1.0000    0     1.008    5.764046    0.907337    4.062580
  25 C     6.0000    0    12.011    4.086610   -3.194951    2.191205
  26 H     1.0000    0     1.008    5.832729   -2.643816    1.248355
  27 H     1.0000    0     1.008    3.295964   -4.852887    1.241289
  28 H     1.0000    0     1.008    4.412078   -3.583476    4.191964
  29 I    25.0000*   0   126.900    2.743132    0.176646   -3.348680
  30 C     6.0000    0    12.011    0.536703   -0.839957    5.506002
  31 H     1.0000    0     1.008   -0.233685   -2.747276    5.699915
  32 H     1.0000    0     1.008   -0.900419    0.574687    5.959699
  33 H     1.0000    0     1.008    2.191555   -0.606927    6.712294
* core charge reduced due to ECP

--------------------------------
INTERNAL COORDINATES (ANGSTROEM)
--------------------------------
 C      0   0   0     0.000000000000     0.00000000     0.00000000
 C      1   0   0     1.389705830306     0.00000000     0.00000000
 C      2   1   0     1.393117675789   118.44448162     0.00000000
 C      3   2   1     1.389316466263   118.92792810     0.05916770
 H      1   2   3     1.084663386837   121.46415666   180.20842894
 H      2   1   3     1.084646703224   119.97032286   179.91547136
 H      3   2   1     1.085518488866   120.81502284   180.04090038
 H      4   3   2     1.083604799068   119.94451291   180.23859788
 N      1   2   3     1.338154505321   122.79604946   359.66649001
 C      9   1   2     1.354447192080   119.40469273     0.28057599
 C     10   9   1     1.475649915400   116.37321805   180.62123412
 N     11  10   9     1.353670835450   116.26117034   356.75580447
 C     12  11  10     1.338773114547   119.56094190   178.36476360
 C     13  12  11     2.391407297180    91.82154270     0.33278804
 C     13  12  11     1.389497036776   122.62337423     0.46576057
 H     13  12  11     1.084505242072   115.70454357   181.36799837
 H     15  13  12     1.084614733456   119.95702003   180.30734640
 C     14  13  12     1.389376711513    88.27785414   359.75311469
 H     18  14  13     1.083573626874   119.94847000   181.01490311
 H     14  13  12     1.085501227218   151.48938411   180.72399266
 Pd    12  11  10     2.182316881614   116.03024856     4.95678126
 C     21  12  11     2.048263733107    98.37756521   179.07231697
 H     22  21  12     1.095095031303   106.80230978    41.78024171
 H     22  21  12     1.091314985807   106.47156584   282.25304466
 H     22  21  12     1.090726190315   111.59517464   161.30211664
 C     21  12  11     2.047766197079   175.99432652    31.93596921
 H     26  21  22     1.089854016905   108.35691892   309.55325171
 H     26  21  22     1.094286069044   106.34397680   192.30149991
 H     26  21  22     1.092198878061   110.91510338    71.78789321
 I     21  12  11     2.784536516039    85.88022312    84.64449556
 C     21  12  11     2.074831595522    94.63156578   266.26163143
 H     31  21  12     1.093358481323   107.36250332   113.53064485
 H     31  21  12     1.093794696398   107.26120474   354.62995155
 H     31  21  12     1.090667160806   110.46263830   233.97833980

---------------------------
INTERNAL COORDINATES (A.U.)
---------------------------
 C      0   0   0     0.000000000000     0.00000000     0.00000000
 C      1   0   0     2.626163425992     0.00000000     0.00000000
 C      2   1   0     2.632610879566   118.44448162     0.00000000
 C      3   2   1     2.625427634584   118.92792810     0.05916770
 H      1   2   3     2.049716748614   121.46415666   180.20842894
 H      2   1   3     2.049685221153   119.97032286   179.91547136
 H      3   2   1     2.051332657265   120.81502284   180.04090038
 H      4   3   2     2.047716307641   119.94451291   180.23859788
 N      1   2   3     2.528745539929   122.79604946   359.66649001
 C      9   1   2     2.559534255890   119.40469273     0.28057599
 C     10   9   1     2.788574209650   116.37321805   180.62123412
 N     11  10   9     2.558067154478   116.26117034   356.75580447
 C     12  11  10     2.529914541951   119.56094190   178.36476360
 C     13  12  11     4.519104866332    91.82154270     0.33278804
 C     13  12  11     2.625768863401   122.62337423     0.46576057
 H     13  12  11     2.049417898317   115.70454357   181.36799837
 H     15  13  12     2.049624807047   119.95702003   180.30734640
 C     14  13  12     2.625541481607    88.27785414   359.75311469
 H     18  14  13     2.047657400732   119.94847000   181.01490311
 H     14  13  12     2.051300037478   151.48938411   180.72399266
 Pd    12  11  10     4.123981243684   116.03024856     4.95678126
 C     21  12  11     3.870657505615    98.37756521   179.07231697
 H     22  21  12     2.069429699781   106.80230978    41.78024171
 H     22  21  12     2.062286449019   106.47156584   282.25304466
 H     22  21  12     2.061173786791   111.59517464   161.30211664
 C     21  12  11     3.869717298780   175.99432652    31.93596921
 H     26  21  22     2.059525617905   108.35691892   309.55325171
 H     26  21  22     2.067900982659   106.34397680   192.30149991
 H     26  21  22     2.063956763311   110.91510338    71.78789321
 I     21  12  11     5.262011425217    85.88022312    84.64449556
 C     21  12  11     3.920863489544    94.63156578   266.26163143
 H     31  21  12     2.066148095900   107.36250332   113.53064485
 H     31  21  12     2.066972422928   107.26120474   354.62995155
 H     31  21  12     2.061062237184   110.46263830   233.97833980

---------------------
BASIS SET INFORMATION
---------------------
There are 5 groups of distinct atoms

 Group   1 Type C   : 12s6p3d1f contracted to 6s3p3d1f pattern {621111/411/111/1}
 Group   2 Type H   : 5s3p1d contracted to 3s3p1d pattern {311/111/1}
 Group   3 Type N   : 12s6p3d1f contracted to 6s3p3d1f pattern {621111/411/111/1}
 Group   4 Type Pd  : 7s7p6d2f1g contracted to 6s4p3d2f1g pattern {211111/4111/411/11/1}
 Group   5 Type I   : 12s11p9d2f contracted to 7s6p4d2f pattern {5211111/341111/6111/11}

Atom   0C    basis set group =>   1
Atom   1C    basis set group =>   1
Atom   2C    basis set group =>   1
Atom   3C    basis set group =>   1
Atom   4H    basis set group =>   2
Atom   5H    basis set group =>   2
Atom   6H    basis set group =>   2
Atom   7H    basis set group =>   2
Atom   8N    basis set group =>   3
Atom   9C    basis set group =>   1
Atom  10C    basis set group =>   1
Atom  11N    basis set group =>   3
Atom  12C    basis set group =>   1
Atom  13C    basis set group =>   1
Atom  14C    basis set group =>   1
Atom  15H    basis set group =>   2
Atom  16H    basis set group =>   2
Atom  17C    basis set group =>   1
Atom  18H    basis set group =>   2
Atom  19H    basis set group =>   2
Atom  20Pd   basis set group =>   4
Atom  21C    basis set group =>   1
Atom  22H    basis set group =>   2
Atom  23H    basis set group =>   2
Atom  24H    basis set group =>   2
Atom  25C    basis set group =>   1
Atom  26H    basis set group =>   2
Atom  27H    basis set group =>   2
Atom  28H    basis set group =>   2
Atom  29I    basis set group =>   5
Atom  30C    basis set group =>   1
Atom  31H    basis set group =>   2
Atom  32H    basis set group =>   2
Atom  33H    basis set group =>   2
----------------------------------
AUXILIARY/JK BASIS SET INFORMATION
----------------------------------
There are 5 groups of distinct atoms

 Group   1 Type C   : 14s10p6d2f1g contracted to 10s8p5d1f1g pattern {5111111111/31111111/21111/2/1}
 Group   2 Type H   : 4s2p2d contracted to 2s2p2d pattern {31/11/11}
 Group   3 Type N   : 14s10p6d2f1g contracted to 10s8p4d2f1g pattern {5111111111/31111111/3111/11/1}
 Group   4 Type Pd  : 13s12p10d9f6g3h2i contracted to 11s10p9d8f6g3h2i pattern {31111111111/3111111111/211111111/21111111/111111/111/11}
 Group   5 Type I   : 13s12p11d8f6g3h contracted to 11s10p10d7f5g3h pattern {31111111111/3111111111/2111111111/2111111/21111/111}

Atom   0C    basis set group =>   1
Atom   1C    basis set group =>   1
Atom   2C    basis set group =>   1
Atom   3C    basis set group =>   1
Atom   4H    basis set group =>   2
Atom   5H    basis set group =>   2
Atom   6H    basis set group =>   2
Atom   7H    basis set group =>   2
Atom   8N    basis set group =>   3
Atom   9C    basis set group =>   1
Atom  10C    basis set group =>   1
Atom  11N    basis set group =>   3
Atom  12C    basis set group =>   1
Atom  13C    basis set group =>   1
Atom  14C    basis set group =>   1
Atom  15H    basis set group =>   2
Atom  16H    basis set group =>   2
Atom  17C    basis set group =>   1
Atom  18H    basis set group =>   2
Atom  19H    basis set group =>   2
Atom  20Pd   basis set group =>   4
Atom  21C    basis set group =>   1
Atom  22H    basis set group =>   2
Atom  23H    basis set group =>   2
Atom  24H    basis set group =>   2
Atom  25C    basis set group =>   1
Atom  26H    basis set group =>   2
Atom  27H    basis set group =>   2
Atom  28H    basis set group =>   2
Atom  29I    basis set group =>   5
Atom  30C    basis set group =>   1
Atom  31H    basis set group =>   2
Atom  32H    basis set group =>   2
Atom  33H    basis set group =>   2
-------------------------
ECP PARAMETER INFORMATION
-------------------------

 Group 1, Type Pd ECP Def2-ECP (replacing 28 core electrons, lmax=3)
 Group 2, Type I  ECP Def2-ECP (replacing 28 core electrons, lmax=3)

Atom  20Pd   ECP group =>   1
Atom  29I    ECP group =>   2



           ************************************************************
           *        Program running with 24 parallel MPI-processes    *
           *              working on a common directory               *
           ************************************************************
------------------------------------------------------------------------------
                           ORCA GTO INTEGRAL CALCULATION
------------------------------------------------------------------------------

                         BASIS SET STATISTICS AND STARTUP INFO

 # of primitive gaussian shells          ...  540
 # of primitive gaussian functions       ... 1288
 # of contracted shells                  ...  349
 # of contracted basis functions         ...  959
 Highest angular momentum                ...    4
 Maximum contraction depth               ...    6
 Integral package used                   ... LIBINT
 Integral threshhold            Thresh   ...  1.000e-10
 Primitive cut-off              TCut     ...  1.000e-11


------------------------------ INTEGRAL EVALUATION ----------------------------


 * One electron integrals 

   ECP integrals                         ... done
 Pre-screening matrix                    ... done
 Shell pair data                         ... done (   0.014 sec)



           ************************************************************
           *        Program running with 24 parallel MPI-processes    *
           *              working on a common directory               *
           ************************************************************
-------------------------------------------------------------------------------
                                 ORCA SCF
-------------------------------------------------------------------------------

------------
SCF SETTINGS
------------
Hamiltonian:
 Density Functional     Method          .... DFT(GTOs)
 Exchange Functional    Exchange        .... TPSS
 Correlation Functional Correlation     .... TPSS
 LDA part of GGA corr.  LDAOpt          .... PW91-LDA
 Gradients option       PostSCFGGA      .... off
 Hybrid DFT is turned on
   Fraction HF Exchange ScalHFX         ....  0.100000
   Scaling of DF-GGA-X  ScalDFX         ....  0.900000
   Scaling of DF-GGA-C  ScalDFC         ....  1.000000
   Scaling of DF-LDA-C  ScalLDAC        ....  1.000000
   Perturbative correction              ....  0.000000
   Density functional embedding theory  .... OFF
   NL short-range parameter             ....  5.200000


General Settings:
 Integral files         IntName         .... MOR29_pr11
 Hartree-Fock type      HFTyp           .... RHF
 Total Charge           Charge          ....    0
 Multiplicity           Mult            ....    1
 Number of Electrons    NEL             ....  152
 Basis Dimension        Dim             ....  959
 Nuclear Repulsion      ENuc            ....   1690.8617730577 Eh

Convergence Acceleration:
 DIIS                   CNVDIIS         .... on
   Start iteration      DIISMaxIt       ....    12
   Startup error        DIISStart       ....  0.200000
   # of expansion vecs  DIISMaxEq       ....     5
   Bias factor          DIISBfac        ....   1.050
   Max. coefficient     DIISMaxC        ....  10.000
 Newton-Raphson         CNVNR           .... off
 SOSCF                  CNVSOSCF        .... off
 Level Shifting         CNVShift        .... on
   Level shift para.    LevelShift      ....    0.2500
   Turn off err/grad.   ShiftErr        ....    0.0010
 Zerner damping         CNVZerner       .... off
 Static damping         CNVDamp         .... on
   Fraction old density DampFac         ....    0.7000
   Max. Damping (<1)    DampMax         ....    0.9800
   Min. Damping (>=0)   DampMin         ....    0.0000
   Turn off err/grad.   DampErr         ....    0.1000
 Fernandez-Rico         CNVRico         .... off

SCF Procedure:
 Maximum # iterations   MaxIter         ....   125
 SCF integral mode      SCFMode         .... Direct
   Integral package                     .... LIBINT
 Reset frequency        DirectResetFreq ....    20
 Integral Threshold     Thresh          ....  1.000e-10 Eh
 Primitive CutOff       TCut            ....  1.000e-11 Eh

Convergence Tolerance:
 Convergence Check Mode ConvCheckMode   .... Total+1el-Energy
 Convergence forced     ConvForced      .... 0
 Energy Change          TolE            ....  1.000e-06 Eh
 1-El. energy change                    ....  1.000e-03 Eh
 DIIS Error             TolErr          ....  1.000e-06


Diagonalization of the overlap matrix:
Smallest eigenvalue                        ... 1.498e-07
Time for diagonalization                   ...    0.185 sec
Threshold for overlap eigenvalues          ... 1.000e-08
Number of eigenvalues below threshold      ... 0
Time for construction of square roots      ...    0.113 sec
Total time needed                          ...    0.301 sec

-------------------
DFT GRID GENERATION
-------------------

General Integration Accuracy     IntAcc      ...  4.670
Radial Grid Type                 RadialGrid  ... Gauss-Chebyshev
Angular Grid (max. acc.)         AngularGrid ... Lebedev-302
Angular grid pruning method      GridPruning ... 3 (G Style)
Weight generation scheme         WeightScheme... Becke
Basis function cutoff            BFCut       ...    1.0000e-10
Integration weight cutoff        WCut        ...    1.0000e-14
Grids for H and He will be reduced by one unit

# of grid points (after initial pruning)     ... 172302 (   0.0 sec)
# of grid points (after weights+screening)   ... 150815 (   0.1 sec)
nearest neighbour list constructed           ...    0.0 sec
Grid point re-assignment to atoms done       ...    0.0 sec
Grid point division into batches done        ...    0.5 sec
Reduced shell lists constructed in    0.7 sec

Total number of grid points                  ...   150815
Total number of batches                      ...     2375
Average number of points per batch           ...       63
Average number of grid points per atom       ...     4436
Average number of shells per batch           ...   192.56 (55.17%)
Average number of basis functions per batch  ...   517.28 (53.94%)
Average number of large shells per batch     ...   141.18 (73.32%)
Average number of large basis fcns per batch ...   382.50 (73.94%)
Maximum spatial batch extension              ...  15.50, 20.34, 20.40 au
Average spatial batch extension              ...   0.07,  0.08,  0.07 au

Time for grid setup =    0.883 sec

------------------------------
INITIAL GUESS: MODEL POTENTIAL
------------------------------
Loading Hartree-Fock densities                     ... done
  calling /sw/apps/orca/orca_4_2_0_linux_x86-64_openmpi314/orca MOR29_pr11_atom46.inp > MOR29_pr11_atom46.out in order to generate an atomic fitting density for atom 20 (Pd with ECP) on-the-fly... 
    atom 20 (Pd), assumed electronic state with S=3: 1s2 2s2 2p6 3s2 3p6 4s2 3d10 4p6 5s2 4d8           ... done
  calling /sw/apps/orca/orca_4_2_0_linux_x86-64_openmpi314/orca MOR29_pr11_atom53.inp > MOR29_pr11_atom53.out in order to generate an atomic fitting density for atom 29 (I  with ECP) on-the-fly... 
    atom 29 (I ), assumed electronic state with S=2: 1s2 2s2 2p6 3s2 3p6 4s2 3d10 4p6 5s2 4d10 5p5           ... done
Calculating cut-offs                               ... done
Setting up the integral package                    ... done
Initializing the effective Hamiltonian             ... done
Starting the Coulomb interaction                   ... done (   0.1 sec)
Reading the grid                                   ... done
Mapping shells                                     ... done
Starting the XC term evaluation                    ... done (   0.6 sec)
  promolecular density results
     # of electrons  =    207.985699172
     EX              =   -396.279554054
     EC              =     -8.930256539
     EX+EC           =   -405.209810593
Transforming the Hamiltonian                       ... done (   0.1 sec)
Diagonalizing the Hamiltonian                      ... done (   0.2 sec)
Back transforming the eigenvectors                 ... done (   0.0 sec)
Now organizing SCF variables                       ... done
                      ------------------
                      INITIAL GUESS DONE (   4.5 sec)
                      ------------------
--------------
SCF ITERATIONS
--------------
ITER       Energy         Delta-E        Max-DP      RMS-DP      [F,P]     Damp
               ***  Starting incremental Fock matrix formation  ***
  0   -770.7522096932   0.000000000000120.18641691  0.47356856  6.7962943 0.7000
  1   -945.0424050451-174.290195351836109.30260144  0.32836871  2.6328662 0.7000
  2   -974.4569258861 -29.41452084101171.86177088  0.23254195  0.8129916 0.7000
  3   -993.9646481068 -19.50772222071768.33374970  0.20483206  0.6288936 0.7000
  4  -1008.1911970056 -14.22654889878749.94997857  0.15123676  0.4653863 0.7000
  5  -1017.9864550199  -9.79525801432835.46366125  0.10809404  0.3351701 0.7000
  6  -1024.8375754071  -6.85112038714824.97562317  0.07633209  0.2381026 0.7000
                               ***Turning on DIIS***
  7  -1029.6491318803  -4.81155647318417.63467105  0.05380326  0.1876014 0.7000
  8  -1033.0243106967  -3.37517881647912.62417190  0.03812359  0.1441972 0.7000
  9  -1035.3903547260  -2.366044029263 8.88534501  0.02651868  0.1017409 0.7000
 10  -1037.0487652136  -1.65841048758220.72008417  0.06161594  0.0704116 0.0000
 11  -1040.9251786663  -3.876413452771 0.15630270  0.00043942  0.0029616 0.0000
 12  -1040.9252073794  -0.000028713022 0.07112131  0.00025161  0.0048957 0.0000
 13  -1040.9252892982  -0.000081918858 0.15168566  0.00047684  0.0007542 0.0000
 14  -1040.9252969622  -0.000007663959 0.13649547  0.00051409  0.0009005 0.0000
 15  -1040.9253072005  -0.000010238310 0.11863574  0.00039533  0.0003374 0.0000
 16  -1040.9253075754  -0.000000374891 0.10434925  0.00046983  0.0001197 0.0000
 17  -1040.9253078267  -0.000000251286 0.28916359  0.00121815  0.0001074 0.0000
 18  -1040.9253077972   0.000000029482 0.15566957  0.00070398  0.0000602 0.0000
                 **** Energy Check signals convergence ****

               *****************************************************
               *                     SUCCESS                       *
               *           SCF CONVERGED AFTER  19 CYCLES          *
               *****************************************************


----------------
TOTAL SCF ENERGY
----------------

Total Energy       :        -1040.92530776 Eh          -28325.01764 eV

Components:
Nuclear Repulsion  :         1690.86177306 Eh           46010.68798 eV
Electronic Energy  :        -2731.78708081 Eh          -74335.70562 eV
One Electron Energy:        -4940.44705897 Eh         -134436.39909 eV
Two Electron Energy:         2208.65997816 Eh           60100.69347 eV

Virial components:
Potential Energy   :        -1814.26734051 Eh          -49368.72419 eV
Kinetic Energy     :          773.34203276 Eh           21043.70655 eV
Virial Ratio       :            2.34600896


DFT components:
N(Alpha)           :       76.000086974413 electrons
N(Beta)            :       76.000086974413 electrons
N(Total)           :      152.000173948826 electrons
E(X)               :     -108.130654179790 Eh       
E(C)               :       -5.555902777617 Eh       
E(XC)              :     -113.686556957407 Eh       
DFET-embed. en.    :        0.000000000000 Eh       

---------------
SCF CONVERGENCE
---------------

  Last Energy change         ...    4.1397e-08  Tolerance :   1.0000e-06
  Last MAX-Density change    ...    5.6840e-01  Tolerance :   1.0000e-05
  Last RMS-Density change    ...    1.6802e-03  Tolerance :   1.0000e-06
  Last DIIS Error            ...    1.7620e-05  Tolerance :   1.0000e-06

             **** THE GBW FILE WAS UPDATED (MOR29_pr11.gbw) ****
             **** DENSITY FILE WAS UPDATED (MOR29_pr11.scfp) ****
             **** ENERGY FILE WAS UPDATED (MOR29_pr11.en.tmp) ****
             **** THE GBW FILE WAS UPDATED (MOR29_pr11.gbw) ****
             **** DENSITY FILE WAS UPDATED (MOR29_pr11.scfp) ****
----------------
ORBITAL ENERGIES
----------------

  NO   OCC          E(Eh)            E(eV) 
   0   2.0000     -14.305342      -389.2682 
   1   2.0000     -14.304707      -389.2509 
   2   2.0000     -10.196689      -277.4660 
   3   2.0000     -10.195923      -277.4452 
   4   2.0000     -10.181879      -277.0630 
   5   2.0000     -10.180727      -277.0317 
   6   2.0000     -10.165023      -276.6043 
   7   2.0000     -10.164093      -276.5790 
   8   2.0000     -10.160747      -276.4880 
   9   2.0000     -10.160032      -276.4685 
  10   2.0000     -10.155814      -276.3538 
  11   2.0000     -10.154742      -276.3246 
  12   2.0000     -10.097855      -274.7766 
  13   2.0000     -10.094291      -274.6796 
  14   2.0000     -10.092761      -274.6380 
  15   2.0000      -6.669721      -181.4923 
  16   2.0000      -4.702693      -127.9668 
  17   2.0000      -4.697630      -127.8290 
  18   2.0000      -4.697552      -127.8269 
  19   2.0000      -3.446008       -93.7706 
  20   2.0000      -2.137184       -58.1557 
  21   2.0000      -2.133261       -58.0490 
  22   2.0000      -2.133064       -58.0436 
  23   2.0000      -1.776070       -48.3293 
  24   2.0000      -1.774598       -48.2893 
  25   2.0000      -1.774528       -48.2874 
  26   2.0000      -1.770213       -48.1699 
  27   2.0000      -1.770185       -48.1692 
  28   2.0000      -0.976811       -26.5804 
  29   2.0000      -0.952399       -25.9161 
  30   2.0000      -0.823422       -22.4064 
  31   2.0000      -0.815541       -22.1920 
  32   2.0000      -0.810627       -22.0583 
  33   2.0000      -0.757708       -20.6183 
  34   2.0000      -0.673684       -18.3319 
  35   2.0000      -0.664406       -18.0794 
  36   2.0000      -0.660798       -17.9812 
  37   2.0000      -0.637602       -17.3500 
  38   2.0000      -0.636772       -17.3275 
  39   2.0000      -0.628394       -17.0995 
  40   2.0000      -0.620095       -16.8736 
  41   2.0000      -0.579342       -15.7647 
  42   2.0000      -0.559733       -15.2311 
  43   2.0000      -0.520752       -14.1704 
  44   2.0000      -0.516616       -14.0578 
  45   2.0000      -0.499853       -13.6017 
  46   2.0000      -0.480890       -13.0857 
  47   2.0000      -0.462968       -12.5980 
  48   2.0000      -0.449803       -12.2398 
  49   2.0000      -0.446805       -12.1582 
  50   2.0000      -0.437368       -11.9014 
  51   2.0000      -0.429637       -11.6910 
  52   2.0000      -0.415071       -11.2946 
  53   2.0000      -0.400874       -10.9083 
  54   2.0000      -0.394412       -10.7325 
  55   2.0000      -0.393731       -10.7140 
  56   2.0000      -0.388295       -10.5661 
  57   2.0000      -0.380258       -10.3474 
  58   2.0000      -0.358408        -9.7528 
  59   2.0000      -0.355645        -9.6776 
  60   2.0000      -0.351983        -9.5779 
  61   2.0000      -0.350260        -9.5311 
  62   2.0000      -0.340159        -9.2562 
  63   2.0000      -0.326061        -8.8726 
  64   2.0000      -0.316391        -8.6094 
  65   2.0000      -0.313738        -8.5373 
  66   2.0000      -0.312343        -8.4993 
  67   2.0000      -0.266412        -7.2494 
  68   2.0000      -0.265437        -7.2229 
  69   2.0000      -0.262295        -7.1374 
  70   2.0000      -0.259729        -7.0676 
  71   2.0000      -0.256991        -6.9931 
  72   2.0000      -0.251683        -6.8486 
  73   2.0000      -0.201058        -5.4711 
  74   2.0000      -0.183105        -4.9825 
  75   2.0000      -0.182752        -4.9729 
  76   0.0000      -0.107140        -2.9154 
  77   0.0000      -0.079205        -2.1553 
  78   0.0000      -0.068319        -1.8590 
  79   0.0000      -0.039807        -1.0832 
  80   0.0000      -0.031174        -0.8483 
  81   0.0000      -0.024538        -0.6677 
  82   0.0000      -0.014904        -0.4056 
  83   0.0000      -0.000719        -0.0196 
  84   0.0000       0.006920         0.1883 
  85   0.0000       0.019760         0.5377 
  86   0.0000       0.024746         0.6734 
  87   0.0000       0.030113         0.8194 
  88   0.0000       0.031486         0.8568 
  89   0.0000       0.041985         1.1425 
  90   0.0000       0.044642         1.2148 
  91   0.0000       0.045990         1.2515 
  92   0.0000       0.047278         1.2865 
  93   0.0000       0.054259         1.4765 
  94   0.0000       0.060497         1.6462 
  95   0.0000       0.065286         1.7765 
  96   0.0000       0.068290         1.8583 
  97   0.0000       0.075501         2.0545 
  98   0.0000       0.079753         2.1702 
  99   0.0000       0.091682         2.4948 
 100   0.0000       0.096183         2.6173 
 101   0.0000       0.100221         2.7271 
 102   0.0000       0.102954         2.8015 
 103   0.0000       0.104592         2.8461 
 104   0.0000       0.105494         2.8706 
 105   0.0000       0.109464         2.9787 
 106   0.0000       0.111195         3.0258 
 107   0.0000       0.115785         3.1507 
 108   0.0000       0.118151         3.2151 
 109   0.0000       0.123045         3.3482 
 110   0.0000       0.127821         3.4782 
 111   0.0000       0.130942         3.5631 
 112   0.0000       0.134402         3.6573 
 113   0.0000       0.135865         3.6971 
 114   0.0000       0.138851         3.7783 
 115   0.0000       0.144360         3.9282 
 116   0.0000       0.145349         3.9551 
 117   0.0000       0.150882         4.1057 
 118   0.0000       0.153211         4.1691 
 119   0.0000       0.158237         4.3059 
 120   0.0000       0.162198         4.4136 
 121   0.0000       0.166759         4.5377 
 122   0.0000       0.171228         4.6594 
 123   0.0000       0.173751         4.7280 
 124   0.0000       0.174706         4.7540 
 125   0.0000       0.176076         4.7913 
 126   0.0000       0.181858         4.9486 
 127   0.0000       0.185244         5.0407 
 128   0.0000       0.187049         5.0899 
 129   0.0000       0.190341         5.1794 
 130   0.0000       0.190994         5.1972 
 131   0.0000       0.193066         5.2536 
 132   0.0000       0.196127         5.3369 
 133   0.0000       0.201818         5.4918 
 134   0.0000       0.203747         5.5442 
 135   0.0000       0.205673         5.5966 
 136   0.0000       0.214149         5.8273 
 137   0.0000       0.216812         5.8998 
 138   0.0000       0.220745         6.0068 
 139   0.0000       0.222868         6.0645 
 140   0.0000       0.224144         6.0993 
 141   0.0000       0.226289         6.1576 
 142   0.0000       0.230857         6.2819 
 143   0.0000       0.235192         6.3999 
 144   0.0000       0.236029         6.4227 
 145   0.0000       0.241838         6.5807 
 146   0.0000       0.243588         6.6284 
 147   0.0000       0.246353         6.7036 
 148   0.0000       0.250751         6.8233 
 149   0.0000       0.253800         6.9063 
 150   0.0000       0.256190         6.9713 
 151   0.0000       0.261881         7.1261 
 152   0.0000       0.266472         7.2511 
 153   0.0000       0.270008         7.3473 
 154   0.0000       0.272057         7.4031 
 155   0.0000       0.275202         7.4886 
 156   0.0000       0.277032         7.5384 
 157   0.0000       0.281144         7.6503 
 158   0.0000       0.283411         7.7120 
 159   0.0000       0.284360         7.7378 
 160   0.0000       0.286374         7.7926 
 161   0.0000       0.287724         7.8294 
 162   0.0000       0.290633         7.9085 
 163   0.0000       0.292496         7.9592 
 164   0.0000       0.293243         7.9795 
 165   0.0000       0.297347         8.0912 
 166   0.0000       0.298920         8.1340 
 167   0.0000       0.300195         8.1687 
 168   0.0000       0.305009         8.2997 
 169   0.0000       0.305945         8.3252 
 170   0.0000       0.307813         8.3760 
 171   0.0000       0.310747         8.4559 
 172   0.0000       0.314646         8.5620 
 173   0.0000       0.316678         8.6173 
 174   0.0000       0.319207         8.6861 
 175   0.0000       0.324571         8.8320 
 176   0.0000       0.326008         8.8711 
 177   0.0000       0.326941         8.8965 
 178   0.0000       0.328609         8.9419 
 179   0.0000       0.333372         9.0715 
 180   0.0000       0.334593         9.1047 
 181   0.0000       0.336472         9.1559 
 182   0.0000       0.338964         9.2237 
 183   0.0000       0.340451         9.2641 
 184   0.0000       0.343205         9.3391 
 185   0.0000       0.346244         9.4218 
 186   0.0000       0.352268         9.5857 
 187   0.0000       0.352752         9.5989 
 188   0.0000       0.356662         9.7053 
 189   0.0000       0.360731         9.8160 
 190   0.0000       0.364177         9.9098 
 191   0.0000       0.369678        10.0594 
 192   0.0000       0.370832        10.0908 
 193   0.0000       0.375316        10.2129 
 194   0.0000       0.380825        10.3628 
 195   0.0000       0.383547        10.4368 
 196   0.0000       0.386761        10.5243 
 197   0.0000       0.388502        10.5717 
 198   0.0000       0.390833        10.6351 
 199   0.0000       0.393258        10.7011 
 200   0.0000       0.397285        10.8107 
 201   0.0000       0.401454        10.9241 
 202   0.0000       0.404477        11.0064 
 203   0.0000       0.407132        11.0786 
 204   0.0000       0.413264        11.2455 
 205   0.0000       0.416323        11.3287 
 206   0.0000       0.420914        11.4536 
 207   0.0000       0.425645        11.5824 
 208   0.0000       0.426418        11.6034 
 209   0.0000       0.429364        11.6836 
 210   0.0000       0.432711        11.7747 
 211   0.0000       0.435067        11.8388 
 212   0.0000       0.439533        11.9603 
 213   0.0000       0.443174        12.0594 
 214   0.0000       0.446207        12.1419 
 215   0.0000       0.448824        12.2131 
 216   0.0000       0.450591        12.2612 
 217   0.0000       0.457271        12.4430 
 218   0.0000       0.459583        12.5059 
 219   0.0000       0.461295        12.5525 
 220   0.0000       0.465981        12.6800 
 221   0.0000       0.468207        12.7406 
 222   0.0000       0.474948        12.9240 
 223   0.0000       0.478735        13.0270 
 224   0.0000       0.481572        13.1043 
 225   0.0000       0.481970        13.1151 
 226   0.0000       0.484213        13.1761 
 227   0.0000       0.488956        13.3052 
 228   0.0000       0.490830        13.3562 
 229   0.0000       0.496152        13.5010 
 230   0.0000       0.500406        13.6167 
 231   0.0000       0.502460        13.6726 
 232   0.0000       0.504978        13.7412 
 233   0.0000       0.509026        13.8513 
 234   0.0000       0.509439        13.8626 
 235   0.0000       0.516248        14.0478 
 236   0.0000       0.524401        14.2697 
 237   0.0000       0.526077        14.3153 
 238   0.0000       0.532820        14.4988 
 239   0.0000       0.534243        14.5375 
 240   0.0000       0.536102        14.5881 
 241   0.0000       0.537307        14.6209 
 242   0.0000       0.543712        14.7952 
 243   0.0000       0.546879        14.8813 
 244   0.0000       0.549577        14.9548 
 245   0.0000       0.551435        15.0053 
 246   0.0000       0.558385        15.1944 
 247   0.0000       0.563488        15.3333 
 248   0.0000       0.566064        15.4034 
 249   0.0000       0.568475        15.4690 
 250   0.0000       0.574308        15.6277 
 251   0.0000       0.577121        15.7043 
 252   0.0000       0.581244        15.8165 
 253   0.0000       0.583302        15.8724 
 254   0.0000       0.586369        15.9559 
 255   0.0000       0.588398        16.0111 
 256   0.0000       0.592745        16.1294 
 257   0.0000       0.594439        16.1755 
 258   0.0000       0.598391        16.2830 
 259   0.0000       0.600777        16.3480 
 260   0.0000       0.603497        16.4220 
 261   0.0000       0.605022        16.4635 
 262   0.0000       0.607507        16.5311 
 263   0.0000       0.610305        16.6072 
 264   0.0000       0.614419        16.7192 
 265   0.0000       0.620544        16.8859 
 266   0.0000       0.624640        16.9973 
 267   0.0000       0.625380        17.0174 
 268   0.0000       0.630694        17.1621 
 269   0.0000       0.631613        17.1871 
 270   0.0000       0.633906        17.2495 
 271   0.0000       0.636646        17.3240 
 272   0.0000       0.640976        17.4418 
 273   0.0000       0.645393        17.5620 
 274   0.0000       0.649302        17.6684 
 275   0.0000       0.650998        17.7145 
 276   0.0000       0.651694        17.7335 
 277   0.0000       0.653972        17.7955 
 278   0.0000       0.659716        17.9518 
 279   0.0000       0.661334        17.9958 
 280   0.0000       0.667543        18.1648 
 281   0.0000       0.673552        18.3283 
 282   0.0000       0.673868        18.3369 
 283   0.0000       0.675202        18.3732 
 284   0.0000       0.679821        18.4989 
 285   0.0000       0.684129        18.6161 
 286   0.0000       0.687695        18.7131 
 287   0.0000       0.692161        18.8347 
 288   0.0000       0.697091        18.9688 
 289   0.0000       0.699105        19.0236 
 290   0.0000       0.702204        19.1080 
 291   0.0000       0.704921        19.1819 
 292   0.0000       0.706875        19.2350 
 293   0.0000       0.707726        19.2582 
 294   0.0000       0.716484        19.4965 
 295   0.0000       0.716759        19.5040 
 296   0.0000       0.722043        19.6478 
 297   0.0000       0.723192        19.6790 
 298   0.0000       0.725655        19.7461 
 299   0.0000       0.728548        19.8248 
 300   0.0000       0.734423        19.9847 
 301   0.0000       0.735165        20.0049 
 302   0.0000       0.740006        20.1366 
 303   0.0000       0.742872        20.2146 
 304   0.0000       0.744358        20.2550 
 305   0.0000       0.747965        20.3532 
 306   0.0000       0.752243        20.4696 
 307   0.0000       0.757410        20.6102 
 308   0.0000       0.759657        20.6713 
 309   0.0000       0.762323        20.7439 
 310   0.0000       0.764221        20.7955 
 311   0.0000       0.768649        20.9160 
 312   0.0000       0.773191        21.0396 
 313   0.0000       0.775788        21.1103 
 314   0.0000       0.778150        21.1745 
 315   0.0000       0.781395        21.2628 
 316   0.0000       0.786567        21.4036 
 317   0.0000       0.791097        21.5269 
 318   0.0000       0.798326        21.7235 
 319   0.0000       0.800234        21.7755 
 320   0.0000       0.806025        21.9331 
 321   0.0000       0.806934        21.9578 
 322   0.0000       0.814987        22.1769 
 323   0.0000       0.820124        22.3167 
 324   0.0000       0.825195        22.4547 
 325   0.0000       0.827786        22.5252 
 326   0.0000       0.830705        22.6046 
 327   0.0000       0.837303        22.7842 
 328   0.0000       0.844417        22.9777 
 329   0.0000       0.848793        23.0968 
 330   0.0000       0.855409        23.2769 
 331   0.0000       0.859967        23.4009 
 332   0.0000       0.861340        23.4383 
 333   0.0000       0.869041        23.6478 
 334   0.0000       0.873348        23.7650 
 335   0.0000       0.874986        23.8096 
 336   0.0000       0.879963        23.9450 
 337   0.0000       0.883671        24.0459 
 338   0.0000       0.893043        24.3009 
 339   0.0000       0.899485        24.4762 
 340   0.0000       0.908656        24.7258 
 341   0.0000       0.910751        24.7828 
 342   0.0000       0.915172        24.9031 
 343   0.0000       0.923713        25.1355 
 344   0.0000       0.929495        25.2928 
 345   0.0000       0.934580        25.4312 
 346   0.0000       0.938622        25.5412 
 347   0.0000       0.939537        25.5661 
 348   0.0000       0.946216        25.7478 
 349   0.0000       0.950169        25.8554 
 350   0.0000       0.952999        25.9324 
 351   0.0000       0.956184        26.0191 
 352   0.0000       0.961272        26.1575 
 353   0.0000       0.964950        26.2576 
 354   0.0000       0.975317        26.5397 
 355   0.0000       0.980447        26.6793 
 356   0.0000       0.983072        26.7507 
 357   0.0000       0.986182        26.8354 
 358   0.0000       0.991075        26.9685 
 359   0.0000       0.993149        27.0250 
 360   0.0000       0.998945        27.1827 
 361   0.0000       1.002130        27.2693 
 362   0.0000       1.011091        27.5132 
 363   0.0000       1.018754        27.7217 
 364   0.0000       1.024283        27.8721 
 365   0.0000       1.027139        27.9499 
 366   0.0000       1.030282        28.0354 
 367   0.0000       1.041537        28.3417 
 368   0.0000       1.044786        28.4301 
 369   0.0000       1.053004        28.6537 
 370   0.0000       1.058061        28.7913 
 371   0.0000       1.062813        28.9206 
 372   0.0000       1.068063        29.0635 
 373   0.0000       1.070313        29.1247 
 374   0.0000       1.080102        29.3911 
 375   0.0000       1.084010        29.4974 
 376   0.0000       1.087461        29.5913 
 377   0.0000       1.097552        29.8659 
 378   0.0000       1.102670        30.0052 
 379   0.0000       1.110597        30.2209 
 380   0.0000       1.117896        30.4195 
 381   0.0000       1.120845        30.4997 
 382   0.0000       1.127873        30.6910 
 383   0.0000       1.135497        30.8984 
 384   0.0000       1.139527        31.0081 
 385   0.0000       1.144907        31.1545 
 386   0.0000       1.157027        31.4843 
 387   0.0000       1.158559        31.5260 
 388   0.0000       1.168667        31.8010 
 389   0.0000       1.172883        31.9158 
 390   0.0000       1.183918        32.2160 
 391   0.0000       1.184422        32.2298 
 392   0.0000       1.197571        32.5876 
 393   0.0000       1.199349        32.6359 
 394   0.0000       1.202653        32.7258 
 395   0.0000       1.207197        32.8495 
 396   0.0000       1.216639        33.1064 
 397   0.0000       1.221948        33.2509 
 398   0.0000       1.225403        33.3449 
 399   0.0000       1.230560        33.4852 
 400   0.0000       1.233930        33.5769 
 401   0.0000       1.242140        33.8004 
 402   0.0000       1.250030        34.0150 
 403   0.0000       1.255561        34.1656 
 404   0.0000       1.260592        34.3025 
 405   0.0000       1.265728        34.4422 
 406   0.0000       1.269192        34.5365 
 407   0.0000       1.280392        34.8412 
 408   0.0000       1.281748        34.8781 
 409   0.0000       1.288132        35.0519 
 410   0.0000       1.293604        35.2007 
 411   0.0000       1.297934        35.3186 
 412   0.0000       1.306190        35.5432 
 413   0.0000       1.318509        35.8785 
 414   0.0000       1.324356        36.0376 
 415   0.0000       1.336615        36.3711 
 416   0.0000       1.339559        36.4513 
 417   0.0000       1.341697        36.5094 
 418   0.0000       1.348670        36.6992 
 419   0.0000       1.352330        36.7988 
 420   0.0000       1.356017        36.8991 
 421   0.0000       1.368724        37.2449 
 422   0.0000       1.380189        37.5569 
 423   0.0000       1.384805        37.6825 
 424   0.0000       1.387501        37.7558 
 425   0.0000       1.389688        37.8153 
 426   0.0000       1.401074        38.1252 
 427   0.0000       1.406457        38.2716 
 428   0.0000       1.410471        38.3809 
 429   0.0000       1.414516        38.4909 
 430   0.0000       1.422833        38.7173 
 431   0.0000       1.424864        38.7725 
 432   0.0000       1.428591        38.8739 
 433   0.0000       1.433933        39.0193 
 434   0.0000       1.437523        39.1170 
 435   0.0000       1.454631        39.5825 
 436   0.0000       1.455307        39.6009 
 437   0.0000       1.458684        39.6928 
 438   0.0000       1.473322        40.0911 
 439   0.0000       1.478772        40.2394 
 440   0.0000       1.486317        40.4447 
 441   0.0000       1.491540        40.5869 
 442   0.0000       1.497686        40.7541 
 443   0.0000       1.506186        40.9854 
 444   0.0000       1.509600        41.0783 
 445   0.0000       1.517646        41.2972 
 446   0.0000       1.524798        41.4919 
 447   0.0000       1.527997        41.5789 
 448   0.0000       1.539612        41.8950 
 449   0.0000       1.543281        41.9948 
 450   0.0000       1.547330        42.1050 
 451   0.0000       1.550937        42.2032 
 452   0.0000       1.559684        42.4411 
 453   0.0000       1.563768        42.5523 
 454   0.0000       1.566436        42.6249 
 455   0.0000       1.579579        42.9825 
 456   0.0000       1.589187        43.2440 
 457   0.0000       1.593254        43.3546 
 458   0.0000       1.604996        43.6741 
 459   0.0000       1.609317        43.7917 
 460   0.0000       1.614624        43.9361 
 461   0.0000       1.633314        44.4447 
 462   0.0000       1.635984        44.5174 
 463   0.0000       1.642206        44.6867 
 464   0.0000       1.646504        44.8036 
 465   0.0000       1.658640        45.1339 
 466   0.0000       1.666050        45.3355 
 467   0.0000       1.669700        45.4349 
 468   0.0000       1.675259        45.5861 
 469   0.0000       1.683323        45.8055 
 470   0.0000       1.690160        45.9916 
 471   0.0000       1.695240        46.1298 
 472   0.0000       1.704782        46.3895 
 473   0.0000       1.709484        46.5174 
 474   0.0000       1.716526        46.7091 
 475   0.0000       1.721625        46.8478 
 476   0.0000       1.727443        47.0061 
 477   0.0000       1.728905        47.0459 
 478   0.0000       1.734935        47.2100 
 479   0.0000       1.738345        47.3028 
 480   0.0000       1.744818        47.4789 
 481   0.0000       1.752172        47.6790 
 482   0.0000       1.761319        47.9279 
 483   0.0000       1.765248        48.0348 
 484   0.0000       1.766809        48.0773 
 485   0.0000       1.774005        48.2731 
 486   0.0000       1.778292        48.3898 
 487   0.0000       1.782094        48.4932 
 488   0.0000       1.792685        48.7814 
 489   0.0000       1.796802        48.8935 
 490   0.0000       1.803924        49.0873 
 491   0.0000       1.806021        49.1443 
 492   0.0000       1.810765        49.2734 
 493   0.0000       1.817734        49.4631 
 494   0.0000       1.821145        49.5559 
 495   0.0000       1.833331        49.8875 
 496   0.0000       1.837396        49.9981 
 497   0.0000       1.843750        50.1710 
 498   0.0000       1.852487        50.4087 
 499   0.0000       1.853186        50.4278 
 500   0.0000       1.867968        50.8300 
 501   0.0000       1.872703        50.9588 
 502   0.0000       1.882545        51.2266 
 503   0.0000       1.884626        51.2833 
 504   0.0000       1.893316        51.5197 
 505   0.0000       1.903297        51.7913 
 506   0.0000       1.907244        51.8988 
 507   0.0000       1.910316        51.9823 
 508   0.0000       1.926424        52.4207 
 509   0.0000       1.939799        52.7846 
 510   0.0000       1.956894        53.2498 
 511   0.0000       1.968744        53.5723 
 512   0.0000       1.974607        53.7318 
 513   0.0000       1.984514        54.0014 
 514   0.0000       1.997586        54.3571 
 515   0.0000       2.007758        54.6339 
 516   0.0000       2.013560        54.7917 
 517   0.0000       2.024149        55.0799 
 518   0.0000       2.032166        55.2981 
 519   0.0000       2.044322        55.6288 
 520   0.0000       2.051056        55.8121 
 521   0.0000       2.064924        56.1894 
 522   0.0000       2.076412        56.5020 
 523   0.0000       2.084969        56.7349 
 524   0.0000       2.113111        57.5007 
 525   0.0000       2.123400        57.7807 
 526   0.0000       2.132292        58.0226 
 527   0.0000       2.140781        58.2536 
 528   0.0000       2.145895        58.3928 
 529   0.0000       2.154231        58.6196 
 530   0.0000       2.163792        58.8798 
 531   0.0000       2.169202        59.0270 
 532   0.0000       2.177029        59.2400 
 533   0.0000       2.194806        59.7237 
 534   0.0000       2.204548        59.9888 
 535   0.0000       2.218038        60.3559 
 536   0.0000       2.220733        60.4292 
 537   0.0000       2.240547        60.9684 
 538   0.0000       2.252835        61.3028 
 539   0.0000       2.271338        61.8063 
 540   0.0000       2.295408        62.4612 
 541   0.0000       2.295985        62.4769 
 542   0.0000       2.314776        62.9882 
 543   0.0000       2.335692        63.5574 
 544   0.0000       2.339377        63.6577 
 545   0.0000       2.343707        63.7755 
 546   0.0000       2.360215        64.2247 
 547   0.0000       2.373731        64.5925 
 548   0.0000       2.377574        64.6971 
 549   0.0000       2.391691        65.0812 
 550   0.0000       2.405597        65.4596 
 551   0.0000       2.413505        65.6748 
 552   0.0000       2.447099        66.5890 
 553   0.0000       2.451899        66.7196 
 554   0.0000       2.457957        66.8844 
 555   0.0000       2.472470        67.2793 
 556   0.0000       2.480177        67.4890 
 557   0.0000       2.490605        67.7728 
 558   0.0000       2.502668        68.1011 
 559   0.0000       2.507362        68.2288 
 560   0.0000       2.520162        68.5771 
 561   0.0000       2.525701        68.7278 
 562   0.0000       2.555105        69.5280 
 563   0.0000       2.557106        69.5824 
 564   0.0000       2.583456        70.2994 
 565   0.0000       2.600582        70.7654 
 566   0.0000       2.616743        71.2052 
 567   0.0000       2.642940        71.9181 
 568   0.0000       2.643999        71.9469 
 569   0.0000       2.647840        72.0514 
 570   0.0000       2.665244        72.5250 
 571   0.0000       2.682125        72.9843 
 572   0.0000       2.696358        73.3716 
 573   0.0000       2.701166        73.5025 
 574   0.0000       2.709787        73.7371 
 575   0.0000       2.718752        73.9810 
 576   0.0000       2.728599        74.2490 
 577   0.0000       2.747428        74.7613 
 578   0.0000       2.765482        75.2526 
 579   0.0000       2.778070        75.5951 
 580   0.0000       2.790036        75.9207 
 581   0.0000       2.830071        77.0101 
 582   0.0000       2.838501        77.2395 
 583   0.0000       2.840204        77.2859 
 584   0.0000       2.859222        77.8034 
 585   0.0000       2.867511        78.0289 
 586   0.0000       2.894380        78.7601 
 587   0.0000       2.905763        79.0698 
 588   0.0000       2.919068        79.4319 
 589   0.0000       2.921332        79.4935 
 590   0.0000       2.927237        79.6542 
 591   0.0000       2.929583        79.7180 
 592   0.0000       2.940570        80.0170 
 593   0.0000       2.951421        80.3123 
 594   0.0000       2.954414        80.3937 
 595   0.0000       2.959630        80.5356 
 596   0.0000       2.963627        80.6444 
 597   0.0000       2.977455        81.0207 
 598   0.0000       2.979076        81.0648 
 599   0.0000       2.988502        81.3213 
 600   0.0000       2.992840        81.4393 
 601   0.0000       3.001083        81.6636 
 602   0.0000       3.004041        81.7441 
 603   0.0000       3.012676        81.9791 
 604   0.0000       3.016448        82.0817 
 605   0.0000       3.024808        82.3092 
 606   0.0000       3.027258        82.3759 
 607   0.0000       3.036106        82.6166 
 608   0.0000       3.038078        82.6703 
 609   0.0000       3.047813        82.9352 
 610   0.0000       3.052534        83.0637 
 611   0.0000       3.058850        83.2355 
 612   0.0000       3.060716        83.2863 
 613   0.0000       3.066537        83.4447 
 614   0.0000       3.074277        83.6553 
 615   0.0000       3.076387        83.7127 
 616   0.0000       3.083753        83.9132 
 617   0.0000       3.088106        84.0316 
 618   0.0000       3.097112        84.2767 
 619   0.0000       3.107842        84.5687 
 620   0.0000       3.113451        84.7213 
 621   0.0000       3.121276        84.9342 
 622   0.0000       3.126527        85.0771 
 623   0.0000       3.134606        85.2970 
 624   0.0000       3.143954        85.5513 
 625   0.0000       3.145469        85.5926 
 626   0.0000       3.153676        85.8159 
 627   0.0000       3.156582        85.8950 
 628   0.0000       3.158383        85.9440 
 629   0.0000       3.163285        86.0774 
 630   0.0000       3.167976        86.2050 
 631   0.0000       3.176438        86.4353 
 632   0.0000       3.180025        86.5329 
 633   0.0000       3.182651        86.6043 
 634   0.0000       3.189547        86.7920 
 635   0.0000       3.195491        86.9537 
 636   0.0000       3.202904        87.1554 
 637   0.0000       3.204928        87.2105 
 638   0.0000       3.212630        87.4201 
 639   0.0000       3.220240        87.6272 
 640   0.0000       3.226252        87.7908 
 641   0.0000       3.233161        87.9788 
 642   0.0000       3.239117        88.1409 
 643   0.0000       3.246487        88.3414 
 644   0.0000       3.249674        88.4281 
 645   0.0000       3.263047        88.7920 
 646   0.0000       3.268582        88.9426 
 647   0.0000       3.270802        89.0030 
 648   0.0000       3.278492        89.2123 
 649   0.0000       3.281841        89.3034 
 650   0.0000       3.294066        89.6361 
 651   0.0000       3.295112        89.6646 
 652   0.0000       3.304634        89.9237 
 653   0.0000       3.310231        90.0760 
 654   0.0000       3.320165        90.3463 
 655   0.0000       3.327645        90.5498 
 656   0.0000       3.332276        90.6759 
 657   0.0000       3.339729        90.8787 
 658   0.0000       3.343720        90.9872 
 659   0.0000       3.348620        91.1206 
 660   0.0000       3.355614        91.3109 
 661   0.0000       3.357438        91.3605 
 662   0.0000       3.362263        91.4918 
 663   0.0000       3.371232        91.7359 
 664   0.0000       3.373069        91.7859 
 665   0.0000       3.376345        91.8750 
 666   0.0000       3.387428        92.1766 
 667   0.0000       3.392339        92.3102 
 668   0.0000       3.400300        92.5269 
 669   0.0000       3.405303        92.6630 
 670   0.0000       3.411834        92.8407 
 671   0.0000       3.420019        93.0635 
 672   0.0000       3.426493        93.2396 
 673   0.0000       3.434731        93.4638 
 674   0.0000       3.448233        93.8312 
 675   0.0000       3.457042        94.0709 
 676   0.0000       3.464543        94.2750 
 677   0.0000       3.471706        94.4699 
 678   0.0000       3.480146        94.6996 
 679   0.0000       3.489206        94.9461 
 680   0.0000       3.492700        95.0412 
 681   0.0000       3.498428        95.1971 
 682   0.0000       3.511549        95.5541 
 683   0.0000       3.516802        95.6971 
 684   0.0000       3.517762        95.7232 
 685   0.0000       3.526653        95.9651 
 686   0.0000       3.527664        95.9926 
 687   0.0000       3.533990        96.1647 
 688   0.0000       3.536379        96.2298 
 689   0.0000       3.547501        96.5324 
 690   0.0000       3.551253        96.6345 
 691   0.0000       3.553262        96.6892 
 692   0.0000       3.558575        96.8338 
 693   0.0000       3.570610        97.1612 
 694   0.0000       3.582393        97.4819 
 695   0.0000       3.584621        97.5425 
 696   0.0000       3.586869        97.6037 
 697   0.0000       3.595269        97.8322 
 698   0.0000       3.606588        98.1402 
 699   0.0000       3.608564        98.1940 
 700   0.0000       3.616725        98.4161 
 701   0.0000       3.621312        98.5409 
 702   0.0000       3.636963        98.9668 
 703   0.0000       3.641707        99.0959 
 704   0.0000       3.651477        99.3617 
 705   0.0000       3.671257        99.9000 
 706   0.0000       3.686568       100.3166 
 707   0.0000       3.690229       100.4162 
 708   0.0000       3.693348       100.5011 
 709   0.0000       3.710510       100.9681 
 710   0.0000       3.717684       101.1633 
 711   0.0000       3.731239       101.5322 
 712   0.0000       3.740702       101.7897 
 713   0.0000       3.743380       101.8626 
 714   0.0000       3.751427       102.0815 
 715   0.0000       3.753479       102.1374 
 716   0.0000       3.758550       102.2753 
 717   0.0000       3.764309       102.4320 
 718   0.0000       3.770862       102.6104 
 719   0.0000       3.776033       102.7511 
 720   0.0000       3.782670       102.9317 
 721   0.0000       3.794169       103.2446 
 722   0.0000       3.796261       103.3015 
 723   0.0000       3.806288       103.5744 
 724   0.0000       3.811771       103.7236 
 725   0.0000       3.817111       103.8689 
 726   0.0000       3.833349       104.3107 
 727   0.0000       3.836937       104.4084 
 728   0.0000       3.854779       104.8939 
 729   0.0000       3.866231       105.2055 
 730   0.0000       3.876303       105.4796 
 731   0.0000       3.880850       105.6033 
 732   0.0000       3.885197       105.7216 
 733   0.0000       3.898075       106.0720 
 734   0.0000       3.905379       106.2708 
 735   0.0000       3.926241       106.8384 
 736   0.0000       3.939767       107.2065 
 737   0.0000       3.961865       107.8078 
 738   0.0000       3.974012       108.1384 
 739   0.0000       3.978100       108.2496 
 740   0.0000       3.989260       108.5533 
 741   0.0000       3.998373       108.8013 
 742   0.0000       4.005986       109.0084 
 743   0.0000       4.016236       109.2873 
 744   0.0000       4.020906       109.4144 
 745   0.0000       4.032366       109.7262 
 746   0.0000       4.036217       109.8310 
 747   0.0000       4.040994       109.9610 
 748   0.0000       4.049008       110.1791 
 749   0.0000       4.055054       110.3436 
 750   0.0000       4.062871       110.5563 
 751   0.0000       4.069406       110.7342 
 752   0.0000       4.072630       110.8219 
 753   0.0000       4.078483       110.9812 
 754   0.0000       4.083294       111.1121 
 755   0.0000       4.097801       111.5068 
 756   0.0000       4.107368       111.7672 
 757   0.0000       4.108955       111.8103 
 758   0.0000       4.120247       112.1176 
 759   0.0000       4.128661       112.3466 
 760   0.0000       4.136750       112.5667 
 761   0.0000       4.155352       113.0729 
 762   0.0000       4.182749       113.8184 
 763   0.0000       4.193240       114.1039 
 764   0.0000       4.198491       114.2467 
 765   0.0000       4.203172       114.3741 
 766   0.0000       4.220713       114.8514 
 767   0.0000       4.223451       114.9259 
 768   0.0000       4.225119       114.9713 
 769   0.0000       4.229373       115.0871 
 770   0.0000       4.233849       115.2089 
 771   0.0000       4.238153       115.3260 
 772   0.0000       4.248294       115.6020 
 773   0.0000       4.256642       115.8291 
 774   0.0000       4.258539       115.8807 
 775   0.0000       4.271692       116.2386 
 776   0.0000       4.273744       116.2945 
 777   0.0000       4.291747       116.7844 
 778   0.0000       4.302813       117.0855 
 779   0.0000       4.310337       117.2902 
 780   0.0000       4.318347       117.5082 
 781   0.0000       4.330673       117.8436 
 782   0.0000       4.348311       118.3236 
 783   0.0000       4.356614       118.5495 
 784   0.0000       4.366667       118.8231 
 785   0.0000       4.368971       118.8857 
 786   0.0000       4.378820       119.1537 
 787   0.0000       4.386375       119.3593 
 788   0.0000       4.396273       119.6287 
 789   0.0000       4.401267       119.7646 
 790   0.0000       4.413507       120.0976 
 791   0.0000       4.420803       120.2962 
 792   0.0000       4.422682       120.3473 
 793   0.0000       4.431405       120.5847 
 794   0.0000       4.435517       120.6966 
 795   0.0000       4.443849       120.9233 
 796   0.0000       4.452514       121.1591 
 797   0.0000       4.454332       121.2085 
 798   0.0000       4.464871       121.4953 
 799   0.0000       4.472972       121.7158 
 800   0.0000       4.488702       122.1438 
 801   0.0000       4.496640       122.3598 
 802   0.0000       4.504475       122.5730 
 803   0.0000       4.511978       122.7772 
 804   0.0000       4.520013       122.9958 
 805   0.0000       4.522517       123.0639 
 806   0.0000       4.539322       123.5212 
 807   0.0000       4.557472       124.0151 
 808   0.0000       4.559208       124.0624 
 809   0.0000       4.565873       124.2437 
 810   0.0000       4.578525       124.5880 
 811   0.0000       4.586838       124.8142 
 812   0.0000       4.587778       124.8398 
 813   0.0000       4.606180       125.3405 
 814   0.0000       4.609346       125.4267 
 815   0.0000       4.631702       126.0350 
 816   0.0000       4.655599       126.6853 
 817   0.0000       4.678601       127.3112 
 818   0.0000       4.695456       127.7699 
 819   0.0000       4.714757       128.2951 
 820   0.0000       4.724292       128.5545 
 821   0.0000       4.736501       128.8867 
 822   0.0000       4.754776       129.3840 
 823   0.0000       4.758227       129.4779 
 824   0.0000       4.768768       129.7648 
 825   0.0000       4.777133       129.9924 
 826   0.0000       4.788938       130.3136 
 827   0.0000       4.796032       130.5067 
 828   0.0000       4.801697       130.6608 
 829   0.0000       4.816836       131.0728 
 830   0.0000       4.819281       131.1393 
 831   0.0000       4.835201       131.5725 
 832   0.0000       4.837864       131.6450 
 833   0.0000       4.843428       131.7964 
 834   0.0000       4.865961       132.4095 
 835   0.0000       4.873060       132.6027 
 836   0.0000       4.878070       132.7390 
 837   0.0000       4.888219       133.0152 
 838   0.0000       4.895396       133.2105 
 839   0.0000       4.924444       134.0009 
 840   0.0000       4.930443       134.1642 
 841   0.0000       4.938530       134.3842 
 842   0.0000       4.953195       134.7833 
 843   0.0000       4.959358       134.9510 
 844   0.0000       4.973825       135.3447 
 845   0.0000       4.989411       135.7688 
 846   0.0000       4.996648       135.9657 
 847   0.0000       5.004398       136.1766 
 848   0.0000       5.023773       136.7038 
 849   0.0000       5.033523       136.9691 
 850   0.0000       5.039258       137.1252 
 851   0.0000       5.051010       137.4450 
 852   0.0000       5.060199       137.6950 
 853   0.0000       5.068892       137.9316 
 854   0.0000       5.072847       138.0392 
 855   0.0000       5.083989       138.3424 
 856   0.0000       5.102946       138.8582 
 857   0.0000       5.110833       139.0728 
 858   0.0000       5.116524       139.2277 
 859   0.0000       5.134779       139.7244 
 860   0.0000       5.140059       139.8681 
 861   0.0000       5.154042       140.2486 
 862   0.0000       5.163674       140.5107 
 863   0.0000       5.179148       140.9318 
 864   0.0000       5.211270       141.8059 
 865   0.0000       5.219607       142.0327 
 866   0.0000       5.222218       142.1038 
 867   0.0000       5.228122       142.2644 
 868   0.0000       5.232009       142.3702 
 869   0.0000       5.251473       142.8999 
 870   0.0000       5.261013       143.1594 
 871   0.0000       5.261724       143.1788 
 872   0.0000       5.271423       143.4427 
 873   0.0000       5.278537       143.6363 
 874   0.0000       5.282791       143.7520 
 875   0.0000       5.296664       144.1295 
 876   0.0000       5.306133       144.3872 
 877   0.0000       5.314480       144.6143 
 878   0.0000       5.335766       145.1936 
 879   0.0000       5.357033       145.7723 
 880   0.0000       5.364720       145.9815 
 881   0.0000       5.366715       146.0357 
 882   0.0000       5.381140       146.4283 
 883   0.0000       5.384980       146.5328 
 884   0.0000       5.393126       146.7544 
 885   0.0000       5.408193       147.1644 
 886   0.0000       5.412750       147.2884 
 887   0.0000       5.418708       147.4505 
 888   0.0000       5.423733       147.5873 
 889   0.0000       5.429211       147.7363 
 890   0.0000       5.450048       148.3034 
 891   0.0000       5.457346       148.5019 
 892   0.0000       5.466601       148.7538 
 893   0.0000       5.481511       149.1595 
 894   0.0000       5.492942       149.4706 
 895   0.0000       5.507498       149.8666 
 896   0.0000       5.523400       150.2994 
 897   0.0000       5.527446       150.4095 
 898   0.0000       5.535950       150.6409 
 899   0.0000       5.544190       150.8651 
 900   0.0000       5.550135       151.0269 
 901   0.0000       5.567339       151.4950 
 902   0.0000       5.587560       152.0452 
 903   0.0000       5.591783       152.1601 
 904   0.0000       5.600770       152.4047 
 905   0.0000       5.608840       152.6243 
 906   0.0000       5.634274       153.3164 
 907   0.0000       5.657624       153.9518 
 908   0.0000       5.661223       154.0497 
 909   0.0000       5.688734       154.7983 
 910   0.0000       5.700439       155.1168 
 911   0.0000       5.719620       155.6388 
 912   0.0000       5.755233       156.6079 
 913   0.0000       5.796072       157.7191 
 914   0.0000       5.816301       158.2696 
 915   0.0000       5.822815       158.4468 
 916   0.0000       5.838288       158.8679 
 917   0.0000       5.854474       159.3083 
 918   0.0000       5.864366       159.5775 
 919   0.0000       5.880528       160.0173 
 920   0.0000       5.889252       160.2547 
 921   0.0000       5.904258       160.6630 
 922   0.0000       5.934650       161.4900 
 923   0.0000       5.948799       161.8750 
 924   0.0000       5.998654       163.2317 
 925   0.0000       6.008935       163.5114 
 926   0.0000       6.050013       164.6292 
 927   0.0000       6.066368       165.0743 
 928   0.0000       6.180506       168.1801 
 929   0.0000       6.226392       169.4287 
 930   0.0000       6.248926       170.0419 
 931   0.0000       6.289407       171.1435 
 932   0.0000       6.334663       172.3750 
 933   0.0000       6.355764       172.9491 
 934   0.0000       6.419411       174.6810 
 935   0.0000       6.744835       183.5363 
 936   0.0000       6.953815       189.2229 
 937   0.0000      23.225982       632.0111 
 938   0.0000      23.239950       632.3912 
 939   0.0000      23.293318       633.8434 
 940   0.0000      23.348696       635.3503 
 941   0.0000      23.363030       635.7404 
 942   0.0000      23.438621       637.7973 
 943   0.0000      23.509296       639.7205 
 944   0.0000      23.686424       644.5404 
 945   0.0000      23.825526       648.3255 
 946   0.0000      23.836606       648.6270 
 947   0.0000      23.917206       650.8203 
 948   0.0000      23.989381       652.7842 
 949   0.0000      24.017142       653.5397 
 950   0.0000      32.905889       895.4148 
 951   0.0000      33.107591       900.9033 
 952   0.0000      33.194806       903.2766 
 953   0.0000      34.754900       945.7289 
 954   0.0000      34.788844       946.6526 
 955   0.0000      34.946478       950.9420 
 956   0.0000      43.176108      1174.8816 
 957   0.0000     106.931779      2909.7616 
 958   0.0000     118.313141      3219.4642 

                    ********************************
                    * MULLIKEN POPULATION ANALYSIS *
                    ********************************

-----------------------
MULLIKEN ATOMIC CHARGES
-----------------------
   0 C :    0.149674
   1 C :   -0.324054
   2 C :   -0.028052
   3 C :   -0.267262
   4 H :    0.002051
   5 H :    0.029054
   6 H :    0.063709
   7 H :    0.019701
   8 N :    0.487245
   9 C :    0.650719
  10 C :    0.114251
  11 N :    0.612781
  12 C :    0.144549
  13 C :   -0.083450
  14 C :   -0.324075
  15 H :   -0.013802
  16 H :    0.029871
  17 C :   -0.316340
  18 H :    0.015779
  19 H :    0.060698
  20 Pd:   -0.890791
  21 C :   -0.274663
  22 H :    0.143497
  23 H :    0.112059
  24 H :    0.160997
  25 C :   -0.131335
  26 H :    0.149988
  27 H :    0.009104
  28 H :    0.149296
  29 I :   -0.545693
  30 C :   -0.206420
  31 H :    0.086637
  32 H :    0.045439
  33 H :    0.168837
Sum of atomic charges:    0.0000000

--------------------------------
MULLIKEN REDUCED ORBITAL CHARGES
--------------------------------
  0 C s       :     3.138618  s :     3.138618
      pz      :     0.882004  p :     2.522567
      px      :     0.906353
      py      :     0.734210
      dz2     :    -0.010858  d :     0.177305
      dxz     :    -0.011538
      dyz     :     0.053786
      dx2y2   :     0.059219
      dxy     :     0.086695
      f0      :     0.001357  f :     0.011836
      f+1     :     0.001000
      f-1     :     0.001079
      f+2     :     0.002027
      f-2     :     0.000597
      f+3     :     0.003933
      f-3     :     0.001843
  1 C s       :     3.681909  s :     3.681909
      pz      :     0.925412  p :     2.520341
      px      :     0.794168
      py      :     0.800761
      dz2     :     0.007027  d :     0.114140
      dxz     :     0.017351
      dyz     :     0.014737
      dx2y2   :     0.081723
      dxy     :    -0.006698
      f0      :     0.000744  f :     0.007664
      f+1     :     0.001241
      f-1     :     0.000762
      f+2     :     0.000616
[...]
      dxz     :     0.169539
      dyz     :     0.145952
      dx2y2   :     0.326036
      dxy     :     0.266193
      f0      :     0.005610  f :     0.075104
      f+1     :     0.006334
      f-1     :     0.006171
      f+2     :     0.008565
      f-2     :     0.010603
      f+3     :     0.024053
      f-3     :     0.013767
 10 C s       :     2.610141  s :     2.610141
      pz      :     0.740770  p :     2.478830
      px      :     0.856441
      py      :     0.881619
      dz2     :     0.115757  d :     1.019176
      dxz     :     0.174264
      dyz     :     0.151241
      dx2y2   :     0.310178
      dxy     :     0.267736
      f0      :     0.005629  f :     0.075277
      f+1     :     0.007450
      f-1     :     0.005865
      f+2     :     0.011109
      f-2     :     0.009394
      f+3     :     0.021314
      f-3     :     0.014516
 11 N s       :     2.909543  s :     2.909543
      pz      :     1.003961  p :     3.289978
      px      :     1.133966
      py      :     1.152052
      dz2     :     0.093497  d :     0.768511
      dxz     :     0.117727
      dyz     :     0.134491
      dx2y2   :     0.201053
      dxy     :     0.221742
      f0      :     0.001466  f :     0.018213
      f+1     :     0.001652
      f-1     :     0.001486
      f+2     :     0.003322
      f-2     :     0.001430
      f+3     :     0.005101
      f-3     :     0.003756
 12 C s       :     2.640608  s :     2.640608
      pz      :     0.724217  p :     2.501597
      px      :     0.894792
      py      :     0.882588
      dz2     :     0.072119  d :     0.813232
      dxz     :     0.079923
      dyz     :     0.163308
      dx2y2   :     0.262738
      dxy     :     0.235144
      f0      :     0.005379  f :     0.064326
      f+1     :     0.002283
      f-1     :     0.007570
      f+2     :     0.009090
      f-2     :     0.006181
      f+3     :     0.017625
      f-3     :     0.016198
 13 C s       :     2.652799  s :     2.652799
      pz      :     0.735727  p :     2.574604
      px      :     0.901011
      py      :     0.937865
      dz2     :     0.068243  d :     0.673326
      dxz     :     0.081504
      dyz     :     0.114306
      dx2y2   :     0.161637
      dxy     :     0.247636
      f0      :     0.003641  f :     0.044448
      f+1     :     0.003850
      f-1     :     0.003469
      f+2     :     0.007680
      f-2     :     0.004050
      f+3     :     0.012382
      f-3     :     0.009377
 14 C s       :     2.651440  s :     2.651440
      pz      :     0.758291  p :     2.594178
      px      :     0.916441
      py      :     0.919445
      dz2     :     0.076256  d :     0.644951
      dxz     :     0.117132
      dyz     :     0.059563
      dx2y2   :     0.220879
      dxy     :     0.171122
      f0      :     0.002820  f :     0.043853
      f+1     :     0.004482
      f-1     :     0.004185
      f+2     :     0.004515
      f-2     :     0.007099
      f+3     :     0.010875
      f-3     :     0.009877
 15 H s       :     0.683768  s :     0.683768
      pz      :     0.079380  p :     0.285928
      px      :     0.133744
      py      :     0.072804
      dz2     :     0.003654  d :     0.028613
      dxz     :     0.007763
      dyz     :     0.001671
      dx2y2   :     0.007720
      dxy     :     0.007805
 16 H s       :     0.706049  s :     0.706049
      pz      :     0.070795  p :     0.258534
      px      :     0.066719
      py      :     0.121021
      dz2     :     0.002834  d :     0.028582
      dxz     :     0.000460
      dyz     :     0.007902
      dx2y2   :     0.008680
      dxy     :     0.008705
 17 C s       :     2.634433  s :     2.634433
      pz      :     0.754513  p :     2.564999
      px      :     0.879002
      py      :     0.931484
      dz2     :     0.063031  d :     0.667885
      dxz     :     0.063502
      dyz     :     0.130007
      dx2y2   :     0.205623
      dxy     :     0.205721
      f0      :     0.004039  f :     0.044032
      f+1     :     0.002151
      f-1     :     0.004756
      f+2     :     0.005738
      f-2     :     0.005478
      f+3     :     0.011975
      f-3     :     0.009895
 18 H s       :     0.687872  s :     0.687872
      pz      :     0.077915  p :     0.283249
      px      :     0.108709
      py      :     0.096625
      dz2     :     0.003989  d :     0.029127
      dxz     :     0.007568
      dyz     :     0.002198
      dx2y2   :     0.007790
      dxy     :     0.007582
 19 H s       :     0.705826  s :     0.705826
      pz      :     0.072769  p :     0.256426
      px      :     0.094163
      py      :     0.089493
      dz2     :     0.003314  d :     0.028274
      dxz     :     0.004649
      dyz     :     0.004106
      dx2y2   :     0.008209
      dxy     :     0.007996
 20 Pds       :     2.025360  s :     2.025360
      pz      :     2.277258  p :     6.632762
      px      :     2.190334
      py      :     2.165170
      dz2     :     1.587829  d :     8.608537
      dxz     :     1.795649
      dyz     :     1.872889
      dx2y2   :     1.894662
      dxy     :     1.457508
      f0      :     0.009012  f :     0.046239
      f+1     :     0.007365
      f-1     :     0.005039
      f+2     :     0.001249
      f-2     :     0.006570
      f+3     :     0.007011
      f-3     :     0.009992
      g0      :     0.000082  g :     0.000551
      g+1     :     0.000082
      g-1     :     0.000057
      g+2     :     0.000018
      g-2     :     0.000065
      g+3     :     0.000035
      g-3     :     0.000048
      g+4     :     0.000090
      g-4     :     0.000074
 21 C s       :     2.705830  s :     2.705830
      pz      :     0.959098  p :     2.743722
      px      :     0.895374
      py      :     0.889250
      dz2     :     0.080903  d :     0.499581
      dxz     :     0.109759
      dyz     :     0.119825
      dx2y2   :     0.073145
      dxy     :     0.115950
      f0      :     0.003389  f :     0.023613
      f+1     :     0.003083
      f-1     :     0.002939
      f+2     :     0.002454
      f-2     :     0.005003
      f+3     :     0.003298
      f-3     :     0.003447
 22 H s       :     0.720266  s :     0.720266
      pz      :     0.114314  p :     0.344934
      px      :     0.108055
      py      :     0.122565
      dz2     :     0.006594  d :     0.029719
      dxz     :     0.004539
      dyz     :     0.007347
      dx2y2   :     0.005613
      dxy     :     0.005626
 23 H s       :     0.724649  s :     0.724649
      pz      :     0.159724  p :     0.365007
      px      :     0.103562
      py      :     0.101721
      dz2     :     0.008043  d :     0.029825
      dxz     :     0.007498
      dyz     :     0.007653
      dx2y2   :     0.002881
      dxy     :     0.003750
 24 H s       :     0.715058  s :     0.715058
      pz      :     0.106694  p :     0.342530
      px      :     0.118383
      py      :     0.117453
      dz2     :     0.005429  d :     0.030058
      dxz     :     0.006785
      dyz     :     0.004656
      dx2y2   :     0.006848
      dxy     :     0.006339
 25 C s       :     2.707095  s :     2.707095
      pz      :     0.961673  p :     2.742661
      px      :     0.907530
      py      :     0.873457
      dz2     :     0.115322  d :     0.505985
      dxz     :     0.085473
      dyz     :     0.104938
      dx2y2   :     0.104380
      dxy     :     0.095872
      f0      :     0.004759  f :     0.023728
      f+1     :     0.001736
      f-1     :     0.002138
      f+2     :     0.004282
      f-2     :     0.003853
      f+3     :     0.003889
      f-3     :     0.003070
 26 H s       :     0.719807  s :     0.719807
      pz      :     0.115558  p :     0.354072
      px      :     0.136366
      py      :     0.102149
      dz2     :     0.005519  d :     0.030084
      dxz     :     0.007868
      dyz     :     0.002264
      dx2y2   :     0.007286
      dxy     :     0.007146
 27 H s       :     0.721356  s :     0.721356
      pz      :     0.103235  p :     0.359570
      px      :     0.121140
      py      :     0.135196
      dz2     :     0.005545  d :     0.029663
      dxz     :     0.002795
      dyz     :     0.007080
      dx2y2   :     0.007410
      dxy     :     0.006834
 28 H s       :     0.720035  s :     0.720035
      pz      :     0.146602  p :     0.337480
      px      :     0.096253
      py      :     0.094625
      dz2     :     0.009949  d :     0.029781
      dxz     :     0.009403
      dyz     :     0.009210
      dx2y2   :     0.000400
      dxy     :     0.000820
 29 I s       :     3.769606  s :     3.769606
      pz      :     3.473273  p :    11.111307
      px      :     3.800584
      py      :     3.837450
      dz2     :     2.037484  d :    10.132990
      dxz     :     2.039858
      dyz     :     2.036882
      dx2y2   :     2.007322
      dxy     :     2.011445
      f0      :     0.001742  f :     0.005214
      f+1     :     0.001492
      f-1     :     0.001271
      f+2     :     0.000275
      f-2     :     0.000362
      f+3     :     0.000024
      f-3     :     0.000047
 30 C s       :     2.714220  s :     2.714220
      pz      :     0.850456  p :     2.745585
      px      :     0.943079
      py      :     0.952049
      dz2     :     0.095563  d :     0.437343
      dxz     :     0.114835
      dyz     :     0.062981
      dx2y2   :     0.054495
      dxy     :     0.109469
      f0      :     0.003226  f :     0.022377
      f+1     :     0.002934
      f-1     :     0.004002
      f+2     :     0.004069
      f-2     :     0.002546
      f+3     :     0.003745
      f-3     :     0.001854
 31 H s       :     0.730882  s :     0.730882
      pz      :     0.099131  p :     0.332418
      px      :     0.095029
      py      :     0.138257
      dz2     :     0.002768  d :     0.029668
      dxz     :     0.001548
      dyz     :     0.008113
      dx2y2   :     0.008266
      dxy     :     0.008973
 32 H s       :     0.734529  s :     0.734529
      pz      :     0.100922  p :     0.328498
      px      :     0.112858
      py      :     0.114719
      dz2     :     0.003203  d :     0.029530
      dxz     :     0.005326
      dyz     :     0.004661
      dx2y2   :     0.009021
      dxy     :     0.007319
 33 H s       :     0.718325  s :     0.718325
      pz      :     0.118612  p :     0.345524
      px      :     0.133915
      py      :     0.092997
      dz2     :     0.006763  d :     0.030083
      dxz     :     0.008679
      dyz     :     0.002965
      dx2y2   :     0.005198
      dxy     :     0.006478


                      *****************************
                      * MAYER POPULATION ANALYSIS *
                      *****************************

  NA   - Mulliken gross atomic population
  ZA   - Total nuclear charge
  QA   - Mulliken gross atomic charge
  VA   - Mayer's total valence
  BVA  - Mayer's bonded valence
  FA   - Mayer's free valence

  ATOM       NA         ZA         QA         VA         BVA        FA
  0 C      5.8503     6.0000     0.1497     3.3521     3.3521    -0.0000
  1 C      6.3241     6.0000    -0.3241     3.2000     3.2000     0.0000
  2 C      6.0281     6.0000    -0.0281     3.1395     3.1395     0.0000
  3 C      6.2673     6.0000    -0.2673     2.5149     2.5149     0.0000
  4 H      0.9979     1.0000     0.0021     0.9477     0.9477     0.0000
  5 H      0.9709     1.0000     0.0291     0.9905     0.9905     0.0000
  6 H      0.9363     1.0000     0.0637     0.9334     0.9334     0.0000
  7 H      0.9803     1.0000     0.0197     0.9464     0.9464     0.0000
  8 N      6.5128     7.0000     0.4872     3.0683     3.0683     0.0000
  9 C      5.3493     6.0000     0.6507     2.3616     2.3616     0.0000
 10 C      5.8857     6.0000     0.1143     2.9789     2.9789     0.0000
 11 N      6.3872     7.0000     0.6128     2.9810     2.9810    -0.0000
 12 C      5.8555     6.0000     0.1445     3.4106     3.4106    -0.0000
 13 C      6.0834     6.0000    -0.0834     3.2234     3.2234    -0.0000
 14 C      6.3241     6.0000    -0.3241     3.1987     3.1987     0.0000
 15 H      1.0138     1.0000    -0.0138     1.0429     1.0429     0.0000
 16 H      0.9701     1.0000     0.0299     0.9863     0.9863     0.0000
 17 C      6.3163     6.0000    -0.3163     2.4699     2.4699     0.0000
 18 H      0.9842     1.0000     0.0158     0.9442     0.9442     0.0000
 19 H      0.9393     1.0000     0.0607     0.9355     0.9355     0.0000
 20 Pd    18.8908    18.0000    -0.8908     4.7582     4.7582     0.0000
 21 C      6.2747     6.0000    -0.2747     3.5975     3.5975     0.0000
 22 H      0.8565     1.0000     0.1435     1.2021     1.2021     0.0000
 23 H      0.8879     1.0000     0.1121     1.3592     1.3592     0.0000
 24 H      0.8390     1.0000     0.1610     1.0806     1.0806     0.0000
 25 C      6.1313     6.0000    -0.1313     3.6233     3.6233     0.0000
 26 H      0.8500     1.0000     0.1500     1.2017     1.2017     0.0000
 27 H      0.9909     1.0000     0.0091     1.3601     1.3601    -0.0000
 28 H      0.8507     1.0000     0.1493     1.1584     1.1584    -0.0000
 29 I     25.5457    25.0000    -0.5457     0.8245     0.8245    -0.0000
 30 C      6.2064     6.0000    -0.2064     3.5888     3.5888     0.0000
 31 H      0.9134     1.0000     0.0866     1.2892     1.2892     0.0000
 32 H      0.9546     1.0000     0.0454     1.3502     1.3502     0.0000
 33 H      0.8312     1.0000     0.1688     1.1142     1.1142     0.0000

  Mayer bond orders larger than 0.100000
B(  0-C ,  1-C ) :   1.0818 B(  0-C ,  4-H ) :   1.1111 B(  0-C ,  8-N ) :   1.5216 
B(  0-C , 20-Pd) :  -0.1047 B(  1-C ,  2-C ) :   1.1214 B(  1-C ,  4-H ) :  -0.1077 
B(  1-C ,  5-H ) :   1.1215 B(  1-C ,  8-N ) :  -0.1721 B(  1-C , 20-Pd) :   0.1275 
B(  2-C ,  3-C ) :   1.1731 B(  2-C ,  6-H ) :   1.0568 B(  2-C ,  8-N ) :   0.1341 
B(  3-C ,  7-H ) :   1.2046 B(  3-C ,  8-N ) :  -0.2623 B(  3-C ,  9-C ) :   0.6343 
B(  3-C , 10-C ) :  -0.5099 B(  3-C , 20-Pd) :   0.1565 B(  8-N ,  9-C ) :   1.4244 
B(  8-N , 10-C ) :   0.2215 B(  8-N , 20-Pd) :   0.3693 B(  9-C , 10-C ) :   1.1940 
B(  9-C , 11-N ) :   0.2753 B(  9-C , 17-C ) :  -0.6351 B(  9-C , 20-Pd) :  -0.1704 
B(  9-C , 29-I ) :  -0.1006 B( 10-C , 11-N ) :   1.4433 B( 10-C , 17-C ) :   0.7635 
B( 10-C , 20-Pd) :   0.1183 B( 10-C , 29-I ) :   0.1059 B( 11-N , 12-C ) :   1.4875 
B( 11-N , 13-C ) :   0.1191 B( 11-N , 14-C ) :  -0.2152 B( 11-N , 17-C ) :  -0.3053 
B( 11-N , 20-Pd) :   0.2717 B( 12-C , 14-C ) :   1.0614 B( 12-C , 15-H ) :   1.1313 
B( 13-C , 14-C ) :   1.1625 B( 13-C , 17-C ) :   1.1792 B( 13-C , 19-H ) :   1.0609 
B( 14-C , 16-H ) :   1.1152 B( 14-C , 20-Pd) :   0.1062 B( 17-C , 18-H ) :   1.2013 
B( 17-C , 20-Pd) :   0.1831 B( 20-Pd, 21-C ) :   0.7653 B( 20-Pd, 23-H ) :   0.1365 
B( 20-Pd, 25-C ) :   0.7380 B( 20-Pd, 27-H ) :   0.1418 B( 20-Pd, 29-I ) :   0.7975 
B( 20-Pd, 30-C ) :   0.6434 B( 20-Pd, 31-H ) :   0.1271 B( 20-Pd, 32-H ) :   0.1904 
B( 21-C , 22-H ) :   1.0152 B( 21-C , 23-H ) :   0.9850 B( 21-C , 24-H ) :   0.9941 
B( 21-C , 29-I ) :  -0.1299 B( 23-H , 29-I ) :   0.1359 B( 25-C , 26-H ) :   0.9787 
B( 25-C , 27-H ) :   1.0878 B( 25-C , 28-H ) :   0.9830 B( 25-C , 29-I ) :  -0.1061 
B( 29-I , 30-C ) :   0.1500 B( 30-C , 31-H ) :   1.0096 B( 30-C , 32-H ) :   1.0333 
B( 30-C , 33-H ) :   1.0123 

-------
TIMINGS
-------

Total SCF time: 0 days 0 hours 21 min 17 sec 

Total time                  ....    1277.144 sec
Sum of individual times     ....    1275.665 sec  ( 99.9%)

Fock matrix formation       ....    1261.979 sec  ( 98.8%)
  XC integration            ....      29.212 sec  (  2.3% of F)
    Basis function eval.    ....       2.003 sec  (  6.9% of XC)
    Density eval.           ....      10.235 sec  ( 35.0% of XC)
    XC-Functional eval.     ....       0.208 sec  (  0.7% of XC)
    XC-Potential eval.      ....      11.593 sec  ( 39.7% of XC)
Diagonalization             ....       5.873 sec  (  0.5%)
Density matrix formation    ....       0.215 sec  (  0.0%)
Population analysis         ....       0.209 sec  (  0.0%)
Initial guess               ....       3.634 sec  (  0.3%)
Orbital Transformation      ....       0.000 sec  (  0.0%)
Orbital Orthonormalization  ....       0.000 sec  (  0.0%)
DIIS solution               ....       2.872 sec  (  0.2%)
Grid generation             ....       0.883 sec  (  0.1%)


-------------------------------------------------------------------------------
                          DFT DISPERSION CORRECTION                            
                                                                               
                              DFTD3 V3.1  Rev 1                                
                          USING Becke-Johnson damping                          
-------------------------------------------------------------------------------
The TPSSH functional is recognized
Active option DFTDOPT                   ...         4   

molecular C6(AA) [au] = 18368.086065 


            DFT-D V3
 parameters
 s6 scaling factor         :     1.0000 
 a1 scaling factor         :     0.4529 
 s8 scaling factor         :     2.2382 
 a2 scaling factor         :     4.6550 
 ad hoc parameters k1-k3   :    16.0000     1.3333    -4.0000 

 Edisp/kcal,au: -41.140787836543  -0.065562011648 
 E6   /kcal   : -18.211280894 
 E8   /kcal   : -22.929506943 
 % E8         :  55.734243676 

-------------------------   ----------------
Dispersion correction           -0.065562012
-------------------------   ----------------


-------------------------   --------------------
FINAL SINGLE POINT ENERGY     -1040.990869767442
-------------------------   --------------------


                            ***************************************
                            *     ORCA property calculations      *
                            ***************************************

                                    ---------------------
                                    Active property flags
                                    ---------------------
   (+) Dipole Moment


------------------------------------------------------------------------------
                       ORCA ELECTRIC PROPERTIES CALCULATION
------------------------------------------------------------------------------

Dipole Moment Calculation                       ... on
Quadrupole Moment Calculation                   ... off
Polarizability Calculation                      ... off
GBWName                                         ... MOR29_pr11.gbw
Electron density file                           ... MOR29_pr11.scfp
The origin for moment calculation is the CENTER OF MASS  = ( 0.195003,  0.004756 -0.176087)

-------------
DIPOLE MOMENT
-------------
                                X             Y             Z
Electronic contribution:    145.24598      -3.87196     -70.77376
Nuclear contribution   :   -148.61747       4.04670      71.83695
                        -----------------------------------------
Total Dipole Moment    :     -3.37149       0.17474       1.06319
                        -----------------------------------------
Magnitude (a.u.)       :      3.53947
Magnitude (Debye)      :      8.99662



--------------------
Rotational spectrum 
--------------------
 
Rotational constants in cm-1:     0.010327     0.008787     0.007812 
Rotational constants in MHz :   309.600948   263.417504   234.204311 

 Dipole components along the rotational axes: 
x,y,z [a.u.] :    -3.486188    -0.212051     0.573914 
x,y,z [Debye]:    -8.861185    -0.538990     1.458773 

 

Timings for individual modules:

Sum of individual times         ...     1285.030 sec (=  21.417 min)
GTO integral calculation        ...        7.275 sec (=   0.121 min)   0.6 %
SCF iterations                  ...     1277.755 sec (=  21.296 min)  99.4 %
                             ****ORCA TERMINATED NORMALLY****
TOTAL RUN TIME: 0 days 0 hours 21 minutes 25 seconds 842 msec
