
                                 *****************
                                 * O   R   C   A *
                                 *****************

           --- An Ab Initio, DFT and Semiempirical electronic structure package ---

                  #######################################################
                  #                        -***-                        #
                  #          Department of theory and spectroscopy      #
                  #               Directorship: Frank Neese             #
                  #        Max Planck Institute fuer Kohlenforschung    #
                  #                Kaiser Wilhelm Platz 1               #
                  #                 D-45470 Muelheim/Ruhr               #
                  #                      Germany                        #
                  #                                                     #
                  #                  All rights reserved                #
                  #                        -***-                        #
                  #######################################################


                         Program Version 4.2.0 -  RELEASE  -


 With contributions from (in alphabetic order):
   Daniel Aravena         : Magnetic Suceptibility
   Michael Atanasov       : Ab Initio Ligand Field Theory (pilot matlab implementation)
   Alexander A. Auer      : GIAO ZORA, VPT2
   Ute Becker             : Parallelization
   Giovanni Bistoni       : ED, misc. LED, open-shell LED, HFLED
   Martin Brehm           : Molecular dynamics
   Dmytro Bykov           : SCF Hessian
   Vijay G. Chilkuri      : MRCI spin determinant printing, contributions to CSF-ICE
   Dipayan Datta          : RHF DLPNO-CCSD density
   Achintya Kumar Dutta   : EOM-CC, STEOM-CC
   Dmitry Ganyushin       : Spin-Orbit,Spin-Spin,Magnetic field MRCI
   Miquel Garcia          : C-PCM Hessian, Gaussian charge scheme
   Yang Guo               : DLPNO-NEVPT2, CIM, IAO-localization
   Andreas Hansen         : Spin unrestricted coupled pair/coupled cluster methods
   Benjamin Helmich-Paris : CASSCF linear response (MC-RPA)
   Lee Huntington         : MR-EOM, pCC
   Robert Izsak           : Overlap fitted RIJCOSX, COSX-SCS-MP3, EOM
   Christian Kollmar      : KDIIS, OOCD, Brueckner-CCSD(T), CCSD density
   Simone Kossmann        : Meta GGA functionals, TD-DFT gradient, OOMP2, MP2 Hessian
   Martin Krupicka        : AUTO-CI
   Lucas Lang             : DCDCAS
   Dagmar Lenk            : GEPOL surface, SMD
   Dimitrios Liakos       : Extrapolation schemes; Compound Job, initial MDCI parallelization
   Dimitrios Manganas     : Further ROCIS development; embedding schemes
   Dimitrios Pantazis     : SARC Basis sets
   Taras Petrenko         : DFT Hessian,TD-DFT gradient, ASA, ECA, R-Raman, ABS, FL, XAS/XES, NRVS
   Peter Pinski           : DLPNO-MP2, DLPNO-MP2 Gradient
   Christoph Reimann      : Effective Core Potentials
   Marius Retegan         : Local ZFS, SOC
   Christoph Riplinger    : Optimizer, TS searches, QM/MM, DLPNO-CCSD(T), (RO)-DLPNO pert. Triples
   Tobias Risthaus        : Range-separated hybrids, TD-DFT gradient, RPA, STAB
   Michael Roemelt        : Original ROCIS implementation
   Masaaki Saitow         : Open-shell DLPNO-CCSD energy and density
   Barbara Sandhoefer     : DKH picture change effects
   Avijit Sen             : IP-ROCIS
   Kantharuban Sivalingam : CASSCF convergence, NEVPT2, FIC-MRCI
   Bernardo de Souza      : ESD, SOC TD-DFT
   Georgi Stoychev        : AutoAux, RI-MP2 NMR
   Willem Van den Heuvel  : Paramagnetic NMR
   Boris Wezisla          : Elementary symmetry handling
   Frank Wennmohs         : Technical directorship


 We gratefully acknowledge several colleagues who have allowed us to
 interface, adapt or use parts of their codes:
   Stefan Grimme, W. Hujo, H. Kruse,             : VdW corrections, initial TS optimization,
                  C. Bannwarth                     DFT functionals, gCP, sTDA/sTD-DF
   Ed Valeev, F. Pavosevic, A. Kumar             : LibInt (2-el integral package), F12 methods
   Garnet Chan, S. Sharma, J. Yang, R. Olivares  : DMRG
   Ulf Ekstrom                                   : XCFun DFT Library
   Mihaly Kallay                                 : mrcc  (arbitrary order and MRCC methods)
   Andreas Klamt, Michael Diedenhofen            : otool_cosmo (COSMO solvation model)
   Jiri Pittner, Ondrej Demel                    : Mk-CCSD
   Frank Weinhold                                : gennbo (NPA and NBO analysis)
   Christopher J. Cramer and Donald G. Truhlar   : smd solvation model
   Lars Goerigk                                  : TD-DFT with DH, B97 family of functionals
   V. Asgeirsson, H. Jonsson                     : NEB implementation
   FAccTs GmbH                                   : IRC, NEB, NEB-TS, Multilevel, MM, QM/MM, CI optimization
   S Lehtola, MJT Oliveira, MAL Marques          : LibXC Library


 Your calculation uses the libint2 library for the computation of 2-el integrals
 For citations please refer to: http://libint.valeyev.net

 Your ORCA version has been built with support for libXC version: 4.2.3
 For citations please refer to: https://tddft.org/programs/libxc/

 This ORCA versions uses:
   CBLAS   interface :  Fast vector & matrix operations
   LAPACKE interface :  Fast linear algebra routines
   SCALAPACK package :  Parallel linear algebra routines


----- Orbital basis set information -----
Your calculation utilizes the basis: def2-SVP
   F. Weigend and R. Ahlrichs, Phys. Chem. Chem. Phys. 7, 3297 (2005).

----- AuxJ basis set information -----
Your calculation utilizes the auxiliary basis: def2/J
   F. Weigend, Phys. Chem. Chem. Phys. 8, 1057 (2006).

================================================================================
                                        WARNINGS
                       Please study these warnings very carefully!
================================================================================


INFO   : the flag for use of LIBINT has been found!

================================================================================
                                       INPUT FILE
================================================================================
NAME = MOR29_pr11_atom46.inp
|  1> # input to generate an atomic fitting density for Pd
|  2> # this file is use internally by ORCA
|  3> #
|  4> # atomic ground state (S=3): 1s2 2s2 2p6 3s2 3p6 4s2 3d10 4p6 5s2 4d8 
|  5> #
|  6> ! RHF AllowRHF def2-SVP def2/J  NoMulliken NoLoewdin NoMayer NoPrintMOs 
|  7> 
|  8> %output print[p_atomdensfit] 2 end
|  9> 
| 10> %scf
| 11>   guess hcore
| 12>   maxiter 1000
| 13>   maxdisk 500000
| 14>   SCFMode Conventional
| 15>   lshift 1.000000
| 16>   hftyp rohf
| 17>   rohf_case sahf
| 18>   rohf_numop   2
| 19>   rohf_norb[1] 5
| 20>   rohf_nel[1]  8
| 21> end
| 22> 
| 23> %basis
| 24>   NewECP 46
| 25>     N_core 28
| 26>     lmax f
| 27>     s 4
| 28>       1      12.4300000000    240.2290403000  2
| 29>       2       6.1707594000     35.1719435000  2
| 30>       3      13.2700000000     31.9295543000  2
| 31>       4       6.6300000000      5.3982169000  2
| 32>     p 4
| 33>       1      11.0800000000    170.4172760000  2
| 34>       2       5.8295541000     28.4721329000  2
| 35>       3      13.2700000000     31.9295543000  2
| 36>       4       6.6300000000      5.3982169000  2
| 37>     d 4
| 38>       1       9.5100000000     69.0138449000  2
| 39>       2       4.1397811000     11.7508616000  2
| 40>       3      13.2700000000     31.9295543000  2
| 41>       4       6.6300000000      5.3982169000  2
| 42>     f 2
| 43>       1      13.2700000000    -31.9295543000  2
| 44>       2       6.6300000000     -5.3982169000  2
| 45>   end
| 46>   NewGTO 46
| 47>     s 2 
| 48>      1      18.0000000000     -0.8955869481
| 49>      2      14.6621343080      1.8822771923
| 50>     s 1 
| 51>      1       5.6388709265      1.0000000000
| 52>     s 1 
| 53>      1       1.3198953252      1.0000000000
| 54>     s 1 
| 55>      1       0.5781790851      1.0000000000
| 56>     s 1 
| 57>      1       0.1035216624      1.0000000000
| 58>     s 1 
| 59>      1       0.0375484427      1.0000000000
| 60>     p 4 
| 61>      1      12.5528993000      0.0701895210
| 62>      2       7.2444496380     -0.2749252830
| 63>      3       1.8905941078      0.5623121361
| 64>      4       0.9073716876      0.5736959368
| 65>     p 1 
| 66>      1       0.4087721081      1.0000000000
| 67>     p 1 
| 68>      1       0.1150000000      1.0000000000
| 69>     p 1 
| 70>      1       0.0370000000      1.0000000000
| 71>     d 4 
| 72>      1      22.3574575750      0.0063445039
| 73>      2      10.6825263820     -0.0225156052
| 74>      3       2.4858232550      0.3884291800
| 75>      4       1.0735333903      0.6828976806
| 76>     d 1 
| 77>      1       0.4261384285      1.0000000000
| 78>     d 1 
| 79>      1       0.1504635538      1.0000000000
| 80>   end
| 81>   NewAuxGTO 46
| 82>     S 1
| 83>      1 1310.72 1.0
| 84>     S 1
| 85>      1  655.36 1.0
| 86>     S 1
| 87>      1  327.68 1.0
| 88>     S 1
| 89>      1  163.84 1.0
| 90>     S 1
| 91>      1   81.82 1.0
| 92>     S 1
| 93>      1   40.96 1.0
| 94>     S 1
| 95>      1   20.48 1.0
| 96>     S 1
| 97>      1   10.24 1.0
| 98>     S 1
| 99>      1    5.12 1.0
|100>     S 1
|101>      1    2.56 1.0
|102>     S 1
|103>      1    1.28 1.0
|104>     S 1
|105>      1    0.64 1.0
|106>     S 1
|107>      1    0.32 1.0
|108>     S 1
|109>      1    0.16 1.0
|110>     S 1
|111>      1    0.08 1.0
|112>     S 1
|113>      1    0.04 1.0
|114>     S 1
|115>      1    0.02 1.0
|116>     S 1
|117>      1    0.01 1.0
|118>   end
|119> end
|120> 
|121> * xyz 0 3
|122> 46  0.0 0.0 0.0
|123> *
|124> 
|125> 
|126>                          ****END OF INPUT****
================================================================================

                       ****************************
                       * Single Point Calculation *
                       ****************************

---------------------------------
CARTESIAN COORDINATES (ANGSTROEM)
---------------------------------
  Pd     0.000000    0.000000    0.000000

----------------------------
CARTESIAN COORDINATES (A.U.)
----------------------------
  NO LB      ZA    FRAG     MASS         X           Y           Z
   0 Pd   18.0000*   0   106.400    0.000000    0.000000    0.000000
* core charge reduced due to ECP

--------------------------------
INTERNAL COORDINATES (ANGSTROEM)
--------------------------------
 Pd     0   0   0     0.000000000000     0.00000000     0.00000000

---------------------------
INTERNAL COORDINATES (A.U.)
---------------------------
 Pd     0   0   0     0.000000000000     0.00000000     0.00000000

---------------------
BASIS SET INFORMATION
---------------------
There are 1 groups of distinct atoms

 Group   1 Type Pd  : 7s7p6d contracted to 6s4p3d pattern {211111/4111/411}

Atom   0Pd   basis set group =>   1
---------------------------------
AUXILIARY/J BASIS SET INFORMATION
---------------------------------
There are 1 groups of distinct atoms

 Group   1 Type Pd  : 18s contracted to 18s pattern {111111111111111111}

Atom   0Pd   basis set group =>   1
-------------------------
ECP PARAMETER INFORMATION
-------------------------

 Group 1, Type Pd ECP (replacing 28 core electrons, lmax=3)

Atom   0Pd   ECP group =>   1

------------------------------------------------------------------------------
                           ORCA GTO INTEGRAL CALCULATION
------------------------------------------------------------------------------

                         BASIS SET STATISTICS AND STARTUP INFO

 # of primitive gaussian shells          ...   20
 # of primitive gaussian functions       ...   58
 # of contracted shells                  ...   13
 # of contracted basis functions         ...   33
 Highest angular momentum                ...    2
 Maximum contraction depth               ...    4
 Integral package used                   ... LIBINT
 Integral threshhold            Thresh   ...  1.000e-10
 Primitive cut-off              TCut     ...  1.000e-11
 Storage cut-off                TCutStore... -1.000e+00
 Buffer length                           ... 1048576 integrals/buffer
 Generate file with integrals 4 distinct ...false


------------------------------ INTEGRAL EVALUATION ----------------------------


 * One electron integrals 

   ECP integrals                         ... done
 Pre-screening matrix                    ... done
 Shell pair data                         ... done (   0.000 sec)
 Statistics run                          ... done
 Maximum amount of storage needed        ...     1 MB
 Maximum amount of storage dedicated     ... 500000 MB
 Beginning two electron integral evaluation:
 Starting repulsion integrals
  <ss|ss>  ...          231 b.         0 skpd (  0.0%)     0.000 s. (  0.000 ms/b)
  <ss|sp>  ...          504 b.         0 skpd (  0.0%)     0.000 s. (  0.000 ms/b)
  <ss|sd>  ...          378 b.         0 skpd (  0.0%)     0.000 s. (  0.000 ms/b)
  <ss|pp>  ...          210 b.         0 skpd (  0.0%)     0.000 s. (  0.000 ms/b)
  <ss|pd>  ...          252 b.         0 skpd (  0.0%)     0.000 s. (  0.001 ms/b)
  <ss|dd>  ...          126 b.         0 skpd (  0.0%)     0.000 s. (  0.001 ms/b)
  <sp|sp>  ...          300 b.         0 skpd (  0.0%)     0.000 s. (  0.000 ms/b)
  <sp|sd>  ...          432 b.         0 skpd (  0.0%)     0.000 s. (  0.001 ms/b)
  <sp|pp>  ...          240 b.         0 skpd (  0.0%)     0.000 s. (  0.001 ms/b)
  <sp|pd>  ...          288 b.         0 skpd (  0.0%)     0.001 s. (  0.002 ms/b)
  <sp|dd>  ...          144 b.         0 skpd (  0.0%)     0.001 s. (  0.004 ms/b)
  <sd|sd>  ...          171 b.         0 skpd (  0.0%)     0.000 s. (  0.002 ms/b)
  <sd|pp>  ...          180 b.         0 skpd (  0.0%)     0.000 s. (  0.003 ms/b)
  <sd|pd>  ...          216 b.         0 skpd (  0.0%)     0.001 s. (  0.005 ms/b)
  <sd|dd>  ...          108 b.         0 skpd (  0.0%)     0.001 s. (  0.011 ms/b)
  <pp|pp>  ...           55 b.         0 skpd (  0.0%)     0.000 s. (  0.005 ms/b)
  <pp|pd>  ...          120 b.         0 skpd (  0.0%)     0.001 s. (  0.008 ms/b)
  <pp|dd>  ...           60 b.         0 skpd (  0.0%)     0.001 s. (  0.018 ms/b)
  <pd|pd>  ...           78 b.         0 skpd (  0.0%)     0.002 s. (  0.019 ms/b)
  <pd|dd>  ...           72 b.         0 skpd (  0.0%)     0.003 s. (  0.040 ms/b)
  <dd|dd>  ...           21 b.         0 skpd (  0.0%)     0.003 s. (  0.120 ms/b)


                                      INTEGRAL STATISTICS

Integral type statistics:
 Number of integrals retained            ...     157641 
 One   Center Integrals retained         ...     157641 (100.0%)
 Two   Center Integrals retained         ...          0 (  0.0%)
 Three Center Integrals retained         ...          0 (  0.0%)
 Four  Center Integrals retained         ...          0 (  0.0%)

Storage statistics:
 Number of char integrals                ...          0 (  0.0%)
 Number of short int integrals           ...          0 (  0.0%)
 Number of double/float integrals        ...     157641 (100.0%)
 Amount of memory used                   ...          1 MB
 Amount of memory estimated              ...          1 MB ( 94.1%)

Prescreening statistics:
 Total number of shell quadruples        ...       4186 
 Number of skipped shell quadruples      ...          0 (  0.0%)
 # of negligible batches done            ...          0 (  0.0%)

Timings:
 Total evaluation time               ...     0.188 sec (   0.003 min)
 One electron matrix time            ...     0.013 sec (   0.000 min) =  7.1%
 Schwartz matrix evaluation time     ...     0.071 sec (   0.001 min) = 37.8%
 Statistics run                      ...     0.001 sec (   0.000 min) =  0.7%
 Repulsion integral time             ...     0.015 sec (   0.000 min) =  8.1%

-------------------------------------------------------------------------------
                                 ORCA SCF
-------------------------------------------------------------------------------

------------
SCF SETTINGS
------------
Hamiltonian:
 Ab initio Hamiltonian  Method          .... Hartree-Fock(GTOs)


General Settings:
 Integral files         IntName         .... MOR29_pr11_atom46
 Hartree-Fock type      HFTyp           .... ROHF
 Total Charge           Charge          ....    0
 Multiplicity           Mult            ....    3
 Number of Electrons    NEL             ....   18
 Basis Dimension        Dim             ....   33
 Nuclear Repulsion      ENuc            ....      0.0000000000 Eh

Convergence Acceleration:
 DIIS                   CNVDIIS         .... on
   Start iteration      DIISMaxIt       ....    12
   Startup error        DIISStart       ....  0.200000
   # of expansion vecs  DIISMaxEq       ....     5
   Bias factor          DIISBfac        ....   1.050
   Max. coefficient     DIISMaxC        ....  10.000
 Newton-Raphson         CNVNR           .... off
 SOSCF                  CNVSOSCF        .... off
 Level Shifting         CNVShift        .... on
   Level shift para.    LevelShift      ....    1.0000
   Turn off err/grad.   ShiftErr        ....    0.0010
 Zerner damping         CNVZerner       .... off
 Static damping         CNVDamp         .... on
   Fraction old density DampFac         ....    0.7000
   Max. Damping (<1)    DampMax         ....    0.9800
   Min. Damping (>=0)   DampMin         ....    0.0000
   Turn off err/grad.   DampErr         ....    0.1000
 Fernandez-Rico         CNVRico         .... off

SCF Procedure:
 Maximum # iterations   MaxIter         ....  1000
 SCF integral mode      SCFMode         .... Conventional
 Integral Threshold     Thresh          ....  1.000e-10 Eh
 Primitive CutOff       TCut            ....  1.000e-11 Eh
 Integral Buffer length BufferLength    .... 1048576
 Integral index format  IndFormat       ....     0
 Integral value format  ValFormat       ....     0
 Integral Storage       Thresh          ....  1.000e-10 Eh

Convergence Tolerance:
 Convergence Check Mode ConvCheckMode   .... Total+1el-Energy
 Convergence forced     ConvForced      .... 0
 Energy Change          TolE            ....  1.000e-06 Eh
 1-El. energy change                    ....  1.000e-03 Eh
 DIIS Error             TolErr          ....  1.000e-06


Diagonalization of the overlap matrix:
Smallest eigenvalue                        ... 2.171e-02
Time for diagonalization                   ...    0.005 sec
Threshold for overlap eigenvalues          ... 1.000e-08
Number of eigenvalues below threshold      ... 0
Time for construction of square roots      ...    0.014 sec
Total time needed                          ...    0.020 sec

--------------------
INITIAL GUESS: HCORE
--------------------
AVERAGE-CONFIGURATION (SAHF) CASE FOUND

-------------------
FINAL ROHF SETTINGS
-------------------
Number of operators             ... 2
  operator   0:   5 orbitals  10 electrons n(mue)= 2.000
  operator   1:   5 orbitals   8 electrons n(mue)= 1.600
Vector coupling coefficients a and b (Zerner convention):
   1.000    1.000           1.000    1.000 
   1.000    0.977           1.000    1.016 

                      -----------------
                      INTIAL GUESS DONE 
                      -----------------

 InCore treatment chosen:
   Memory dedicated               ...    1024 MB
   Memory needed                  ...      1 MB
   Number of tiny    integrals    ...       0
   Number of small   integrals    ...       0
   Number of regular integrals    ...  157641

--------------
SCF ITERATIONS
--------------
ITER       Energy         Delta-E        Max-DP      RMS-DP      [F,P]     Damp
  0   -116.5585054293   0.000000000000 2.01283763  0.08751113  1.1129415 0.7000
  1   -122.9345256641  -6.376020234832 1.48063554  0.06400429  0.6037919 0.7000
                            ****Activating DIIS****
  2   -121.5598584798   1.374667184276 1.01950398  0.04396783  0.1226598 0.7000
  3   -120.6574379452   0.902420534696 0.71311464  0.03073917  0.1711028 0.7000
  4   -119.9767098937   0.680728051476 0.50174630  0.02167511  0.2312352 0.7000
  5   -119.4804370247   0.496272868992 0.35511934  0.01534312  0.3247886 0.7000
  6   -119.1155677932   0.364869231488 0.27563119  0.01179568  0.4003771 0.7000
  7   -118.7145798265   0.400987966721 0.16507521  0.00734424  0.5129557 0.7000
  8   -118.9749209558  -0.260341129373 0.11263737  0.00474873  0.4564027 0.7000
  9   -118.9474113755   0.027509580349 0.07722926  0.00349446  0.4283832 0.7000
 10   -118.8707769038   0.076634471742 0.99747845  0.03410377  0.4236702 0.7000
 11   -126.0014463814  -7.130669477621 2.34574920  0.08167615  0.0827986 0.0000
 12   -125.7344740708   0.266972310575 0.02551526  0.00091433  0.4422937 0.7000
 13   -125.8070336090  -0.072559538190 0.02043349  0.00074290  0.4311774 0.7000
 14   -125.8271036940  -0.020070084969 0.01622689  0.00059866  0.4275281 0.7000
 15   -125.8416440826  -0.014540388683 0.01478264  0.00053290  0.4248362 0.7000
 16   -125.8485747393  -0.006930656693 0.20464866  0.00861161  0.4223874 0.7000
 17   -126.5610015960  -0.712426856661 0.20970212  0.00972945  0.1562026 0.7000
 18   -126.7295514570  -0.168549861038 0.47441745  0.02212395  0.0547035 0.0000
 19   -126.8695178990  -0.139966441956 0.03955497  0.00186120  0.1219917 0.7000
 20   -126.9183512738  -0.048833374784 0.19061269  0.00774705  0.0393543 0.0000
 21   -126.9117262673   0.006625006506 0.03850957  0.00119560  0.0696678 0.0000
 22   -126.9203134868  -0.008587219504 0.04222904  0.00149360  0.0613757 0.0000
 23   -126.9327781504  -0.012464663620 0.05868380  0.00249274  0.0430466 0.0000
 24   -126.9456264980  -0.012848347554 0.29735723  0.00766375  0.0298614 0.0000
 25   -126.9505600466  -0.004933548619 0.02768695  0.00138711  0.0246212 0.0000
 26   -126.9546801681  -0.004120121508 0.14288209  0.00364643  0.0108026 0.0000
 27   -126.9560899877  -0.001409819623 0.02857656  0.00075518  0.0046622 0.0000
 28   -126.9562113281  -0.000121340358 0.00126119  0.00010333  0.0030909 0.0000
 29   -126.9562399180  -0.000028589947 0.00059236  0.00003288  0.0012624 0.0000
 30   -126.9562438198  -0.000003901768 0.00081596  0.00003567  0.0006766 0.0000
 31   -126.9562455478  -0.000001728032 0.00012323  0.00001090  0.0001873 0.0000
                 **** Energy Check signals convergence ****

               *****************************************************
               *                     SUCCESS                       *
               *           SCF CONVERGED AFTER  32 CYCLES          *
               *****************************************************


----------------
TOTAL SCF ENERGY
----------------

Total Energy       :         -126.95624592 Eh           -3454.65508 eV

Components:
Nuclear Repulsion  :            0.00000000 Eh               0.00000 eV
Electronic Energy  :         -126.95624592 Eh           -3454.65508 eV
One Electron Energy:         -224.62273641 Eh           -6112.29540 eV
Two Electron Energy:           97.66649049 Eh            2657.64032 eV

Virial components:
Potential Energy   :         -174.97559289 Eh           -4761.32794 eV
Kinetic Energy     :           48.01934697 Eh            1306.67286 eV
Virial Ratio       :            3.64385615


---------------
SCF CONVERGENCE
---------------

  Last Energy change         ...   -3.6808e-07  Tolerance :   1.0000e-06
  Last MAX-Density change    ...    2.3478e-04  Tolerance :   1.0000e-05
  Last RMS-Density change    ...    8.6978e-06  Tolerance :   1.0000e-06
  Last DIIS Error            ...    1.3330e-04  Tolerance :   1.0000e-06

             **** THE GBW FILE WAS UPDATED (MOR29_pr11_atom46.gbw) ****
             **** DENSITY FILE WAS UPDATED (MOR29_pr11_atom46.scfp) ****
             **** ENERGY FILE WAS UPDATED (MOR29_pr11_atom46.en.tmp) ****
             **** THE GBW FILE WAS UPDATED (MOR29_pr11_atom46.gbw) ****
             **** DENSITY FILE WAS UPDATED (MOR29_pr11_atom46.scfp) ****
----------------
ORBITAL ENERGIES
----------------

  NO   OCC          E(Eh)            E(eV) 
   0   2.0000      -4.140442      -112.6672 
   1   2.0000      -2.670475       -72.6673 
   2   2.0000      -2.666425       -72.5571 
   3   2.0000      -2.665374       -72.5285 
   4   2.0000      -0.537779       -14.6337 
   5   1.6000      -0.554645       -15.0927 
   6   1.6000      -0.551491       -15.0068 
   7   1.6000      -0.548380       -14.9222 
   8   1.6000      -0.536386       -14.5958 
   9   1.6000      -0.264322        -7.1926 
  10   0.0000       0.010059         0.2737 
  11   0.0000       0.011964         0.3256 
  12   0.0000       0.012453         0.3389 
  13   0.0000       0.128804         3.5049 
  14   0.0000       0.208239         5.6665 
  15   0.0000       0.211837         5.7644 
  16   0.0000       0.212774         5.7899 
  17   0.0000       0.422999        11.5104 
  18   0.0000       0.423799        11.5322 
  19   0.0000       0.424637        11.5550 
  20   0.0000       0.424612        11.5543 
  21   0.0000       0.427757        11.6399 
  22   0.0000       1.577537        42.9270 
  23   0.0000       1.588084        43.2140 
  24   0.0000       1.590820        43.2884 
  25   0.0000       1.970244        53.6131 
  26   0.0000       2.019705        54.9590 
  27   0.0000       2.021074        54.9962 
  28   0.0000       2.023077        55.0507 
  29   0.0000       2.026541        55.1450 
  30   0.0000       2.030811        55.2612 
  31   0.0000      31.692342       862.3925 
  32   0.0000     106.655676      2902.2485 
CleanUpVectors: The p-vectors have cracked symmetry
CleanUpVectors: The p-vectors have cracked symmetry
CleanUpVectors: The p-vectors have cracked symmetry
CleanUpVectors: The d-vectors have cracked symmetry at i=4
CleanUpVectors: The d-vectors have cracked symmetry at i=5
CleanUpVectors: The d-vectors have cracked symmetry at i=6
CleanUpVectors: The d-vectors have cracked symmetry at i=7
CleanUpVectors: The d-vectors have cracked symmetry at i=8
CleanUpVectors: The p-vectors have cracked symmetry
CleanUpVectors: The p-vectors have cracked symmetry
CleanUpVectors: The p-vectors have cracked symmetry
CleanUpVectors: The p-vectors have cracked symmetry
CleanUpVectors: The p-vectors have cracked symmetry
CleanUpVectors: The p-vectors have cracked symmetry
CleanUpVectors: The d-vectors have cracked symmetry at i=17
CleanUpVectors: The d-vectors have cracked symmetry at i=18
CleanUpVectors: The d-vectors have cracked symmetry at i=19
CleanUpVectors: The d-vectors have cracked symmetry at i=20
CleanUpVectors: The d-vectors have cracked symmetry at i=21
CleanUpVectors: The p-vectors have cracked symmetry
CleanUpVectors: The p-vectors have cracked symmetry
CleanUpVectors: The p-vectors have cracked symmetry
CleanUpVectors: The d-vectors have cracked symmetry at i=26
CleanUpVectors: The d-vectors have cracked symmetry at i=27
CleanUpVectors: The d-vectors have cracked symmetry at i=28
--------------------------
ATOM BASIS FOR ELEMENT Pd
--------------------------
 NewGTO Pd
 S 7
    1         18.000000000000        -0.166184318233
    2         14.662134308000         0.349273683132
    3          5.638870926500        -0.689169743198
    4          1.319895325200         0.897811581133
    5          0.578179085100         0.411220279005
    6          0.103521662400         0.011506803195
    7          0.037548442700         0.000892790225
 P 20
    1         12.552899300000        -0.060746032417
    2          7.244449638000         0.237936089538
    3          1.890594107800        -0.486657135726
    4          0.907371687600        -0.496509328995
    5         12.552899300000         0.009059524728
    6          7.244449638000        -0.035485245721
    7          1.890594107800         0.072578935279
    8          0.907371687600         0.074048268913
    9         12.552899300000         0.006125808833
   10          7.244449638000        -0.023994176095
   11          1.890594107800         0.049075938985
   12          0.907371687600         0.050069463174
   13          0.408772108100        -0.152673872977
   14          0.408772108100         0.022769433205
   15          0.408772108100         0.015396083043
   16          0.115000000000        -0.006215126055
   17          0.115000000000         0.000926909725
   18          0.115000000000         0.000626751618
   19          0.037000000000         0.000450929693
   20          0.037000000000        -0.000067250626
 D 20
    1         18.000000000000        -0.000002539150
    2         14.662134308000         0.000006551481
    3          5.638870926500        -0.000035870336
    4          1.319895325200         0.000318468611
    5          0.578179085100        -0.000195039086
    6          0.103521662400        -0.001690062112
    7          0.037548442700         0.004305575597
    8         22.357457575000        -0.000285608590
    9         10.682526382000         0.001013578109
   10          2.485823255000        -0.017485797524
   11          1.073533390300        -0.030741795899
   12         22.357457575000         0.000808352745
   13         10.682526382000        -0.002868711494
   14          2.485823255000         0.049489731378
   15          1.073533390300         0.087007939958
   16         22.357457575000         0.000275202586
   17         10.682526382000        -0.000976648905
   18          2.485823255000         0.016848711362
   19          1.073533390300         0.029621734160
   20         22.357457575000         0.002623799287
 D 20
    1         22.357457575000         0.000195247126
    2         10.682526382000        -0.000692900073
    3          2.485823255000         0.011953603056
    4          1.073533390300         0.021015639972
    5         22.357457575000        -0.001804022499
    6         10.682526382000         0.006402180376
    7          2.485823255000        -0.110447560772
    8          1.073533390300        -0.194177953054
    9         22.357457575000         0.003749594760
   10         10.682526382000        -0.013306697671
   11          2.485823255000         0.229561214045
   12          1.073533390300         0.403591770904
   13         22.357457575000         0.000645807067
   14         10.682526382000        -0.002291863507
   15          2.485823255000         0.039538207158
   16          1.073533390300         0.069512156535
   17         22.357457575000        -0.000380673750
   18         10.682526382000         0.001350948789
   19          2.485823255000        -0.023305966056
   20          1.073533390300        -0.040974239277
 P 20
    1         12.552899300000        -0.001594908029
    2          7.244449638000         0.006247094080
    3          1.890594107800        -0.012777350917
    4          0.907371687600        -0.013036023648
    5         12.552899300000        -0.008118046635
    6          7.244449638000         0.031797570872
    7          1.890594107800        -0.065036433916
    8          0.907371687600        -0.066353072406
    9         12.552899300000        -0.003809895349
   10          7.244449638000         0.014922976279
   11          1.890594107800        -0.030522368030
   12          0.907371687600        -0.031140282053
   13          0.408772108100         0.003073917909
   14          0.408772108100         0.015646174254
   15          0.408772108100         0.007342934723
   16          0.115000000000         0.006982112099
   17          0.115000000000         0.035538796352
   18          0.115000000000         0.016678777668
   19          0.037000000000         0.170173072244
   20          0.037000000000         0.866177178631
 P 20
    1         12.552899300000        -0.002846247337
    2          7.244449638000         0.011148464094
    3          1.890594107800        -0.022802255910
    4          0.907371687600        -0.023263879126
    5         12.552899300000        -0.014487336073
    6          7.244449638000         0.056745435973
    7          1.890594107800        -0.116062978886
    8          0.907371687600        -0.118412630859
    9         12.552899300000        -0.006799078252
   10          7.244449638000         0.026631304586
   11          1.890594107800        -0.054469729395
   12          0.907371687600        -0.055572448870
   13          0.408772108100        -0.038572305422
   14          0.408772108100        -0.196332182545
   15          0.408772108100        -0.092141016519
   16          0.115000000000         0.272954257020
   17          0.115000000000         1.389331138742
   18          0.115000000000         0.652029543737
   19          0.037000000000        -0.181920197652
   20          0.037000000000        -0.925969787476
 D 20
    1         18.000000000000        -0.000002917753
    2         14.662134308000         0.000007528348
    3          5.638870926500        -0.000041556651
    4          1.319895325200         0.000385370548
    5          0.578179085100        -0.000065180692
    6          0.103521662400        -0.006534203091
    7          0.037548442700         0.005531086455
    8         22.357457575000        -0.000110631729
    9         10.682526382000         0.000392613887
   10          2.485823255000        -0.006773199686
   11          1.073533390300        -0.011907968283
   12         22.357457575000         0.000294187107
   13         10.682526382000        -0.001044021858
   14          2.485823255000         0.018010999517
   15          1.073533390300         0.031665153981
   16         22.357457575000         0.000100805539
   17         10.682526382000        -0.000357742346
   18          2.485823255000         0.006171611425
   19          1.073533390300         0.010850315436
   20         22.357457575000         0.000948527838
 P 20
    1         12.552899300000        -0.016067010850
    2          7.244449638000         0.062932862940
    3          1.890594107800        -0.128718291038
    4          0.907371687600        -0.131324145113
    5         12.552899300000        -0.081780730311
    6          7.244449638000         0.320326882196
    7          1.890594107800        -0.655173258030
    8          0.907371687600        -0.668436997712
    9         12.552899300000        -0.038380664467
   10          7.244449638000         0.150333196323
   11          1.890594107800        -0.307480562824
   12          0.907371687600        -0.313705392810
   13          0.408772108100         0.361912568295
   14          0.408772108100         1.842126978072
   15          0.408772108100         0.864531989162
   16          0.115000000000        -0.211849087404
   17          0.115000000000        -1.078307175196
   18          0.115000000000        -0.506062317200
   19          0.037000000000         0.076062548067
   20          0.037000000000         0.387156689459
 D 20
    1         22.357457575000         0.002071440902
    2         10.682526382000        -0.007351204487
    3          2.485823255000         0.126819701511
    4          1.073533390300         0.222961827987
    5         22.357457575000         0.005908982817
    6         10.682526382000        -0.020970012208
    7          2.485823255000         0.361765298964
    8          1.073533390300         0.636019888063
    9         22.357457575000         0.002736259579
   10         10.682526382000        -0.009710537086
   11          2.485823255000         0.167521855357
   12          1.073533390300         0.294520320211
   13         22.357457575000        -0.000619758125
   14         10.682526382000         0.002199420079
   15          2.485823255000        -0.037943414356
   16          1.073533390300        -0.066708349918
   17         22.357457575000        -0.001039931602
   18         10.682526382000         0.003690546929
   19          2.485823255000        -0.063667669815
   20          1.073533390300        -0.111934185907
 end
  // -----------------------------------------------
  // The basis set
  // -----------------------------------------------
  BAS[ATNO] = new BFNGauss[NSH];
  // Basis function   1 L = s
  InitBFNGauss(BAS[ATNO][  0]);
  BAS[ATNO][  0].l  = 0;
  BAS[ATNO][  0].ng = 7;
  BAS[ATNO][  0].a[  0] =        18.000000000000;     BAS[ATNO][  0].d[  0] =        -0.166184318233;
  BAS[ATNO][  0].a[  1] =        14.662134308000;     BAS[ATNO][  0].d[  1] =         0.349273683132;
  BAS[ATNO][  0].a[  2] =         5.638870926500;     BAS[ATNO][  0].d[  2] =        -0.689169743198;
  BAS[ATNO][  0].a[  3] =         1.319895325200;     BAS[ATNO][  0].d[  3] =         0.897811581133;
  BAS[ATNO][  0].a[  4] =         0.578179085100;     BAS[ATNO][  0].d[  4] =         0.411220279005;
  BAS[ATNO][  0].a[  5] =         0.103521662400;     BAS[ATNO][  0].d[  5] =         0.011506803195;
  BAS[ATNO][  0].a[  6] =         0.037548442700;     BAS[ATNO][  0].d[  6] =         0.000892790225;

  // Basis function   2 L = p
  InitBFNGauss(BAS[ATNO][  1]);
  BAS[ATNO][  1].l  = 1;
  BAS[ATNO][  1].ng = 20;
  BAS[ATNO][  1].a[  0] =        12.552899300000;     BAS[ATNO][  1].d[  0] =         0.060746032417;
  BAS[ATNO][  1].a[  1] =         7.244449638000;     BAS[ATNO][  1].d[  1] =        -0.237936089538;
  BAS[ATNO][  1].a[  2] =         1.890594107800;     BAS[ATNO][  1].d[  2] =         0.486657135726;
  BAS[ATNO][  1].a[  3] =         0.907371687600;     BAS[ATNO][  1].d[  3] =         0.496509328995;
  BAS[ATNO][  1].a[  4] =        12.552899300000;     BAS[ATNO][  1].d[  4] =        -0.009059524728;
  BAS[ATNO][  1].a[  5] =         7.244449638000;     BAS[ATNO][  1].d[  5] =         0.035485245721;
  BAS[ATNO][  1].a[  6] =         1.890594107800;     BAS[ATNO][  1].d[  6] =        -0.072578935279;
  BAS[ATNO][  1].a[  7] =         0.907371687600;     BAS[ATNO][  1].d[  7] =        -0.074048268913;
  BAS[ATNO][  1].a[  8] =        12.552899300000;     BAS[ATNO][  1].d[  8] =        -0.006125808833;
  BAS[ATNO][  1].a[  9] =         7.244449638000;     BAS[ATNO][  1].d[  9] =         0.023994176095;
  BAS[ATNO][  1].a[ 10] =         1.890594107800;     BAS[ATNO][  1].d[ 10] =        -0.049075938985;
  BAS[ATNO][  1].a[ 11] =         0.907371687600;     BAS[ATNO][  1].d[ 11] =        -0.050069463174;
  BAS[ATNO][  1].a[ 12] =         0.408772108100;     BAS[ATNO][  1].d[ 12] =         0.152673872977;
  BAS[ATNO][  1].a[ 13] =         0.408772108100;     BAS[ATNO][  1].d[ 13] =        -0.022769433205;
  BAS[ATNO][  1].a[ 14] =         0.408772108100;     BAS[ATNO][  1].d[ 14] =        -0.015396083043;
  BAS[ATNO][  1].a[ 15] =         0.115000000000;     BAS[ATNO][  1].d[ 15] =         0.006215126055;
  BAS[ATNO][  1].a[ 16] =         0.115000000000;     BAS[ATNO][  1].d[ 16] =        -0.000926909725;
  BAS[ATNO][  1].a[ 17] =         0.115000000000;     BAS[ATNO][  1].d[ 17] =        -0.000626751618;
  BAS[ATNO][  1].a[ 18] =         0.037000000000;     BAS[ATNO][  1].d[ 18] =        -0.000450929693;
  BAS[ATNO][  1].a[ 19] =         0.037000000000;     BAS[ATNO][  1].d[ 19] =         0.000067250626;

  // Basis function   3 L = d
  InitBFNGauss(BAS[ATNO][  2]);
  BAS[ATNO][  2].l  = 2;
  BAS[ATNO][  2].ng = 20;
  BAS[ATNO][  2].a[  0] =        18.000000000000;     BAS[ATNO][  2].d[  0] =        -0.000002539150;
  BAS[ATNO][  2].a[  1] =        14.662134308000;     BAS[ATNO][  2].d[  1] =         0.000006551481;
  BAS[ATNO][  2].a[  2] =         5.638870926500;     BAS[ATNO][  2].d[  2] =        -0.000035870336;
  BAS[ATNO][  2].a[  3] =         1.319895325200;     BAS[ATNO][  2].d[  3] =         0.000318468611;
  BAS[ATNO][  2].a[  4] =         0.578179085100;     BAS[ATNO][  2].d[  4] =        -0.000195039086;
  BAS[ATNO][  2].a[  5] =         0.103521662400;     BAS[ATNO][  2].d[  5] =        -0.001690062112;
  BAS[ATNO][  2].a[  6] =         0.037548442700;     BAS[ATNO][  2].d[  6] =         0.004305575597;
  BAS[ATNO][  2].a[  7] =        22.357457575000;     BAS[ATNO][  2].d[  7] =        -0.000285608590;
  BAS[ATNO][  2].a[  8] =        10.682526382000;     BAS[ATNO][  2].d[  8] =         0.001013578109;
  BAS[ATNO][  2].a[  9] =         2.485823255000;     BAS[ATNO][  2].d[  9] =        -0.017485797524;
  BAS[ATNO][  2].a[ 10] =         1.073533390300;     BAS[ATNO][  2].d[ 10] =        -0.030741795899;
  BAS[ATNO][  2].a[ 11] =        22.357457575000;     BAS[ATNO][  2].d[ 11] =         0.000808352745;
  BAS[ATNO][  2].a[ 12] =        10.682526382000;     BAS[ATNO][  2].d[ 12] =        -0.002868711494;
  BAS[ATNO][  2].a[ 13] =         2.485823255000;     BAS[ATNO][  2].d[ 13] =         0.049489731378;
  BAS[ATNO][  2].a[ 14] =         1.073533390300;     BAS[ATNO][  2].d[ 14] =         0.087007939958;
  BAS[ATNO][  2].a[ 15] =        22.357457575000;     BAS[ATNO][  2].d[ 15] =         0.000275202586;
  BAS[ATNO][  2].a[ 16] =        10.682526382000;     BAS[ATNO][  2].d[ 16] =        -0.000976648905;
  BAS[ATNO][  2].a[ 17] =         2.485823255000;     BAS[ATNO][  2].d[ 17] =         0.016848711362;
  BAS[ATNO][  2].a[ 18] =         1.073533390300;     BAS[ATNO][  2].d[ 18] =         0.029621734160;
  BAS[ATNO][  2].a[ 19] =        22.357457575000;     BAS[ATNO][  2].d[ 19] =         0.002623799287;

  // Basis function   4 L = d
  InitBFNGauss(BAS[ATNO][  3]);
  BAS[ATNO][  3].l  = 2;
  BAS[ATNO][  3].ng = 20;
  BAS[ATNO][  3].a[  0] =        22.357457575000;     BAS[ATNO][  3].d[  0] =         0.000195247126;
  BAS[ATNO][  3].a[  1] =        10.682526382000;     BAS[ATNO][  3].d[  1] =        -0.000692900073;
  BAS[ATNO][  3].a[  2] =         2.485823255000;     BAS[ATNO][  3].d[  2] =         0.011953603056;
  BAS[ATNO][  3].a[  3] =         1.073533390300;     BAS[ATNO][  3].d[  3] =         0.021015639972;
  BAS[ATNO][  3].a[  4] =        22.357457575000;     BAS[ATNO][  3].d[  4] =        -0.001804022499;
  BAS[ATNO][  3].a[  5] =        10.682526382000;     BAS[ATNO][  3].d[  5] =         0.006402180376;
  BAS[ATNO][  3].a[  6] =         2.485823255000;     BAS[ATNO][  3].d[  6] =        -0.110447560772;
  BAS[ATNO][  3].a[  7] =         1.073533390300;     BAS[ATNO][  3].d[  7] =        -0.194177953054;
  BAS[ATNO][  3].a[  8] =        22.357457575000;     BAS[ATNO][  3].d[  8] =         0.003749594760;
  BAS[ATNO][  3].a[  9] =        10.682526382000;     BAS[ATNO][  3].d[  9] =        -0.013306697671;
  BAS[ATNO][  3].a[ 10] =         2.485823255000;     BAS[ATNO][  3].d[ 10] =         0.229561214045;
  BAS[ATNO][  3].a[ 11] =         1.073533390300;     BAS[ATNO][  3].d[ 11] =         0.403591770904;
  BAS[ATNO][  3].a[ 12] =        22.357457575000;     BAS[ATNO][  3].d[ 12] =         0.000645807067;
  BAS[ATNO][  3].a[ 13] =        10.682526382000;     BAS[ATNO][  3].d[ 13] =        -0.002291863507;
  BAS[ATNO][  3].a[ 14] =         2.485823255000;     BAS[ATNO][  3].d[ 14] =         0.039538207158;
  BAS[ATNO][  3].a[ 15] =         1.073533390300;     BAS[ATNO][  3].d[ 15] =         0.069512156535;
  BAS[ATNO][  3].a[ 16] =        22.357457575000;     BAS[ATNO][  3].d[ 16] =        -0.000380673750;
  BAS[ATNO][  3].a[ 17] =        10.682526382000;     BAS[ATNO][  3].d[ 17] =         0.001350948789;
  BAS[ATNO][  3].a[ 18] =         2.485823255000;     BAS[ATNO][  3].d[ 18] =        -0.023305966056;
  BAS[ATNO][  3].a[ 19] =         1.073533390300;     BAS[ATNO][  3].d[ 19] =        -0.040974239277;

  // Basis function   5 L = p
  InitBFNGauss(BAS[ATNO][  4]);
  BAS[ATNO][  4].l  = 1;
  BAS[ATNO][  4].ng = 20;
  BAS[ATNO][  4].a[  0] =        12.552899300000;     BAS[ATNO][  4].d[  0] =        -0.001594908029;
  BAS[ATNO][  4].a[  1] =         7.244449638000;     BAS[ATNO][  4].d[  1] =         0.006247094080;
  BAS[ATNO][  4].a[  2] =         1.890594107800;     BAS[ATNO][  4].d[  2] =        -0.012777350917;
  BAS[ATNO][  4].a[  3] =         0.907371687600;     BAS[ATNO][  4].d[  3] =        -0.013036023648;
  BAS[ATNO][  4].a[  4] =        12.552899300000;     BAS[ATNO][  4].d[  4] =        -0.008118046635;
  BAS[ATNO][  4].a[  5] =         7.244449638000;     BAS[ATNO][  4].d[  5] =         0.031797570872;
  BAS[ATNO][  4].a[  6] =         1.890594107800;     BAS[ATNO][  4].d[  6] =        -0.065036433916;
  BAS[ATNO][  4].a[  7] =         0.907371687600;     BAS[ATNO][  4].d[  7] =        -0.066353072406;
  BAS[ATNO][  4].a[  8] =        12.552899300000;     BAS[ATNO][  4].d[  8] =        -0.003809895349;
  BAS[ATNO][  4].a[  9] =         7.244449638000;     BAS[ATNO][  4].d[  9] =         0.014922976279;
  BAS[ATNO][  4].a[ 10] =         1.890594107800;     BAS[ATNO][  4].d[ 10] =        -0.030522368030;
  BAS[ATNO][  4].a[ 11] =         0.907371687600;     BAS[ATNO][  4].d[ 11] =        -0.031140282053;
  BAS[ATNO][  4].a[ 12] =         0.408772108100;     BAS[ATNO][  4].d[ 12] =         0.003073917909;
  BAS[ATNO][  4].a[ 13] =         0.408772108100;     BAS[ATNO][  4].d[ 13] =         0.015646174254;
  BAS[ATNO][  4].a[ 14] =         0.408772108100;     BAS[ATNO][  4].d[ 14] =         0.007342934723;
  BAS[ATNO][  4].a[ 15] =         0.115000000000;     BAS[ATNO][  4].d[ 15] =         0.006982112099;
  BAS[ATNO][  4].a[ 16] =         0.115000000000;     BAS[ATNO][  4].d[ 16] =         0.035538796352;
  BAS[ATNO][  4].a[ 17] =         0.115000000000;     BAS[ATNO][  4].d[ 17] =         0.016678777668;
  BAS[ATNO][  4].a[ 18] =         0.037000000000;     BAS[ATNO][  4].d[ 18] =         0.170173072244;
  BAS[ATNO][  4].a[ 19] =         0.037000000000;     BAS[ATNO][  4].d[ 19] =         0.866177178631;

  // Basis function   6 L = p
  InitBFNGauss(BAS[ATNO][  5]);
  BAS[ATNO][  5].l  = 1;
  BAS[ATNO][  5].ng = 20;
  BAS[ATNO][  5].a[  0] =        12.552899300000;     BAS[ATNO][  5].d[  0] =        -0.002846247337;
  BAS[ATNO][  5].a[  1] =         7.244449638000;     BAS[ATNO][  5].d[  1] =         0.011148464094;
  BAS[ATNO][  5].a[  2] =         1.890594107800;     BAS[ATNO][  5].d[  2] =        -0.022802255910;
  BAS[ATNO][  5].a[  3] =         0.907371687600;     BAS[ATNO][  5].d[  3] =        -0.023263879126;
  BAS[ATNO][  5].a[  4] =        12.552899300000;     BAS[ATNO][  5].d[  4] =        -0.014487336073;
  BAS[ATNO][  5].a[  5] =         7.244449638000;     BAS[ATNO][  5].d[  5] =         0.056745435973;
  BAS[ATNO][  5].a[  6] =         1.890594107800;     BAS[ATNO][  5].d[  6] =        -0.116062978886;
  BAS[ATNO][  5].a[  7] =         0.907371687600;     BAS[ATNO][  5].d[  7] =        -0.118412630859;
  BAS[ATNO][  5].a[  8] =        12.552899300000;     BAS[ATNO][  5].d[  8] =        -0.006799078252;
  BAS[ATNO][  5].a[  9] =         7.244449638000;     BAS[ATNO][  5].d[  9] =         0.026631304586;
  BAS[ATNO][  5].a[ 10] =         1.890594107800;     BAS[ATNO][  5].d[ 10] =        -0.054469729395;
  BAS[ATNO][  5].a[ 11] =         0.907371687600;     BAS[ATNO][  5].d[ 11] =        -0.055572448870;
  BAS[ATNO][  5].a[ 12] =         0.408772108100;     BAS[ATNO][  5].d[ 12] =        -0.038572305422;
  BAS[ATNO][  5].a[ 13] =         0.408772108100;     BAS[ATNO][  5].d[ 13] =        -0.196332182545;
  BAS[ATNO][  5].a[ 14] =         0.408772108100;     BAS[ATNO][  5].d[ 14] =        -0.092141016519;
  BAS[ATNO][  5].a[ 15] =         0.115000000000;     BAS[ATNO][  5].d[ 15] =         0.272954257020;
  BAS[ATNO][  5].a[ 16] =         0.115000000000;     BAS[ATNO][  5].d[ 16] =         1.389331138742;
  BAS[ATNO][  5].a[ 17] =         0.115000000000;     BAS[ATNO][  5].d[ 17] =         0.652029543737;
  BAS[ATNO][  5].a[ 18] =         0.037000000000;     BAS[ATNO][  5].d[ 18] =        -0.181920197652;
  BAS[ATNO][  5].a[ 19] =         0.037000000000;     BAS[ATNO][  5].d[ 19] =        -0.925969787476;

  // Basis function   7 L = d
  InitBFNGauss(BAS[ATNO][  6]);
  BAS[ATNO][  6].l  = 2;
  BAS[ATNO][  6].ng = 20;
  BAS[ATNO][  6].a[  0] =        18.000000000000;     BAS[ATNO][  6].d[  0] =        -0.000002917753;
  BAS[ATNO][  6].a[  1] =        14.662134308000;     BAS[ATNO][  6].d[  1] =         0.000007528348;
  BAS[ATNO][  6].a[  2] =         5.638870926500;     BAS[ATNO][  6].d[  2] =        -0.000041556651;
  BAS[ATNO][  6].a[  3] =         1.319895325200;     BAS[ATNO][  6].d[  3] =         0.000385370548;
  BAS[ATNO][  6].a[  4] =         0.578179085100;     BAS[ATNO][  6].d[  4] =        -0.000065180692;
  BAS[ATNO][  6].a[  5] =         0.103521662400;     BAS[ATNO][  6].d[  5] =        -0.006534203091;
  BAS[ATNO][  6].a[  6] =         0.037548442700;     BAS[ATNO][  6].d[  6] =         0.005531086455;
  BAS[ATNO][  6].a[  7] =        22.357457575000;     BAS[ATNO][  6].d[  7] =        -0.000110631729;
  BAS[ATNO][  6].a[  8] =        10.682526382000;     BAS[ATNO][  6].d[  8] =         0.000392613887;
  BAS[ATNO][  6].a[  9] =         2.485823255000;     BAS[ATNO][  6].d[  9] =        -0.006773199686;
  BAS[ATNO][  6].a[ 10] =         1.073533390300;     BAS[ATNO][  6].d[ 10] =        -0.011907968283;
  BAS[ATNO][  6].a[ 11] =        22.357457575000;     BAS[ATNO][  6].d[ 11] =         0.000294187107;
  BAS[ATNO][  6].a[ 12] =        10.682526382000;     BAS[ATNO][  6].d[ 12] =        -0.001044021858;
  BAS[ATNO][  6].a[ 13] =         2.485823255000;     BAS[ATNO][  6].d[ 13] =         0.018010999517;
  BAS[ATNO][  6].a[ 14] =         1.073533390300;     BAS[ATNO][  6].d[ 14] =         0.031665153981;
  BAS[ATNO][  6].a[ 15] =        22.357457575000;     BAS[ATNO][  6].d[ 15] =         0.000100805539;
  BAS[ATNO][  6].a[ 16] =        10.682526382000;     BAS[ATNO][  6].d[ 16] =        -0.000357742346;
  BAS[ATNO][  6].a[ 17] =         2.485823255000;     BAS[ATNO][  6].d[ 17] =         0.006171611425;
  BAS[ATNO][  6].a[ 18] =         1.073533390300;     BAS[ATNO][  6].d[ 18] =         0.010850315436;
  BAS[ATNO][  6].a[ 19] =        22.357457575000;     BAS[ATNO][  6].d[ 19] =         0.000948527838;

  // Basis function   8 L = p
  InitBFNGauss(BAS[ATNO][  7]);
  BAS[ATNO][  7].l  = 1;
  BAS[ATNO][  7].ng = 20;
  BAS[ATNO][  7].a[  0] =        12.552899300000;     BAS[ATNO][  7].d[  0] =        -0.016067010850;
  BAS[ATNO][  7].a[  1] =         7.244449638000;     BAS[ATNO][  7].d[  1] =         0.062932862940;
  BAS[ATNO][  7].a[  2] =         1.890594107800;     BAS[ATNO][  7].d[  2] =        -0.128718291038;
  BAS[ATNO][  7].a[  3] =         0.907371687600;     BAS[ATNO][  7].d[  3] =        -0.131324145113;
  BAS[ATNO][  7].a[  4] =        12.552899300000;     BAS[ATNO][  7].d[  4] =        -0.081780730311;
  BAS[ATNO][  7].a[  5] =         7.244449638000;     BAS[ATNO][  7].d[  5] =         0.320326882196;
  BAS[ATNO][  7].a[  6] =         1.890594107800;     BAS[ATNO][  7].d[  6] =        -0.655173258030;
  BAS[ATNO][  7].a[  7] =         0.907371687600;     BAS[ATNO][  7].d[  7] =        -0.668436997712;
  BAS[ATNO][  7].a[  8] =        12.552899300000;     BAS[ATNO][  7].d[  8] =        -0.038380664467;
  BAS[ATNO][  7].a[  9] =         7.244449638000;     BAS[ATNO][  7].d[  9] =         0.150333196323;
  BAS[ATNO][  7].a[ 10] =         1.890594107800;     BAS[ATNO][  7].d[ 10] =        -0.307480562824;
  BAS[ATNO][  7].a[ 11] =         0.907371687600;     BAS[ATNO][  7].d[ 11] =        -0.313705392810;
  BAS[ATNO][  7].a[ 12] =         0.408772108100;     BAS[ATNO][  7].d[ 12] =         0.361912568295;
  BAS[ATNO][  7].a[ 13] =         0.408772108100;     BAS[ATNO][  7].d[ 13] =         1.842126978072;
  BAS[ATNO][  7].a[ 14] =         0.408772108100;     BAS[ATNO][  7].d[ 14] =         0.864531989162;
  BAS[ATNO][  7].a[ 15] =         0.115000000000;     BAS[ATNO][  7].d[ 15] =        -0.211849087404;
  BAS[ATNO][  7].a[ 16] =         0.115000000000;     BAS[ATNO][  7].d[ 16] =        -1.078307175196;
  BAS[ATNO][  7].a[ 17] =         0.115000000000;     BAS[ATNO][  7].d[ 17] =        -0.506062317200;
  BAS[ATNO][  7].a[ 18] =         0.037000000000;     BAS[ATNO][  7].d[ 18] =         0.076062548067;
  BAS[ATNO][  7].a[ 19] =         0.037000000000;     BAS[ATNO][  7].d[ 19] =         0.387156689459;

  // Basis function   9 L = d
  InitBFNGauss(BAS[ATNO][  8]);
  BAS[ATNO][  8].l  = 2;
  BAS[ATNO][  8].ng = 20;
  BAS[ATNO][  8].a[  0] =        22.357457575000;     BAS[ATNO][  8].d[  0] =         0.002071440902;
  BAS[ATNO][  8].a[  1] =        10.682526382000;     BAS[ATNO][  8].d[  1] =        -0.007351204487;
  BAS[ATNO][  8].a[  2] =         2.485823255000;     BAS[ATNO][  8].d[  2] =         0.126819701511;
  BAS[ATNO][  8].a[  3] =         1.073533390300;     BAS[ATNO][  8].d[  3] =         0.222961827987;
  BAS[ATNO][  8].a[  4] =        22.357457575000;     BAS[ATNO][  8].d[  4] =         0.005908982817;
  BAS[ATNO][  8].a[  5] =        10.682526382000;     BAS[ATNO][  8].d[  5] =        -0.020970012208;
  BAS[ATNO][  8].a[  6] =         2.485823255000;     BAS[ATNO][  8].d[  6] =         0.361765298964;
  BAS[ATNO][  8].a[  7] =         1.073533390300;     BAS[ATNO][  8].d[  7] =         0.636019888063;
  BAS[ATNO][  8].a[  8] =        22.357457575000;     BAS[ATNO][  8].d[  8] =         0.002736259579;
  BAS[ATNO][  8].a[  9] =        10.682526382000;     BAS[ATNO][  8].d[  9] =        -0.009710537086;
  BAS[ATNO][  8].a[ 10] =         2.485823255000;     BAS[ATNO][  8].d[ 10] =         0.167521855357;
  BAS[ATNO][  8].a[ 11] =         1.073533390300;     BAS[ATNO][  8].d[ 11] =         0.294520320211;
  BAS[ATNO][  8].a[ 12] =        22.357457575000;     BAS[ATNO][  8].d[ 12] =        -0.000619758125;
  BAS[ATNO][  8].a[ 13] =        10.682526382000;     BAS[ATNO][  8].d[ 13] =         0.002199420079;
  BAS[ATNO][  8].a[ 14] =         2.485823255000;     BAS[ATNO][  8].d[ 14] =        -0.037943414356;
  BAS[ATNO][  8].a[ 15] =         1.073533390300;     BAS[ATNO][  8].d[ 15] =        -0.066708349918;
  BAS[ATNO][  8].a[ 16] =        22.357457575000;     BAS[ATNO][  8].d[ 16] =        -0.001039931602;
  BAS[ATNO][  8].a[ 17] =        10.682526382000;     BAS[ATNO][  8].d[ 17] =         0.003690546929;
  BAS[ATNO][  8].a[ 18] =         2.485823255000;     BAS[ATNO][  8].d[ 18] =        -0.063667669815;
  BAS[ATNO][  8].a[ 19] =         1.073533390300;     BAS[ATNO][  8].d[ 19] =        -0.111934185907;

-------------------------------------------
RADIAL EXPECTATION VALUES <R**-3> TO <R**3>
-------------------------------------------
   0 :     0.000000     1.424316     1.136140     0.969731     1.036035     1.220585
   1 :     1.628219     1.234971     1.051603     1.060451     1.253989     1.653953
   2 :     1.626684     1.234010     1.051107     1.061175     1.256052     1.658877
   3 :     1.626286     1.233761     1.050979     1.061363     1.256587     1.660157
   4 :     0.998201     0.832554     0.834520     1.434677     2.469777    25.474034
   5 :     1.002644     0.835619     0.836456     1.429308     2.446829    25.046618
   6 :     0.000000     0.190046     0.371249     3.265107    12.335411    53.148913
   7 :     0.000000     0.104718     0.250659     5.307656    32.591038   217.235615
   8 :     0.000000     0.814422     0.757280     1.917722     5.781899    26.176957
   9 :     1.001617     0.834922     0.836030     1.430405     2.451350    25.130180
  10 :     1.000511     0.834181     0.835577     1.431570     2.456145    25.216073
  11 :     0.996202     0.831287     0.833803     1.436148     2.475036    25.555307
  12 :     0.028125     0.059247     0.213852     5.404971    32.498141   213.267097
  13 :     0.027523     0.058437     0.212591     5.428604    32.744414   215.375419
  14 :     0.027369     0.058230     0.212268     5.434660    32.807582   215.916594
  15 :     0.094457     0.131906     0.302106     4.450692    25.352648   172.010531
  16 :     0.094962     0.132518     0.303089     4.429967    25.129673   170.068591
  17 :     0.095090     0.132674     0.303340     4.424661    25.072515   169.570314
  18 :     0.151084     0.175240     0.346191     3.456470    13.005391   258.098665
  19 :     0.151530     0.175559     0.346404     3.455940    13.003578   258.080346
  20 :     0.155327     0.178253     0.348214     3.449580    12.971868   257.395426
  21 :     0.151948     0.175874     0.346614     3.455404    13.001724   258.057508
  22 :     0.153603     0.177120     0.347450     3.453256    12.994163   257.960943
  23 :     0.631185     0.534910     0.616885     2.325700     7.883607    38.064997
  24 :     0.632816     0.536069     0.617660     2.322069     7.858246    37.893690
  25 :     0.633239     0.536369     0.617860     2.321131     7.851700    37.849512
  26 :     1.038553     0.759858     0.729002     1.958429     5.100460    81.179190
  27 :     1.050989     0.759432     0.728748     1.958345     5.091576    81.720744
  28 :     1.051676     0.759859     0.728991     1.957715     5.088634    81.657689
  29 :     1.049420     0.759194     0.728500     1.960369     5.105406    81.999674
  30 :     1.054330     0.761506     0.729929     1.955286     5.077304    81.415020
  31 :     0.000000     6.383869     2.225064     0.581083     0.599370     1.587378
  32 :     0.000000    63.227476     6.333362     0.221797     0.094040     0.162940
Making the total density                ... o.k.
o.k.
Initializing the integrals              ... done
Making exponents                        ... done
Making rho(0)                           ... done (         0.000578808)
Integral calculation                    ... Two index integrals                     ... done
Solving the equation system             ... done
atomic density will be written to file MOR29_pr11_atom46.adf

-------
TIMINGS
-------

Total SCF time: 0 days 0 hours 0 min 0 sec 

Total time                  ....       0.853 sec
Sum of individual times     ....       0.540 sec  ( 63.2%)

Fock matrix formation       ....       0.357 sec  ( 41.9%)
Diagonalization             ....       0.176 sec  ( 20.7%)
Density matrix formation    ....       0.001 sec  (  0.1%)
Population analysis         ....       0.000 sec  (  0.0%)
Initial guess               ....       0.000 sec  (  0.1%)
Orbital Transformation      ....       0.000 sec  (  0.0%)
Orbital Orthonormalization  ....       0.000 sec  (  0.0%)
DIIS solution               ....       0.005 sec  (  0.6%)

-------------------------   --------------------
FINAL SINGLE POINT ENERGY      -126.956245915888
-------------------------   --------------------


                            ***************************************
                            *     ORCA property calculations      *
                            ***************************************

                                    ---------------------
                                    Active property flags
                                    ---------------------
   (+) Dipole Moment


------------------------------------------------------------------------------
                       ORCA ELECTRIC PROPERTIES CALCULATION
------------------------------------------------------------------------------

Dipole Moment Calculation                       ... on
Quadrupole Moment Calculation                   ... off
Polarizability Calculation                      ... off
GBWName                                         ... MOR29_pr11_atom46.gbw
Electron density file                           ... MOR29_pr11_atom46.scfp
The origin for moment calculation is the CENTER OF MASS  = ( 0.000000,  0.000000  0.000000)

-------------
DIPOLE MOMENT
-------------
                                X             Y             Z
Electronic contribution:      0.00000      -0.00000      -0.00000
Nuclear contribution   :      0.00000       0.00000       0.00000
                        -----------------------------------------
Total Dipole Moment    :      0.00000      -0.00000      -0.00000
                        -----------------------------------------
Magnitude (a.u.)       :      0.00000
Magnitude (Debye)      :      0.00000



--------------------
Rotational spectrum 
--------------------
 
Rotational constants in cm-1:     0.000000     0.000000     0.000000 
Rotational constants in MHz :     0.000000     0.000000     0.000000 

 Dipole components along the rotational axes: 
x,y,z [a.u.] :     0.000000    -0.000000    -0.000000 
x,y,z [Debye]:     0.000000    -0.000000    -0.000000 

 

Timings for individual modules:

Sum of individual times         ...        1.321 sec (=   0.022 min)
GTO integral calculation        ...        0.327 sec (=   0.005 min)  24.7 %
SCF iterations                  ...        0.994 sec (=   0.017 min)  75.3 %
                             ****ORCA TERMINATED NORMALLY****
TOTAL RUN TIME: 0 days 0 hours 0 minutes 1 seconds 546 msec
