
                                 *****************
                                 * O   R   C   A *
                                 *****************

           --- An Ab Initio, DFT and Semiempirical electronic structure package ---

                  #######################################################
                  #                        -***-                        #
                  #          Department of theory and spectroscopy      #
                  #               Directorship: Frank Neese             #
                  #        Max Planck Institute fuer Kohlenforschung    #
                  #                Kaiser Wilhelm Platz 1               #
                  #                 D-45470 Muelheim/Ruhr               #
                  #                      Germany                        #
                  #                                                     #
                  #                  All rights reserved                #
                  #                        -***-                        #
                  #######################################################


                         Program Version 4.2.0 -  RELEASE  -


 With contributions from (in alphabetic order):
   Daniel Aravena         : Magnetic Suceptibility
   Michael Atanasov       : Ab Initio Ligand Field Theory (pilot matlab implementation)
   Alexander A. Auer      : GIAO ZORA, VPT2
   Ute Becker             : Parallelization
   Giovanni Bistoni       : ED, misc. LED, open-shell LED, HFLED
   Martin Brehm           : Molecular dynamics
   Dmytro Bykov           : SCF Hessian
   Vijay G. Chilkuri      : MRCI spin determinant printing, contributions to CSF-ICE
   Dipayan Datta          : RHF DLPNO-CCSD density
   Achintya Kumar Dutta   : EOM-CC, STEOM-CC
   Dmitry Ganyushin       : Spin-Orbit,Spin-Spin,Magnetic field MRCI
   Miquel Garcia          : C-PCM Hessian, Gaussian charge scheme
   Yang Guo               : DLPNO-NEVPT2, CIM, IAO-localization
   Andreas Hansen         : Spin unrestricted coupled pair/coupled cluster methods
   Benjamin Helmich-Paris : CASSCF linear response (MC-RPA)
   Lee Huntington         : MR-EOM, pCC
   Robert Izsak           : Overlap fitted RIJCOSX, COSX-SCS-MP3, EOM
   Christian Kollmar      : KDIIS, OOCD, Brueckner-CCSD(T), CCSD density
   Simone Kossmann        : Meta GGA functionals, TD-DFT gradient, OOMP2, MP2 Hessian
   Martin Krupicka        : AUTO-CI
   Lucas Lang             : DCDCAS
   Dagmar Lenk            : GEPOL surface, SMD
   Dimitrios Liakos       : Extrapolation schemes; Compound Job, initial MDCI parallelization
   Dimitrios Manganas     : Further ROCIS development; embedding schemes
   Dimitrios Pantazis     : SARC Basis sets
   Taras Petrenko         : DFT Hessian,TD-DFT gradient, ASA, ECA, R-Raman, ABS, FL, XAS/XES, NRVS
   Peter Pinski           : DLPNO-MP2, DLPNO-MP2 Gradient
   Christoph Reimann      : Effective Core Potentials
   Marius Retegan         : Local ZFS, SOC
   Christoph Riplinger    : Optimizer, TS searches, QM/MM, DLPNO-CCSD(T), (RO)-DLPNO pert. Triples
   Tobias Risthaus        : Range-separated hybrids, TD-DFT gradient, RPA, STAB
   Michael Roemelt        : Original ROCIS implementation
   Masaaki Saitow         : Open-shell DLPNO-CCSD energy and density
   Barbara Sandhoefer     : DKH picture change effects
   Avijit Sen             : IP-ROCIS
   Kantharuban Sivalingam : CASSCF convergence, NEVPT2, FIC-MRCI
   Bernardo de Souza      : ESD, SOC TD-DFT
   Georgi Stoychev        : AutoAux, RI-MP2 NMR
   Willem Van den Heuvel  : Paramagnetic NMR
   Boris Wezisla          : Elementary symmetry handling
   Frank Wennmohs         : Technical directorship


 We gratefully acknowledge several colleagues who have allowed us to
 interface, adapt or use parts of their codes:
   Stefan Grimme, W. Hujo, H. Kruse,             : VdW corrections, initial TS optimization,
                  C. Bannwarth                     DFT functionals, gCP, sTDA/sTD-DF
   Ed Valeev, F. Pavosevic, A. Kumar             : LibInt (2-el integral package), F12 methods
   Garnet Chan, S. Sharma, J. Yang, R. Olivares  : DMRG
   Ulf Ekstrom                                   : XCFun DFT Library
   Mihaly Kallay                                 : mrcc  (arbitrary order and MRCC methods)
   Andreas Klamt, Michael Diedenhofen            : otool_cosmo (COSMO solvation model)
   Jiri Pittner, Ondrej Demel                    : Mk-CCSD
   Frank Weinhold                                : gennbo (NPA and NBO analysis)
   Christopher J. Cramer and Donald G. Truhlar   : smd solvation model
   Lars Goerigk                                  : TD-DFT with DH, B97 family of functionals
   V. Asgeirsson, H. Jonsson                     : NEB implementation
   FAccTs GmbH                                   : IRC, NEB, NEB-TS, Multilevel, MM, QM/MM, CI optimization
   S Lehtola, MJT Oliveira, MAL Marques          : LibXC Library


 Your calculation uses the libint2 library for the computation of 2-el integrals
 For citations please refer to: http://libint.valeyev.net

 Your ORCA version has been built with support for libXC version: 4.2.3
 For citations please refer to: https://tddft.org/programs/libxc/

 This ORCA versions uses:
   CBLAS   interface :  Fast vector & matrix operations
   LAPACKE interface :  Fast linear algebra routines
   SCALAPACK package :  Parallel linear algebra routines


Your calculation utilizes the atom-pairwise dispersion correction
with the Becke-Johnson damping scheme (D3BJ)
Cite in your paper:
S.Grimme, S.Ehrlich, L.Goerigk, J Comput Chem, (2011), 32, 1456–1465 
S.Grimme, J.Antony, S.Ehrlich and H.Krieg, J.Chem.Phys., 132, (2010), 154104 
   

----- Orbital basis set information -----
Your calculation utilizes the basis: def2-TZVPPD
   F. Weigend and R. Ahlrichs, Phys. Chem. Chem. Phys. 7, 3297 (2005).
   D. Rappoport and F. Furche, J. Chem. Phys. 133 134105 (2010).

----- AuxJK basis set information -----
Your calculation utilizes the auxiliary basis: def2/JK
   H-Ba, Hf-Rn: F. Weigend, J. Comput. Chem. 29, 167 (2008).

================================================================================
                                        WARNINGS
                       Please study these warnings very carefully!
================================================================================


INFO   : the flag for use of LIBINT has been found!

================================================================================
                                       INPUT FILE
================================================================================
NAME = MOR26_pr05.in
|  1> #
|  2> # MOR26_pr05 TPSSh-D3BJ/Def2-TZVPPD
|  3> #
|  4> ! tpssh d3bj def2-tzvppd def2/jk grid4 nofinalgrid
|  5> 
|  6> *xyz 0 1
|  7> Mn       0.144445   -0.000220    0.050119 
|  8> O       -2.125838   -0.018069    2.024989 
|  9> C       -1.261969   -0.011297    1.274333 
| 10> C        1.407998   -0.004194    1.401883 
| 11> O        2.195378   -0.006691    2.240943 
| 12> C        1.458789    0.011243   -1.252981 
| 13> O        2.260044    0.018413   -2.075843 
| 14> C       -0.034165    1.837211   -0.109707 
| 15> O       -0.163636    2.972926   -0.231026 
| 16> C       -0.023402   -1.836685   -0.130415 
| 17> O       -0.146189   -2.971707   -0.264701 
| 18> C       -1.328355    0.004078   -1.485929 
| 19> O       -2.518815    0.004844   -1.307728 
| 20> H       -0.932058    0.005632   -2.529143 
| 21> *
| 22> 
| 23> %maxcore 5000
| 24> 
| 25> %pal
| 26> nprocs = 24
| 27> end
| 28> 
| 29> 
| 30>                          ****END OF INPUT****
================================================================================

                       ****************************
                       * Single Point Calculation *
                       ****************************

---------------------------------
CARTESIAN COORDINATES (ANGSTROEM)
---------------------------------
  Mn     0.144445   -0.000220    0.050119
  O     -2.125838   -0.018069    2.024989
  C     -1.261969   -0.011297    1.274333
  C      1.407998   -0.004194    1.401883
  O      2.195378   -0.006691    2.240943
  C      1.458789    0.011243   -1.252981
  O      2.260044    0.018413   -2.075843
  C     -0.034165    1.837211   -0.109707
  O     -0.163636    2.972926   -0.231026
  C     -0.023402   -1.836685   -0.130415
  O     -0.146189   -2.971707   -0.264701
  C     -1.328355    0.004078   -1.485929
  O     -2.518815    0.004844   -1.307728
  H     -0.932058    0.005632   -2.529143

----------------------------
CARTESIAN COORDINATES (A.U.)
----------------------------
  NO LB      ZA    FRAG     MASS         X           Y           Z
   0 Mn   25.0000    0    54.940    0.272961   -0.000416    0.094711
   1 O     8.0000    0    15.999   -4.017252   -0.034145    3.826675
   2 C     6.0000    0    12.011   -2.384776   -0.021348    2.408140
   3 C     6.0000    0    12.011    2.660731   -0.007926    2.649175
   4 O     8.0000    0    15.999    4.148663   -0.012644    4.234769
   5 C     6.0000    0    12.011    2.756712    0.021246   -2.367791
   6 O     8.0000    0    15.999    4.270864    0.034796   -3.922775
   7 C     6.0000    0    12.011   -0.064562    3.471826   -0.207316
   8 O     8.0000    0    15.999   -0.309227    5.618016   -0.436576
   9 C     6.0000    0    12.011   -0.044223   -3.470832   -0.246449
  10 O     8.0000    0    15.999   -0.276257   -5.615712   -0.500212
  11 C     6.0000    0    12.011   -2.510227    0.007706   -2.807999
  12 O     8.0000    0    15.999   -4.759871    0.009154   -2.471248
  13 H     1.0000    0     1.008   -1.761334    0.010643   -4.779388

--------------------------------
INTERNAL COORDINATES (ANGSTROEM)
--------------------------------
 Mn     0   0   0     0.000000000000     0.00000000     0.00000000
 O      1   0   0     3.009088733120     0.00000000     0.00000000
 C      2   1   0     1.144464914045     0.03041535     0.00000000
 C      1   2   3     1.850364258242    92.04815318   358.56793053
 O      4   1   2     1.150649895932   179.88817481   178.99800703
 C      1   2   3     1.850864976357   176.26546905   178.67386830
 O      6   1   4     1.148548150914   178.99167701   180.05112011
 C      1   2   3     1.852997183521    89.41362174   261.05865897
 O      8   1   2     1.149491018158   178.54059878   269.14653314
 C      1   2   3     1.852935194978    89.41108737    96.07386998
 O     10   1   2     1.149514818369   178.53558814    91.11368451
 C      1   2   3     2.128051167408    87.22426120   178.56497759
 O     12   1   2     1.203723886428   125.28233795     0.30865801
 H     12   1   2     1.115952139171   115.40349045   180.31250334

---------------------------
INTERNAL COORDINATES (A.U.)
---------------------------
 Mn     0   0   0     0.000000000000     0.00000000     0.00000000
 O      1   0   0     5.686353618265     0.00000000     0.00000000
 C      2   1   0     2.162725257428     0.03041535     0.00000000
 C      1   2   3     3.496681696075    92.04815318   358.56793053
 O      4   1   2     2.174413179337   179.88817481   178.99800703
 C      1   2   3     3.497627916181   176.26546905   178.67386830
 O      6   1   4     2.170441456850   178.99167701   180.05112011
 C      1   2   3     3.501657203782    89.41362174   261.05865897
 O      8   1   2     2.172223217722   178.54059878   269.14653314
 C      1   2   3     3.501540062413    89.41108737    96.07386998
 O     10   1   2     2.172268193601   178.53558814    91.11368451
 C      1   2   3     4.021433905373    87.22426120   178.56497759
 O     12   1   2     2.274708486208   125.28233795     0.30865801
 H     12   1   2     2.108843921597   115.40349045   180.31250334

---------------------
BASIS SET INFORMATION
---------------------
There are 4 groups of distinct atoms

 Group   1 Type Mn  : 17s13p7d2f1g contracted to 6s6p4d2f1g pattern {842111/631111/4111/11/1}
 Group   2 Type O   : 12s7p3d1f contracted to 6s4p3d1f pattern {621111/4111/111/1}
 Group   3 Type C   : 12s6p3d1f contracted to 6s3p3d1f pattern {621111/411/111/1}
 Group   4 Type H   : 5s3p1d contracted to 3s3p1d pattern {311/111/1}

Atom   0Mn   basis set group =>   1
Atom   1O    basis set group =>   2
Atom   2C    basis set group =>   3
Atom   3C    basis set group =>   3
Atom   4O    basis set group =>   2
Atom   5C    basis set group =>   3
Atom   6O    basis set group =>   2
Atom   7C    basis set group =>   3
Atom   8O    basis set group =>   2
Atom   9C    basis set group =>   3
Atom  10O    basis set group =>   2
Atom  11C    basis set group =>   3
Atom  12O    basis set group =>   2
Atom  13H    basis set group =>   4
----------------------------------
AUXILIARY/JK BASIS SET INFORMATION
----------------------------------
There are 4 groups of distinct atoms

 Group   1 Type Mn  : 19s14p12d10f7g3h1i contracted to 16s13p11d9f5g3h1i pattern {4111111111111111/2111111111111/21111111111/211111111/31111/111/1}
 Group   2 Type O   : 14s10p6d2f1g contracted to 10s8p4d2f1g pattern {5111111111/31111111/3111/11/1}
 Group   3 Type C   : 14s10p6d2f1g contracted to 10s8p5d1f1g pattern {5111111111/31111111/21111/2/1}
 Group   4 Type H   : 4s2p2d contracted to 2s2p2d pattern {31/11/11}

Atom   0Mn   basis set group =>   1
Atom   1O    basis set group =>   2
Atom   2C    basis set group =>   3
Atom   3C    basis set group =>   3
Atom   4O    basis set group =>   2
Atom   5C    basis set group =>   3
Atom   6O    basis set group =>   2
Atom   7C    basis set group =>   3
Atom   8O    basis set group =>   2
Atom   9C    basis set group =>   3
Atom  10O    basis set group =>   2
Atom  11C    basis set group =>   3
Atom  12O    basis set group =>   2
Atom  13H    basis set group =>   4


           ************************************************************
           *        Program running with 24 parallel MPI-processes    *
           *              working on a common directory               *
           ************************************************************
------------------------------------------------------------------------------
                           ORCA GTO INTEGRAL CALCULATION
------------------------------------------------------------------------------

                         BASIS SET STATISTICS AND STARTUP INFO

 # of primitive gaussian shells          ...  319
 # of primitive gaussian functions       ...  775
 # of contracted shells                  ...  188
 # of contracted basis functions         ...  546
 Highest angular momentum                ...    4
 Maximum contraction depth               ...    8
 Integral package used                   ... LIBINT
 Integral threshhold            Thresh   ...  1.000e-10
 Primitive cut-off              TCut     ...  1.000e-11


------------------------------ INTEGRAL EVALUATION ----------------------------


 * One electron integrals 
 Pre-screening matrix                    ... done
 Shell pair data                         ... done (   0.004 sec)



           ************************************************************
           *        Program running with 24 parallel MPI-processes    *
           *              working on a common directory               *
           ************************************************************
-------------------------------------------------------------------------------
                                 ORCA SCF
-------------------------------------------------------------------------------

------------
SCF SETTINGS
------------
Hamiltonian:
 Density Functional     Method          .... DFT(GTOs)
 Exchange Functional    Exchange        .... TPSS
 Correlation Functional Correlation     .... TPSS
 LDA part of GGA corr.  LDAOpt          .... PW91-LDA
 Gradients option       PostSCFGGA      .... off
 Hybrid DFT is turned on
   Fraction HF Exchange ScalHFX         ....  0.100000
   Scaling of DF-GGA-X  ScalDFX         ....  0.900000
   Scaling of DF-GGA-C  ScalDFC         ....  1.000000
   Scaling of DF-LDA-C  ScalLDAC        ....  1.000000
   Perturbative correction              ....  0.000000
   Density functional embedding theory  .... OFF
   NL short-range parameter             ....  5.200000


General Settings:
 Integral files         IntName         .... MOR26_pr05
 Hartree-Fock type      HFTyp           .... RHF
 Total Charge           Charge          ....    0
 Multiplicity           Mult            ....    1
 Number of Electrons    NEL             ....  110
 Basis Dimension        Dim             ....  546
 Nuclear Repulsion      ENuc            ....   1032.4749279793 Eh

Convergence Acceleration:
 DIIS                   CNVDIIS         .... on
   Start iteration      DIISMaxIt       ....    12
   Startup error        DIISStart       ....  0.200000
   # of expansion vecs  DIISMaxEq       ....     5
   Bias factor          DIISBfac        ....   1.050
   Max. coefficient     DIISMaxC        ....  10.000
 Newton-Raphson         CNVNR           .... off
 SOSCF                  CNVSOSCF        .... off
 Level Shifting         CNVShift        .... on
   Level shift para.    LevelShift      ....    0.2500
   Turn off err/grad.   ShiftErr        ....    0.0010
 Zerner damping         CNVZerner       .... off
 Static damping         CNVDamp         .... on
   Fraction old density DampFac         ....    0.7000
   Max. Damping (<1)    DampMax         ....    0.9800
   Min. Damping (>=0)   DampMin         ....    0.0000
   Turn off err/grad.   DampErr         ....    0.1000
 Fernandez-Rico         CNVRico         .... off

SCF Procedure:
 Maximum # iterations   MaxIter         ....   125
 SCF integral mode      SCFMode         .... Direct
   Integral package                     .... LIBINT
 Reset frequency        DirectResetFreq ....    20
 Integral Threshold     Thresh          ....  1.000e-10 Eh
 Primitive CutOff       TCut            ....  1.000e-11 Eh

Convergence Tolerance:
 Convergence Check Mode ConvCheckMode   .... Total+1el-Energy
 Convergence forced     ConvForced      .... 0
 Energy Change          TolE            ....  1.000e-06 Eh
 1-El. energy change                    ....  1.000e-03 Eh
 DIIS Error             TolErr          ....  1.000e-06


Diagonalization of the overlap matrix:
Smallest eigenvalue                        ... 1.070e-06
Time for diagonalization                   ...    0.042 sec
Threshold for overlap eigenvalues          ... 1.000e-08
Number of eigenvalues below threshold      ... 0
Time for construction of square roots      ...    0.048 sec
Total time needed                          ...    0.090 sec

-------------------
DFT GRID GENERATION
-------------------

General Integration Accuracy     IntAcc      ...  4.670
Radial Grid Type                 RadialGrid  ... Gauss-Chebyshev
Angular Grid (max. acc.)         AngularGrid ... Lebedev-302
Angular grid pruning method      GridPruning ... 3 (G Style)
Weight generation scheme         WeightScheme... Becke
Basis function cutoff            BFCut       ...    1.0000e-10
Integration weight cutoff        WCut        ...    1.0000e-14
Grids for H and He will be reduced by one unit

# of grid points (after initial pruning)     ...  87602 (   0.0 sec)
# of grid points (after weights+screening)   ...  81371 (   0.0 sec)
nearest neighbour list constructed           ...    0.0 sec
Grid point re-assignment to atoms done       ...    0.0 sec
Grid point division into batches done        ...    0.4 sec
Reduced shell lists constructed in    0.4 sec

Total number of grid points                  ...    81371
Total number of batches                      ...     1280
Average number of points per batch           ...       63
Average number of grid points per atom       ...     5812
Average number of shells per batch           ...   141.98 (75.52%)
Average number of basis functions per batch  ...   431.55 (79.04%)
Average number of large shells per batch     ...   121.20 (85.36%)
Average number of large basis fcns per batch ...   366.33 (84.89%)
Maximum spatial batch extension              ...   1.86,  1.69,  1.81 au
Average spatial batch extension              ...   0.05,  0.05,  0.05 au

Time for grid setup =    0.476 sec

------------------------------
INITIAL GUESS: MODEL POTENTIAL
------------------------------
Loading Hartree-Fock densities                     ... done
Calculating cut-offs                               ... done
Setting up the integral package                    ... done
Initializing the effective Hamiltonian             ... done
Starting the Coulomb interaction                   ... done (   0.0 sec)
Reading the grid                                   ... done
Mapping shells                                     ... done
Starting the XC term evaluation                    ... done (   0.1 sec)
  promolecular density results
     # of electrons  =    109.999531974
     EX              =   -130.399485572
     EC              =     -3.944044096
     EX+EC           =   -134.343529669
Transforming the Hamiltonian                       ... done (   0.0 sec)
Diagonalizing the Hamiltonian                      ... done (   0.0 sec)
Back transforming the eigenvectors                 ... done (   0.0 sec)
Now organizing SCF variables                       ... done
                      ------------------
                      INITIAL GUESS DONE (   0.8 sec)
                      ------------------
--------------
SCF ITERATIONS
--------------
ITER       Energy         Delta-E        Max-DP      RMS-DP      [F,P]     Damp
               ***  Starting incremental Fock matrix formation  ***
  0  -1831.7898390191   0.000000000000 0.14269771  0.00133789  0.2493165 0.7000
  1  -1831.8803630115  -0.090523992340 0.16453755  0.00105626  0.0776582 0.7000
                               ***Turning on DIIS***
  2  -1831.9162310809  -0.035868069432 0.26213657  0.00207787  0.0339102 0.0000
  3  -1831.9830675039  -0.066836423002 0.14738931  0.00075393  0.0572563 0.0000
  4  -1831.9727289216   0.010338582285 0.01572459  0.00010519  0.1511874 0.7000
  5  -1831.9804405059  -0.007711584236 0.01574473  0.00009444  0.1211099 0.7000
  6  -1831.9869821743  -0.006541668447 0.04514670  0.00028776  0.0893966 0.0000
  7  -1831.9962540097  -0.009271835434 0.01692285  0.00014639  0.0079158 0.0000
  8  -1831.9963555695  -0.000101559744 0.00498770  0.00004731  0.0072014 0.0000
  9  -1831.9964210500  -0.000065480545 0.00794899  0.00005660  0.0025803 0.0000
 10  -1831.9964518384  -0.000030788359 0.01610150  0.00010628  0.0009032 0.0000
 11  -1831.9964550690  -0.000003230573 0.01114808  0.00004514  0.0002708 0.0000
 12  -1831.9964530223   0.000002046637 0.00187931  0.00001458  0.0010585 0.0000
 13  -1831.9964551413  -0.000002119001 0.02804494  0.00012660  0.0003177 0.0000
 14  -1831.9964554418  -0.000000300495 0.02844961  0.00018034  0.0000759 0.0000
 15  -1831.9964554342   0.000000007620 0.00950250  0.00007844  0.0000307 0.0000
 16  -1831.9964554157   0.000000018494 0.00462094  0.00003495  0.0000243 0.0000
                 **** Energy Check signals convergence ****

               *****************************************************
               *                     SUCCESS                       *
               *           SCF CONVERGED AFTER  17 CYCLES          *
               *****************************************************


----------------
TOTAL SCF ENERGY
----------------

Total Energy       :        -1831.99645543 Eh          -49851.15794 eV

Components:
Nuclear Repulsion  :         1032.47492798 Eh           28095.07112 eV
Electronic Energy  :        -2864.47138341 Eh          -77946.22905 eV
One Electron Energy:        -4570.22726438 Eh         -124362.20632 eV
Two Electron Energy:         1705.75588097 Eh           46415.97726 eV

Virial components:
Potential Energy   :        -3659.29871948 Eh          -99574.58043 eV
Kinetic Energy     :         1827.30226404 Eh           49723.42249 eV
Virial Ratio       :            2.00256892


DFT components:
N(Alpha)           :       54.999988470009 electrons
N(Beta)            :       54.999988470009 electrons
N(Total)           :      109.999976940017 electrons
E(X)               :     -119.094205452353 Eh       
E(C)               :       -4.001547004921 Eh       
E(XC)              :     -123.095752457274 Eh       
DFET-embed. en.    :        0.000000000000 Eh       

---------------
SCF CONVERGENCE
---------------

  Last Energy change         ...   -1.6959e-08  Tolerance :   1.0000e-06
  Last MAX-Density change    ...    4.7421e-03  Tolerance :   1.0000e-05
  Last RMS-Density change    ...    2.4418e-05  Tolerance :   1.0000e-06
  Last DIIS Error            ...    1.2493e-05  Tolerance :   1.0000e-06

             **** THE GBW FILE WAS UPDATED (MOR26_pr05.gbw) ****
             **** DENSITY FILE WAS UPDATED (MOR26_pr05.scfp) ****
             **** ENERGY FILE WAS UPDATED (MOR26_pr05.en.tmp) ****
             **** THE GBW FILE WAS UPDATED (MOR26_pr05.gbw) ****
             **** DENSITY FILE WAS UPDATED (MOR26_pr05.scfp) ****
----------------
ORBITAL ENERGIES
----------------

  NO   OCC          E(Eh)            E(eV) 
   0   2.0000    -235.306603     -6403.0182 
   1   2.0000     -27.232641      -741.0378 
   2   2.0000     -23.286821      -633.6666 
   3   2.0000     -23.285794      -633.6387 
   4   2.0000     -23.281090      -633.5107 
   5   2.0000     -19.163946      -521.4775 
   6   2.0000     -19.161347      -521.4068 
   7   2.0000     -19.156576      -521.2769 
   8   2.0000     -19.156559      -521.2765 
   9   2.0000     -19.151967      -521.1515 
  10   2.0000     -19.073785      -519.0241 
  11   2.0000     -10.258624      -279.1513 
  12   2.0000     -10.256898      -279.1044 
  13   2.0000     -10.254715      -279.0450 
  14   2.0000     -10.254700      -279.0446 
  15   2.0000     -10.250291      -278.9246 
  16   2.0000     -10.213243      -277.9165 
  17   2.0000      -3.158049       -85.9349 
  18   2.0000      -2.025663       -55.1211 
  19   2.0000      -2.024111       -55.0789 
  20   2.0000      -2.012352       -54.7589 
  21   2.0000      -1.140848       -31.0440 
  22   2.0000      -1.139176       -30.9986 
  23   2.0000      -1.133536       -30.8451 
  24   2.0000      -1.133500       -30.8441 
  25   2.0000      -1.128710       -30.7138 
  26   2.0000      -1.041231       -28.3333 
  27   2.0000      -0.626217       -17.0402 
  28   2.0000      -0.584157       -15.8957 
  29   2.0000      -0.573247       -15.5988 
  30   2.0000      -0.570676       -15.5289 
  31   2.0000      -0.566027       -15.4024 
  32   2.0000      -0.565798       -15.3961 
  33   2.0000      -0.501799       -13.6547 
  34   2.0000      -0.484109       -13.1733 
  35   2.0000      -0.477557       -12.9950 
  36   2.0000      -0.476514       -12.9666 
  37   2.0000      -0.476428       -12.9643 
  38   2.0000      -0.473870       -12.8947 
  39   2.0000      -0.471722       -12.8362 
  40   2.0000      -0.460564       -12.5326 
  41   2.0000      -0.456893       -12.4327 
  42   2.0000      -0.454399       -12.3648 
  43   2.0000      -0.453210       -12.3325 
  44   2.0000      -0.452672       -12.3178 
  45   2.0000      -0.445863       -12.1326 
  46   2.0000      -0.440536       -11.9876 
  47   2.0000      -0.427076       -11.6213 
  48   2.0000      -0.416710       -11.3393 
  49   2.0000      -0.388939       -10.5836 
  50   2.0000      -0.382671       -10.4130 
  51   2.0000      -0.285315        -7.7638 
  52   2.0000      -0.271387        -7.3848 
  53   2.0000      -0.269303        -7.3281 
  54   2.0000      -0.223803        -6.0900 
  55   0.0000      -0.077350        -2.1048 
  56   0.0000      -0.075837        -2.0636 
  57   0.0000      -0.070784        -1.9261 
  58   0.0000      -0.068773        -1.8714 
  59   0.0000      -0.059609        -1.6220 
  60   0.0000      -0.057696        -1.5700 
  61   0.0000      -0.054944        -1.4951 
  62   0.0000      -0.048137        -1.3099 
  63   0.0000      -0.040946        -1.1142 
  64   0.0000      -0.034534        -0.9397 
  65   0.0000      -0.027115        -0.7378 
  66   0.0000      -0.011073        -0.3013 
  67   0.0000      -0.006758        -0.1839 
  68   0.0000      -0.004370        -0.1189 
  69   0.0000       0.012283         0.3342 
  70   0.0000       0.015833         0.4308 
  71   0.0000       0.023029         0.6266 
  72   0.0000       0.044480         1.2104 
  73   0.0000       0.048877         1.3300 
  74   0.0000       0.052315         1.4236 
  75   0.0000       0.053525         1.4565 
  76   0.0000       0.055141         1.5005 
  77   0.0000       0.077211         2.1010 
  78   0.0000       0.080012         2.1772 
  79   0.0000       0.080568         2.1924 
  80   0.0000       0.089874         2.4456 
  81   0.0000       0.090958         2.4751 
  82   0.0000       0.093326         2.5395 
  83   0.0000       0.096165         2.6168 
  84   0.0000       0.121870         3.3162 
  85   0.0000       0.122474         3.3327 
  86   0.0000       0.129837         3.5330 
  87   0.0000       0.130119         3.5407 
  88   0.0000       0.133809         3.6411 
  89   0.0000       0.137322         3.7367 
  90   0.0000       0.138336         3.7643 
  91   0.0000       0.141337         3.8460 
  92   0.0000       0.144432         3.9302 
  93   0.0000       0.171091         4.6556 
  94   0.0000       0.175564         4.7773 
  95   0.0000       0.177486         4.8296 
  96   0.0000       0.182364         4.9624 
  97   0.0000       0.193461         5.2643 
  98   0.0000       0.202653         5.5145 
  99   0.0000       0.206956         5.6316 
 100   0.0000       0.212558         5.7840 
 101   0.0000       0.212932         5.7942 
 102   0.0000       0.220763         6.0073 
 103   0.0000       0.234984         6.3942 
 104   0.0000       0.239163         6.5079 
 105   0.0000       0.240253         6.5376 
 106   0.0000       0.242869         6.6088 
 107   0.0000       0.243995         6.6394 
 108   0.0000       0.250643         6.8203 
 109   0.0000       0.254741         6.9319 
 110   0.0000       0.257018         6.9938 
 111   0.0000       0.271135         7.3780 
 112   0.0000       0.275557         7.4983 
 113   0.0000       0.289621         7.8810 
 114   0.0000       0.294147         8.0041 
 115   0.0000       0.299608         8.1528 
 116   0.0000       0.305912         8.3243 
 117   0.0000       0.306322         8.3354 
 118   0.0000       0.313445         8.5293 
 119   0.0000       0.319361         8.6902 
 120   0.0000       0.326076         8.8730 
 121   0.0000       0.332284         9.0419 
 122   0.0000       0.333150         9.0655 
 123   0.0000       0.338649         9.2151 
 124   0.0000       0.344535         9.3753 
 125   0.0000       0.347540         9.4570 
 126   0.0000       0.353984         9.6324 
 127   0.0000       0.356629         9.7044 
 128   0.0000       0.360328         9.8050 
 129   0.0000       0.367760        10.0073 
 130   0.0000       0.373985        10.1766 
 131   0.0000       0.387347        10.5403 
 132   0.0000       0.389503        10.5989 
 133   0.0000       0.396492        10.7891 
 134   0.0000       0.409684        11.1481 
 135   0.0000       0.419308        11.4099 
 136   0.0000       0.424487        11.5509 
 137   0.0000       0.433436        11.7944 
 138   0.0000       0.439873        11.9695 
 139   0.0000       0.454622        12.3709 
 140   0.0000       0.456290        12.4163 
 141   0.0000       0.459472        12.5029 
 142   0.0000       0.466837        12.7033 
 143   0.0000       0.469710        12.7815 
 144   0.0000       0.470243        12.7960 
 145   0.0000       0.474508        12.9120 
 146   0.0000       0.475548        12.9403 
 147   0.0000       0.485592        13.2136 
 148   0.0000       0.498161        13.5556 
 149   0.0000       0.504288        13.7224 
 150   0.0000       0.506157        13.7732 
 151   0.0000       0.510866        13.9014 
 152   0.0000       0.521049        14.1785 
 153   0.0000       0.523849        14.2547 
 154   0.0000       0.531622        14.4662 
 155   0.0000       0.532095        14.4790 
 156   0.0000       0.537870        14.6362 
 157   0.0000       0.544078        14.8051 
 158   0.0000       0.546864        14.8809 
 159   0.0000       0.549591        14.9551 
 160   0.0000       0.554392        15.0858 
 161   0.0000       0.556683        15.1481 
 162   0.0000       0.562533        15.3073 
 163   0.0000       0.565328        15.3833 
 164   0.0000       0.568321        15.4648 
 165   0.0000       0.571735        15.5577 
 166   0.0000       0.575769        15.6675 
 167   0.0000       0.579064        15.7571 
 168   0.0000       0.583973        15.8907 
 169   0.0000       0.591265        16.0891 
 170   0.0000       0.612413        16.6646 
 171   0.0000       0.613248        16.6873 
 172   0.0000       0.627087        17.0639 
 173   0.0000       0.627250        17.0683 
 174   0.0000       0.629968        17.1423 
 175   0.0000       0.639295        17.3961 
 176   0.0000       0.640770        17.4363 
 177   0.0000       0.648602        17.6494 
 178   0.0000       0.656755        17.8712 
 179   0.0000       0.665277        18.1031 
 180   0.0000       0.667029        18.1508 
 181   0.0000       0.671745        18.2791 
 182   0.0000       0.674423        18.3520 
 183   0.0000       0.679914        18.5014 
 184   0.0000       0.684328        18.6215 
 185   0.0000       0.697276        18.9738 
 186   0.0000       0.703532        19.1441 
 187   0.0000       0.705785        19.2054 
 188   0.0000       0.708737        19.2857 
 189   0.0000       0.718803        19.5596 
 190   0.0000       0.726935        19.7809 
 191   0.0000       0.737534        20.0693 
 192   0.0000       0.739317        20.1178 
 193   0.0000       0.747792        20.3485 
 194   0.0000       0.756889        20.5960 
 195   0.0000       0.759263        20.6606 
 196   0.0000       0.774840        21.0845 
 197   0.0000       0.779501        21.2113 
 198   0.0000       0.781582        21.2679 
 199   0.0000       0.787506        21.4291 
 200   0.0000       0.788340        21.4518 
 201   0.0000       0.805651        21.9229 
 202   0.0000       0.806762        21.9531 
 203   0.0000       0.813371        22.1329 
 204   0.0000       0.819345        22.2955 
 205   0.0000       0.829763        22.5790 
 206   0.0000       0.831350        22.6222 
 207   0.0000       0.844155        22.9706 
 208   0.0000       0.852594        23.2003 
 209   0.0000       0.854766        23.2594 
 210   0.0000       0.857649        23.3378 
 211   0.0000       0.879089        23.9212 
 212   0.0000       0.879772        23.9398 
 213   0.0000       0.885544        24.0969 
 214   0.0000       0.888302        24.1719 
 215   0.0000       0.903975        24.5984 
 216   0.0000       0.917557        24.9680 
 217   0.0000       0.923054        25.1176 
 218   0.0000       0.932186        25.3661 
 219   0.0000       0.938304        25.5325 
 220   0.0000       0.950315        25.8594 
 221   0.0000       0.960592        26.1390 
 222   0.0000       0.964253        26.2387 
 223   0.0000       0.986983        26.8572 
 224   0.0000       0.992465        27.0063 
 225   0.0000       1.009105        27.4591 
 226   0.0000       1.024089        27.8669 
 227   0.0000       1.032941        28.1078 
 228   0.0000       1.040158        28.3041 
 229   0.0000       1.042211        28.3600 
 230   0.0000       1.042491        28.3676 
 231   0.0000       1.059120        28.8201 
 232   0.0000       1.066188        29.0125 
 233   0.0000       1.069628        29.1061 
 234   0.0000       1.072117        29.1738 
 235   0.0000       1.096921        29.8487 
 236   0.0000       1.106391        30.1064 
 237   0.0000       1.122801        30.5530 
 238   0.0000       1.125356        30.6225 
 239   0.0000       1.154653        31.4197 
 240   0.0000       1.155240        31.4357 
 241   0.0000       1.207058        32.8457 
 242   0.0000       1.213370        33.0175 
 243   0.0000       1.217343        33.1256 
 244   0.0000       1.248852        33.9830 
 245   0.0000       1.251792        34.0630 
 246   0.0000       1.261449        34.3258 
 247   0.0000       1.271085        34.5880 
 248   0.0000       1.290529        35.1171 
 249   0.0000       1.300988        35.4017 
 250   0.0000       1.301381        35.4124 
 251   0.0000       1.306650        35.5557 
 252   0.0000       1.313914        35.7534 
 253   0.0000       1.335264        36.3344 
 254   0.0000       1.335747        36.3475 
 255   0.0000       1.338369        36.4189 
 256   0.0000       1.358889        36.9773 
 257   0.0000       1.373232        37.3675 
 258   0.0000       1.417825        38.5810 
 259   0.0000       1.445550        39.3354 
 260   0.0000       1.459694        39.7203 
 261   0.0000       1.470371        40.0108 
 262   0.0000       1.545368        42.0516 
 263   0.0000       1.548965        42.1495 
 264   0.0000       1.561784        42.4983 
 265   0.0000       1.609479        43.7961 
 266   0.0000       1.655118        45.0381 
 267   0.0000       1.680840        45.7380 
 268   0.0000       1.691545        46.0293 
 269   0.0000       1.694832        46.1187 
 270   0.0000       1.697543        46.1925 
 271   0.0000       1.710620        46.5483 
 272   0.0000       1.715985        46.6943 
 273   0.0000       1.724324        46.9212 
 274   0.0000       1.727825        47.0165 
 275   0.0000       1.730453        47.0880 
 276   0.0000       1.743910        47.4542 
 277   0.0000       1.751338        47.6563 
 278   0.0000       1.755328        47.7649 
 279   0.0000       1.773001        48.2458 
 280   0.0000       1.786631        48.6167 
 281   0.0000       1.788991        48.6809 
 282   0.0000       1.800185        48.9855 
 283   0.0000       1.806229        49.1500 
 284   0.0000       1.811935        49.3053 
 285   0.0000       1.815549        49.4036 
 286   0.0000       1.820715        49.5442 
 287   0.0000       1.834380        49.9160 
 288   0.0000       1.851178        50.3731 
 289   0.0000       1.859317        50.5946 
 290   0.0000       1.868159        50.8352 
 291   0.0000       1.883516        51.2531 
 292   0.0000       1.890841        51.4524 
 293   0.0000       1.896156        51.5970 
 294   0.0000       1.935379        52.6643 
 295   0.0000       1.940595        52.8063 
 296   0.0000       1.941109        52.8203 
 297   0.0000       1.978934        53.8495 
 298   0.0000       1.981015        53.9061 
 299   0.0000       2.000006        54.4229 
 300   0.0000       2.027266        55.1647 
 301   0.0000       2.039532        55.4985 
 302   0.0000       2.060152        56.0596 
 303   0.0000       2.069653        56.3181 
 304   0.0000       2.084653        56.7263 
 305   0.0000       2.106571        57.3227 
 306   0.0000       2.111241        57.4498 
 307   0.0000       2.156824        58.6902 
 308   0.0000       2.186199        59.4895 
 309   0.0000       2.205417        60.0124 
 310   0.0000       2.228331        60.6360 
 311   0.0000       2.236057        60.8462 
 312   0.0000       2.259160        61.4749 
 313   0.0000       2.288525        62.2739 
 314   0.0000       2.327754        63.3414 
 315   0.0000       2.342961        63.7552 
 316   0.0000       2.344091        63.7860 
 317   0.0000       2.352167        64.0057 
 318   0.0000       2.359810        64.2137 
 319   0.0000       2.366825        64.4046 
 320   0.0000       2.396319        65.2072 
 321   0.0000       2.419372        65.8345 
 322   0.0000       2.420764        65.8723 
 323   0.0000       2.448758        66.6341 
 324   0.0000       2.451666        66.7132 
 325   0.0000       2.467079        67.1326 
 326   0.0000       2.470655        67.2299 
 327   0.0000       2.597811        70.6900 
 328   0.0000       2.646760        72.0220 
 329   0.0000       2.651205        72.1430 
 330   0.0000       2.671535        72.6962 
 331   0.0000       2.678112        72.8751 
 332   0.0000       2.688051        73.1456 
 333   0.0000       2.693192        73.2855 
 334   0.0000       2.699008        73.4437 
 335   0.0000       2.706260        73.6411 
 336   0.0000       2.732250        74.3483 
 337   0.0000       2.737206        74.4832 
 338   0.0000       2.748151        74.7810 
 339   0.0000       2.780657        75.6655 
 340   0.0000       2.792966        76.0005 
 341   0.0000       2.797829        76.1328 
 342   0.0000       2.811870        76.5149 
 343   0.0000       2.817080        76.6567 
 344   0.0000       2.839531        77.2676 
 345   0.0000       2.841707        77.3268 
 346   0.0000       2.854418        77.6727 
 347   0.0000       2.860526        77.8389 
 348   0.0000       2.863701        77.9253 
 349   0.0000       2.873534        78.1928 
 350   0.0000       2.888762        78.6072 
 351   0.0000       2.915433        79.3330 
 352   0.0000       2.930054        79.7308 
 353   0.0000       2.940570        80.0170 
 354   0.0000       2.967915        80.7611 
 355   0.0000       3.010493        81.9197 
 356   0.0000       3.015216        82.0482 
 357   0.0000       3.022742        82.2530 
 358   0.0000       3.032544        82.5197 
 359   0.0000       3.037441        82.6530 
 360   0.0000       3.048809        82.9623 
 361   0.0000       3.048875        82.9641 
 362   0.0000       3.049704        82.9867 
 363   0.0000       3.067133        83.4609 
 364   0.0000       3.071574        83.5818 
 365   0.0000       3.092420        84.1490 
 366   0.0000       3.108069        84.5748 
 367   0.0000       3.109951        84.6261 
 368   0.0000       3.145176        85.5846 
 369   0.0000       3.179385        86.5155 
 370   0.0000       3.190604        86.8208 
 371   0.0000       3.194134        86.9168 
 372   0.0000       3.218109        87.5692 
 373   0.0000       3.218921        87.5913 
 374   0.0000       3.223311        87.7107 
 375   0.0000       3.230873        87.9165 
 376   0.0000       3.236928        88.0813 
 377   0.0000       3.257340        88.6367 
 378   0.0000       3.266098        88.8751 
 379   0.0000       3.276067        89.1463 
 380   0.0000       3.285708        89.4087 
 381   0.0000       3.288762        89.4918 
 382   0.0000       3.307789        90.0095 
 383   0.0000       3.329096        90.5893 
 384   0.0000       3.345307        91.0304 
 385   0.0000       3.362756        91.5053 
 386   0.0000       3.368969        91.6743 
 387   0.0000       3.398413        92.4755 
 388   0.0000       3.419239        93.0422 
 389   0.0000       3.423479        93.1576 
 390   0.0000       3.435665        93.4892 
 391   0.0000       3.437937        93.5510 
 392   0.0000       3.440546        93.6220 
 393   0.0000       3.472394        94.4886 
 394   0.0000       3.481718        94.7424 
 395   0.0000       3.484555        94.8196 
 396   0.0000       3.485460        94.8442 
 397   0.0000       3.486378        94.8692 
 398   0.0000       3.524402        95.9039 
 399   0.0000       3.540099        96.3310 
 400   0.0000       3.546336        96.5007 
 401   0.0000       3.586813        97.6021 
 402   0.0000       3.608392        98.1893 
 403   0.0000       3.618472        98.4636 
 404   0.0000       3.641539        99.0913 
 405   0.0000       3.642487        99.1171 
 406   0.0000       3.654308        99.4388 
 407   0.0000       3.673767        99.9683 
 408   0.0000       3.682892       100.2166 
 409   0.0000       3.693870       100.5153 
 410   0.0000       3.703568       100.7792 
 411   0.0000       3.747756       101.9816 
 412   0.0000       3.764114       102.4267 
 413   0.0000       3.777597       102.7936 
 414   0.0000       3.824478       104.0693 
 415   0.0000       3.836676       104.4013 
 416   0.0000       3.899497       106.1107 
 417   0.0000       3.905037       106.2615 
 418   0.0000       3.914657       106.5232 
 419   0.0000       3.922897       106.7474 
 420   0.0000       3.950406       107.4960 
 421   0.0000       3.956924       107.6734 
 422   0.0000       3.960477       107.7700 
 423   0.0000       3.968434       107.9866 
 424   0.0000       3.979842       108.2970 
 425   0.0000       4.005891       109.0058 
 426   0.0000       4.067846       110.6917 
 427   0.0000       4.159820       113.1945 
 428   0.0000       4.170711       113.4908 
 429   0.0000       4.207750       114.4987 
 430   0.0000       4.403887       119.8359 
 431   0.0000       4.437275       120.7444 
 432   0.0000       4.456851       121.2771 
 433   0.0000       4.480298       121.9151 
 434   0.0000       4.516054       122.8881 
 435   0.0000       4.544975       123.6751 
 436   0.0000       4.673659       127.1767 
 437   0.0000       4.700934       127.9189 
 438   0.0000       4.732754       128.7848 
 439   0.0000       4.843926       131.8099 
 440   0.0000       4.853344       132.0662 
 441   0.0000       4.862433       132.3135 
 442   0.0000       4.950215       134.7022 
 443   0.0000       4.964785       135.0987 
 444   0.0000       5.030016       136.8737 
 445   0.0000       5.101824       138.8277 
 446   0.0000       5.103700       138.8787 
 447   0.0000       5.106899       138.9658 
 448   0.0000       5.108409       139.0069 
 449   0.0000       5.109238       139.0294 
 450   0.0000       5.109543       139.0377 
 451   0.0000       5.109809       139.0450 
 452   0.0000       5.111296       139.0854 
 453   0.0000       5.111419       139.0888 
 454   0.0000       5.114823       139.1814 
 455   0.0000       5.238295       142.5412 
 456   0.0000       5.273862       143.5091 
 457   0.0000       5.420520       147.4999 
 458   0.0000       5.506311       149.8343 
 459   0.0000       5.507766       149.8739 
 460   0.0000       5.523647       150.3061 
 461   0.0000       5.529107       150.4546 
 462   0.0000       5.531534       150.5207 
 463   0.0000       5.534286       150.5956 
 464   0.0000       5.534878       150.6117 
 465   0.0000       5.538105       150.6995 
 466   0.0000       5.604060       152.4942 
 467   0.0000       5.636551       153.3783 
 468   0.0000       5.656588       153.9236 
 469   0.0000       5.791180       157.5860 
 470   0.0000       6.148336       167.3047 
 471   0.0000       6.155502       167.4997 
 472   0.0000       6.173349       167.9854 
 473   0.0000       6.181943       168.2192 
 474   0.0000       6.291108       171.1898 
 475   0.0000       6.320784       171.9973 
 476   0.0000       6.325667       172.1302 
 477   0.0000       6.332973       172.3290 
 478   0.0000       6.337351       172.4481 
 479   0.0000       6.373453       173.4305 
 480   0.0000       6.395318       174.0255 
 481   0.0000       6.398091       174.1009 
 482   0.0000       6.401416       174.1914 
 483   0.0000       6.402036       174.2082 
 484   0.0000       6.414951       174.5597 
 485   0.0000       6.419919       174.6949 
 486   0.0000       6.419972       174.6963 
 487   0.0000       6.428941       174.9404 
 488   0.0000       6.438651       175.2046 
 489   0.0000       6.453126       175.5985 
 490   0.0000       6.461328       175.8217 
 491   0.0000       6.473405       176.1503 
 492   0.0000       6.506705       177.0564 
 493   0.0000       6.515448       177.2944 
 494   0.0000       6.626558       180.3178 
 495   0.0000       6.637333       180.6110 
 496   0.0000       6.643811       180.7873 
 497   0.0000       6.655770       181.1127 
 498   0.0000       6.663144       181.3134 
 499   0.0000       6.674783       181.6301 
 500   0.0000       6.837692       186.0631 
 501   0.0000       6.860515       186.6841 
 502   0.0000       6.865387       186.8167 
 503   0.0000       6.870257       186.9492 
 504   0.0000       6.893014       187.5685 
 505   0.0000       6.901974       187.8123 
 506   0.0000       6.904005       187.8675 
 507   0.0000       6.906861       187.9452 
 508   0.0000       6.907606       187.9655 
 509   0.0000       6.919386       188.2861 
 510   0.0000       6.922998       188.3844 
 511   0.0000       7.098250       193.1532 
 512   0.0000       7.170981       195.1323 
 513   0.0000       7.187934       195.5936 
 514   0.0000       7.194603       195.7751 
 515   0.0000       7.217339       196.3938 
 516   0.0000       7.219476       196.4519 
 517   0.0000       7.223758       196.5684 
 518   0.0000       7.230711       196.7576 
 519   0.0000       7.238243       196.9626 
 520   0.0000       7.244712       197.1386 
 521   0.0000       7.415417       201.7837 
 522   0.0000       7.427495       202.1124 
 523   0.0000       7.433137       202.2659 
 524   0.0000       7.506157       204.2529 
 525   0.0000       7.626583       207.5299 
 526   0.0000       7.847522       213.5419 
 527   0.0000       7.969794       216.8691 
 528   0.0000       8.261636       224.8105 
 529   0.0000       8.271805       225.0872 
 530   0.0000       8.404819       228.7068 
 531   0.0000       8.698654       236.7024 
 532   0.0000       8.792125       239.2459 
 533   0.0000       8.834409       240.3965 
 534   0.0000      23.418535       637.2507 
 535   0.0000      23.447186       638.0304 
 536   0.0000      23.486515       639.1006 
 537   0.0000      23.678259       644.3182 
 538   0.0000      23.791618       647.4028 
 539   0.0000      23.848349       648.9466 
 540   0.0000      44.235260      1203.7026 
 541   0.0000      44.324692      1206.1362 
 542   0.0000      44.324990      1206.1443 
 543   0.0000      44.353131      1206.9101 
 544   0.0000      44.387485      1207.8449 
 545   0.0000      44.431230      1209.0352 

                    ********************************
                    * MULLIKEN POPULATION ANALYSIS *
                    ********************************

-----------------------
MULLIKEN ATOMIC CHARGES
-----------------------
   0 Mn:   -0.287595
   1 O :   -0.263392
   2 C :    0.447953
   3 C :    0.483952
   4 O :   -0.328804
   5 C :    0.404541
   6 O :   -0.298519
   7 C :    0.255537
   8 O :   -0.298180
   9 C :    0.254411
  10 O :   -0.298384
  11 C :    0.370948
  12 O :   -0.491217
  13 H :    0.048748
Sum of atomic charges:    0.0000000

--------------------------------
MULLIKEN REDUCED ORBITAL CHARGES
--------------------------------
  0 Mns       :     6.605620  s :     6.605620
      pz      :     4.301845  p :    12.694464
      px      :     4.255692
      py      :     4.136927
      dz2     :     1.338495  d :     5.976569
      dxz     :     0.845085
      dyz     :     1.406112
      dx2y2   :     0.994810
      dxy     :     1.392067
      f0      :     0.000828  f :     0.010809
      f+1     :     0.002489
      f-1     :     0.001212
      f+2     :     0.002804
      f-2     :     0.000480
      f+3     :     0.000970
      f-3     :     0.002025
      g0      :     0.000019  g :     0.000133
      g+1     :     0.000013
      g-1     :     0.000007
      g+2     :     0.000030
      g-2     :     0.000005
      g+3     :     0.000019
      g-3     :     0.000009
      g+4     :     0.000021
      g-4     :     0.000010
  1 O s       :     3.974221  s :     3.974221
      pz      :     1.402523  p :     4.242751
      px      :     1.374507
      py      :     1.465722
      dz2     :     0.012361  d :     0.044628
      dxz     :     0.010045
      dyz     :     0.006454
      dx2y2   :     0.006950
      dxy     :     0.008819
      f0      :     0.000227  f :     0.001791
      f+1     :     0.000509
      f-1     :     0.000057
      f+2     :     0.000210
      f-2     :     0.000442
      f+3     :     0.000132
      f-3     :     0.000215
  2 C s       :     3.419562  s :     3.419562
      pz      :     0.675232  p :     1.976504
      px      :     0.684256
      py      :     0.617015
      dz2     :     0.049127  d :     0.138335
      dxz     :    -0.010744
      dyz     :     0.031085
      dx2y2   :     0.028587
      dxy     :     0.040279
      f0      :     0.002172  f :     0.017646
      f+1     :     0.004997
      f-1     :     0.000565
      f+2     :     0.002984
      f-2     :     0.003750
      f+3     :     0.001399
      f-3     :     0.001779
  3 C s       :     3.351234  s :     3.351234
      pz      :     0.692967  p :     2.012141
      px      :     0.685287
      py      :     0.633887
      dz2     :     0.052142  d :     0.135348
      dxz     :    -0.008299
      dyz     :     0.040671
      dx2y2   :     0.015326
      dxy     :     0.035508
      f0      :     0.002988  f :     0.017326
      f+1     :     0.004348
      f-1     :     0.001098
      f+2     :     0.002920
      f-2     :     0.003655
      f+3     :     0.001049
      f-3     :     0.001268
  4 O s       :     4.017575  s :     4.017575
      pz      :     1.387223  p :     4.269254
      px      :     1.399710
      py      :     1.482321
      dz2     :     0.011847  d :     0.040231
      dxz     :     0.008618
      dyz     :     0.007617
      dx2y2   :     0.005443
      dxy     :     0.006706
      f0      :     0.000339  f :     0.001744
      f+1     :     0.000385
      f-1     :     0.000119
      f+2     :     0.000231
      f-2     :     0.000428
      f+3     :     0.000099
      f-3     :     0.000142
  5 C s       :     3.436640  s :     3.436640
      pz      :     0.680470  p :     2.008674
      px      :     0.703813
      py      :     0.624391
      dz2     :     0.049151  d :     0.132494
      dxz     :    -0.005815
      dyz     :     0.036730
      dx2y2   :     0.016415
      dxy     :     0.036013
      f0      :     0.002901  f :     0.017651
      f+1     :     0.004494
      f-1     :     0.000968
      f+2     :     0.003026
      f-2     :     0.003756
      f+3     :     0.001132
      f-3     :     0.001375
  6 O s       :     3.993982  s :     3.993982
      pz      :     1.386478  p :     4.259377
      px      :     1.398265
      py      :     1.474634
      dz2     :     0.012660  d :     0.043409
      dxz     :     0.009778
      dyz     :     0.007510
      dx2y2   :     0.006252
      dxy     :     0.007209
      f0      :     0.000319  f :     0.001751
      f+1     :     0.000404
      f-1     :     0.000107
      f+2     :     0.000227
      f-2     :     0.000436
      f+3     :     0.000104
      f-3     :     0.000154
  7 C s       :     3.497963  s :     3.497963
      pz      :     0.624200  p :     2.073820
      px      :     0.628220
      py      :     0.821400
      dz2     :     0.002748  d :     0.155089
      dxz     :     0.008257
      dyz     :     0.070905
      dx2y2   :     0.000109
      dxy     :     0.073069
      f0      :     0.002099  f :     0.017591
      f+1     :     0.000354
      f-1     :     0.002343
      f+2     :     0.003454
      f-2     :     0.000453
      f+3     :     0.005219
      f-3     :     0.003669
  8 O s       :     3.993817  s :     3.993817
      pz      :     1.478155  p :     4.261016
      px      :     1.477583
      py      :     1.305277
      dz2     :     0.003192  d :     0.041589
      dxz     :     0.000171
      dyz     :     0.014841
      dx2y2   :     0.008814
      dxy     :     0.014571
      f0      :     0.000238  f :     0.001758
      f+1     :     0.000040
      f-1     :     0.000176
      f+2     :     0.000397
      f-2     :     0.000039
      f+3     :     0.000593
      f-3     :     0.000275
  9 C s       :     3.498890  s :     3.498890
      pz      :     0.624946  p :     2.073982
      px      :     0.627951
      py      :     0.821085
      dz2     :     0.003236  d :     0.155126
      dxz     :     0.008325
      dyz     :     0.070417
      dx2y2   :    -0.000029
      dxy     :     0.073178
      f0      :     0.002071  f :     0.017591
      f+1     :     0.000344
      f-1     :     0.002397
      f+2     :     0.003457
      f-2     :     0.000469
      f+3     :     0.005217
      f-3     :     0.003635
 10 O s       :     3.993894  s :     3.993894
      pz      :     1.477663  p :     4.261155
      px      :     1.477941
      py      :     1.305550
      dz2     :     0.003253  d :     0.041578
      dxz     :     0.000187
      dyz     :     0.014803
      dx2y2   :     0.008777
      dxy     :     0.014557
      f0      :     0.000233  f :     0.001758
      f+1     :     0.000039
      f-1     :     0.000185
      f+2     :     0.000395
      f-2     :     0.000041
      f+3     :     0.000594
      f-3     :     0.000270
 11 C s       :     3.173227  s :     3.173227
      pz      :     0.922058  p :     2.271239
      px      :     0.718721
      py      :     0.630459
      dz2     :     0.009003  d :     0.171043
      dxz     :     0.111529
      dyz     :     0.004381
      dx2y2   :     0.008924
      dxy     :     0.037206
      f0      :     0.002747  f :     0.013543
      f+1     :     0.002181
      f-1     :     0.000279
      f+2     :     0.002833
      f-2     :     0.000285
      f+3     :     0.001882
      f-3     :     0.003336
 12 O s       :     4.048794  s :     4.048794
      pz      :     1.763454  p :     4.402894
      px      :     1.292867
      py      :     1.346573
      dz2     :     0.003660  d :     0.037734
      dxz     :     0.011504
      dyz     :     0.000616
      dx2y2   :     0.005576
      dxy     :     0.016378
      f0      :     0.000250  f :     0.001794
      f+1     :     0.000322
      f-1     :     0.000068
      f+2     :     0.000332
      f-2     :     0.000042
      f+3     :     0.000236
      f-3     :     0.000545
 13 H s       :     0.895006  s :     0.895006
      pz      :     0.050907  p :     0.054392
      px      :     0.002052
      py      :     0.001433
      dz2     :     0.000444  d :     0.001855
      dxz     :     0.000774
      dyz     :     0.000319
      dx2y2   :     0.000204
      dxy     :     0.000113


                     *******************************
                     * LOEWDIN POPULATION ANALYSIS *
                     *******************************

----------------------
LOEWDIN ATOMIC CHARGES
----------------------
   0 Mn:   -0.386322
   1 O :    0.199456
   2 C :   -0.067892
   3 C :   -0.078495
   4 O :    0.160868
   5 C :   -0.090367
   6 O :    0.181686
   7 C :   -0.082407
   8 O :    0.177201
   9 C :   -0.082530
  10 O :    0.177112
  11 C :   -0.129377
  12 O :    0.033218
  13 H :   -0.012151

-------------------------------
LOEWDIN REDUCED ORBITAL CHARGES
-------------------------------
  0 Mns       :     5.980100  s :     5.980100
      pz      :     4.322822  p :    12.978035
      px      :     4.325218
      py      :     4.329995
      dz2     :     1.356084  d :     6.381747
      dxz     :     1.094108
      dyz     :     1.375404
      dx2y2   :     1.172996
      dxy     :     1.383155
      f0      :     0.002604  f :     0.045957
      f+1     :     0.010833
      f-1     :     0.005604
      f+2     :     0.012774
      f-2     :     0.001193
      f+3     :     0.003628
      f-3     :     0.009321
      g0      :     0.000067  g :     0.000482
      g+1     :     0.000028
      g-1     :     0.000014
      g+2     :     0.000158
      g-2     :     0.000010
      g+3     :     0.000078
      g-3     :     0.000019
      g+4     :     0.000086
      g-4     :     0.000023
  1 O s       :     3.378589  s :     3.378589
      pz      :     1.438934  p :     4.234145
      px      :     1.474498
      py      :     1.320714
      dz2     :     0.029046  d :     0.181340
      dxz     :     0.080736
      dyz     :     0.014931
      dx2y2   :     0.035745
      dxy     :     0.020881
      f0      :     0.000698  f :     0.006470
      f+1     :     0.001840
      f-1     :     0.000120
      f+2     :     0.001843
      f-2     :     0.000919
      f+3     :     0.000595
      f-3     :     0.000456
  2 C s       :     2.880460  s :     2.880460
      pz      :     0.798236  p :     2.264645
      px      :     0.861777
      py      :     0.604633
      dz2     :     0.193955  d :     0.834669
      dxz     :     0.221548
      dyz     :     0.124115
      dx2y2   :     0.147778
      dxy     :     0.147273
      f0      :     0.010590  f :     0.088118
      f+1     :     0.024722
      f-1     :     0.002652
      f+2     :     0.016774
      f-2     :     0.017391
      f+3     :     0.007326
      f-3     :     0.008662
  3 C s       :     2.891471  s :     2.891471
      pz      :     0.842278  p :     2.279418
      px      :     0.815798
      py      :     0.621343
      dz2     :     0.223541  d :     0.821116
      dxz     :     0.207300
      dyz     :     0.142071
      dx2y2   :     0.122077
      dxy     :     0.126127
      f0      :     0.013892  f :     0.086489
      f+1     :     0.023185
      f-1     :     0.005061
      f+2     :     0.016213
      f-2     :     0.017170
      f+3     :     0.005072
      f-3     :     0.005896
  4 O s       :     3.388412  s :     3.388412
      pz      :     1.468497  p :     4.258931
      px      :     1.452493
      py      :     1.337941
      dz2     :     0.038492  d :     0.185455
      dxz     :     0.079888
      dyz     :     0.021234
      dx2y2   :     0.027158
      dxy     :     0.018684
      f0      :     0.000774  f :     0.006334
      f+1     :     0.002057
      f-1     :     0.000262
      f+2     :     0.001606
      f-2     :     0.000946
      f+3     :     0.000378
      f-3     :     0.000312
  5 C s       :     2.883222  s :     2.883222
      pz      :     0.837547  p :     2.276188
      px      :     0.830531
      py      :     0.608109
      dz2     :     0.225904  d :     0.843479
      dxz     :     0.217833
      dyz     :     0.134757
      dx2y2   :     0.125571
      dxy     :     0.139414
      f0      :     0.013690  f :     0.087478
      f+1     :     0.023282
      f-1     :     0.004579
      f+2     :     0.016483
      f-2     :     0.017414
      f+3     :     0.005583
      f-3     :     0.006447
  6 O s       :     3.382881  s :     3.382881
      pz      :     1.461699  p :     4.246131
      px      :     1.455627
      py      :     1.328805
      dz2     :     0.037135  d :     0.182906
      dxz     :     0.080735
      dyz     :     0.019039
      dx2y2   :     0.028058
      dxy     :     0.017938
      f0      :     0.000781  f :     0.006397
      f+1     :     0.002057
      f-1     :     0.000228
      f+2     :     0.001664
      f-2     :     0.000923
      f+3     :     0.000418
      f-3     :     0.000326
  7 C s       :     2.878846  s :     2.878846
      pz      :     0.624911  p :     2.280148
      px      :     0.622534
      py      :     1.032703
      dz2     :     0.079152  d :     0.835854
      dxz     :     0.037819
      dyz     :     0.258210
      dx2y2   :     0.203309
      dxy     :     0.257365
      f0      :     0.009890  f :     0.087558
      f+1     :     0.001734
      f-1     :     0.012687
      f+2     :     0.016445
      f-2     :     0.002143
      f+3     :     0.024717
      f-3     :     0.019942
  8 O s       :     3.382496  s :     3.382496
      pz      :     1.336318  p :     4.248565
      px      :     1.336073
      py      :     1.576174
      dz2     :     0.025986  d :     0.185321
      dxz     :     0.001139
      dyz     :     0.040932
      dx2y2   :     0.076678
      dxy     :     0.040587
      f0      :     0.000591  f :     0.006416
      f+1     :     0.000098
      f-1     :     0.001218
      f+2     :     0.000973
      f-2     :     0.000094
      f+3     :     0.001470
      f-3     :     0.001974
  9 C s       :     2.878853  s :     2.878853
      pz      :     0.626002  p :     2.280199
      px      :     0.622035
      py      :     1.032162
      dz2     :     0.079918  d :     0.835923
      dxz     :     0.038006
      dyz     :     0.258081
      dx2y2   :     0.202735
      dxy     :     0.257183
      f0      :     0.009779  f :     0.087555
      f+1     :     0.001682
      f-1     :     0.012907
      f+2     :     0.016504
      f-2     :     0.002225
      f+3     :     0.024668
      f-3     :     0.019790
 10 O s       :     3.382519  s :     3.382519
      pz      :     1.336924  p :     4.248619
      px      :     1.335824
      py      :     1.575871
      dz2     :     0.025889  d :     0.185333
      dxz     :     0.001189
      dyz     :     0.041375
      dx2y2   :     0.076587
      dxy     :     0.040293
      f0      :     0.000593  f :     0.006416
      f+1     :     0.000094
      f-1     :     0.001215
      f+2     :     0.000991
      f-2     :     0.000099
      f+3     :     0.001455
      f-3     :     0.001969
 11 C s       :     2.764483  s :     2.764483
      pz      :     0.901988  p :     2.413919
      px      :     0.927248
      py      :     0.584683
      dz2     :     0.171796  d :     0.864093
      dxz     :     0.311170
      dyz     :     0.046571
      dx2y2   :     0.183928
      dxy     :     0.150628
      f0      :     0.016653  f :     0.086883
      f+1     :     0.014092
      f-1     :     0.002160
      f+2     :     0.019456
      f-2     :     0.001834
      f+3     :     0.014575
      f-3     :     0.018112
 12 O s       :     3.377191  s :     3.377191
      pz      :     1.570250  p :     4.327602
      px      :     1.530132
      py      :     1.227220
      dz2     :     0.033699  d :     0.255780
      dxz     :     0.114752
      dyz     :     0.001425
      dx2y2   :     0.074507
      dxy     :     0.031397
      f0      :     0.000806  f :     0.006209
      f+1     :     0.001339
      f-1     :     0.000078
      f+2     :     0.001468
      f-2     :     0.000053
      f+3     :     0.001513
      f-3     :     0.000952
 13 H s       :     0.720537  s :     0.720537
      pz      :     0.149677  p :     0.265463
      px      :     0.072531
      py      :     0.043255
      dz2     :     0.011443  d :     0.026151
      dxz     :     0.008278
      dyz     :     0.004325
      dx2y2   :     0.001229
      dxy     :     0.000876


                      *****************************
                      * MAYER POPULATION ANALYSIS *
                      *****************************

  NA   - Mulliken gross atomic population
  ZA   - Total nuclear charge
  QA   - Mulliken gross atomic charge
  VA   - Mayer's total valence
  BVA  - Mayer's bonded valence
  FA   - Mayer's free valence

  ATOM       NA         ZA         QA         VA         BVA        FA
  0 Mn    25.2876    25.0000    -0.2876     6.9404     6.9404     0.0000
  1 O      8.2634     8.0000    -0.2634     2.1649     2.1649    -0.0000
  2 C      5.5520     6.0000     0.4480     3.2366     3.2366    -0.0000
  3 C      5.5160     6.0000     0.4840     3.2856     3.2856    -0.0000
  4 O      8.3288     8.0000    -0.3288     2.1086     2.1086     0.0000
  5 C      5.5955     6.0000     0.4045     3.2616     3.2616     0.0000
  6 O      8.2985     8.0000    -0.2985     2.1426     2.1426    -0.0000
  7 C      5.7445     6.0000     0.2555     3.4116     3.4116     0.0000
  8 O      8.2982     8.0000    -0.2982     2.1594     2.1594     0.0000
  9 C      5.7456     6.0000     0.2544     3.4094     3.4094     0.0000
 10 O      8.2984     8.0000    -0.2984     2.1593     2.1593    -0.0000
 11 C      5.6291     6.0000     0.3709     3.6530     3.6530     0.0000
 12 O      8.4912     8.0000    -0.4912     1.8538     1.8538    -0.0000
 13 H      0.9513     1.0000     0.0487     1.1295     1.1295     0.0000

  Mayer bond orders larger than 0.100000
B(  0-Mn,  1-O ) :   0.1229 B(  0-Mn,  2-C ) :   1.0142 B(  0-Mn,  3-C ) :   1.1686 
B(  0-Mn,  5-C ) :   1.0238 B(  0-Mn,  7-C ) :   1.0976 B(  0-Mn,  9-C ) :   1.0974 
B(  0-Mn, 11-C ) :   0.7371 B(  0-Mn, 12-O ) :   0.2762 B(  1-O ,  2-C ) :   2.0330 
B(  3-C ,  4-O ) :   2.0059 B(  5-C ,  6-O ) :   2.0057 B(  7-C ,  8-O ) :   2.0313 
B(  9-C , 10-O ) :   2.0311 B( 11-C , 12-O ) :   1.6268 B( 11-C , 13-H ) :   1.0566 


-------
TIMINGS
-------

Total SCF time: 0 days 0 hours 2 min 39 sec 

Total time                  ....     159.547 sec
Sum of individual times     ....     158.945 sec  ( 99.6%)

Fock matrix formation       ....     156.014 sec  ( 97.8%)
  XC integration            ....       5.907 sec  (  3.8% of F)
    Basis function eval.    ....       0.580 sec  (  9.8% of XC)
    Density eval.           ....       1.587 sec  ( 26.9% of XC)
    XC-Functional eval.     ....       0.122 sec  (  2.1% of XC)
    XC-Potential eval.      ....       2.449 sec  ( 41.5% of XC)
Diagonalization             ....       1.176 sec  (  0.7%)
Density matrix formation    ....       0.080 sec  (  0.1%)
Population analysis         ....       0.057 sec  (  0.0%)
Initial guess               ....       0.361 sec  (  0.2%)
Orbital Transformation      ....       0.000 sec  (  0.0%)
Orbital Orthonormalization  ....       0.000 sec  (  0.0%)
DIIS solution               ....       0.782 sec  (  0.5%)
Grid generation             ....       0.476 sec  (  0.3%)


-------------------------------------------------------------------------------
                          DFT DISPERSION CORRECTION                            
                                                                               
                              DFTD3 V3.1  Rev 1                                
                          USING Becke-Johnson damping                          
-------------------------------------------------------------------------------
The TPSSH functional is recognized
Active option DFTDOPT                   ...         4   

molecular C6(AA) [au] = 4309.863424 


            DFT-D V3
 parameters
 s6 scaling factor         :     1.0000 
 a1 scaling factor         :     0.4529 
 s8 scaling factor         :     2.2382 
 a2 scaling factor         :     4.6550 
 ad hoc parameters k1-k3   :    16.0000     1.3333    -4.0000 

 Edisp/kcal,au: -14.184177904694  -0.022603923889 
 E6   /kcal   :  -6.055765511 
 E8   /kcal   :  -8.128412394 
 % E8         :  57.306193201 

-------------------------   ----------------
Dispersion correction           -0.022603924
-------------------------   ----------------


-------------------------   --------------------
FINAL SINGLE POINT ENERGY     -1832.019059356564
-------------------------   --------------------


                            ***************************************
                            *     ORCA property calculations      *
                            ***************************************

                                    ---------------------
                                    Active property flags
                                    ---------------------
   (+) Dipole Moment


------------------------------------------------------------------------------
                       ORCA ELECTRIC PROPERTIES CALCULATION
------------------------------------------------------------------------------

Dipole Moment Calculation                       ... on
Quadrupole Moment Calculation                   ... off
Polarizability Calculation                      ... off
GBWName                                         ... MOR26_pr05.gbw
Electron density file                           ... MOR26_pr05.scfp
The origin for moment calculation is the CENTER OF MASS  = ( 0.013844, -0.000056  0.023223)

-------------
DIPOLE MOMENT
-------------
                                X             Y             Z
Electronic contribution:      2.28222      -0.00696       2.57705
Nuclear contribution   :     -1.52284       0.00619      -2.55446
                        -----------------------------------------
Total Dipole Moment    :      0.75938      -0.00077       0.02259
                        -----------------------------------------
Magnitude (a.u.)       :      0.75972
Magnitude (Debye)      :      1.93104



--------------------
Rotational spectrum 
--------------------
 
Rotational constants in cm-1:     0.023969     0.022043     0.021367 
Rotational constants in MHz :   718.564967   660.846663   640.564054 

 Dipole components along the rotational axes: 
x,y,z [a.u.] :    -0.758490    -0.000800     0.043126 
x,y,z [Debye]:    -1.927929    -0.002033     0.109619 

 

Timings for individual modules:

Sum of individual times         ...      160.827 sec (=   2.680 min)
GTO integral calculation        ...        0.912 sec (=   0.015 min)   0.6 %
SCF iterations                  ...      159.915 sec (=   2.665 min)  99.4 %
                             ****ORCA TERMINATED NORMALLY****
TOTAL RUN TIME: 0 days 0 hours 2 minutes 41 seconds 450 msec
