
                                 *****************
                                 * O   R   C   A *
                                 *****************

           --- An Ab Initio, DFT and Semiempirical electronic structure package ---

                  #######################################################
                  #                        -***-                        #
                  #          Department of theory and spectroscopy      #
                  #               Directorship: Frank Neese             #
                  #        Max Planck Institute fuer Kohlenforschung    #
                  #                Kaiser Wilhelm Platz 1               #
                  #                 D-45470 Muelheim/Ruhr               #
                  #                      Germany                        #
                  #                                                     #
                  #                  All rights reserved                #
                  #                        -***-                        #
                  #######################################################


                         Program Version 4.2.0 -  RELEASE  -


 With contributions from (in alphabetic order):
   Daniel Aravena         : Magnetic Suceptibility
   Michael Atanasov       : Ab Initio Ligand Field Theory (pilot matlab implementation)
   Alexander A. Auer      : GIAO ZORA, VPT2
   Ute Becker             : Parallelization
   Giovanni Bistoni       : ED, misc. LED, open-shell LED, HFLED
   Martin Brehm           : Molecular dynamics
   Dmytro Bykov           : SCF Hessian
   Vijay G. Chilkuri      : MRCI spin determinant printing, contributions to CSF-ICE
   Dipayan Datta          : RHF DLPNO-CCSD density
   Achintya Kumar Dutta   : EOM-CC, STEOM-CC
   Dmitry Ganyushin       : Spin-Orbit,Spin-Spin,Magnetic field MRCI
   Miquel Garcia          : C-PCM Hessian, Gaussian charge scheme
   Yang Guo               : DLPNO-NEVPT2, CIM, IAO-localization
   Andreas Hansen         : Spin unrestricted coupled pair/coupled cluster methods
   Benjamin Helmich-Paris : CASSCF linear response (MC-RPA)
   Lee Huntington         : MR-EOM, pCC
   Robert Izsak           : Overlap fitted RIJCOSX, COSX-SCS-MP3, EOM
   Christian Kollmar      : KDIIS, OOCD, Brueckner-CCSD(T), CCSD density
   Simone Kossmann        : Meta GGA functionals, TD-DFT gradient, OOMP2, MP2 Hessian
   Martin Krupicka        : AUTO-CI
   Lucas Lang             : DCDCAS
   Dagmar Lenk            : GEPOL surface, SMD
   Dimitrios Liakos       : Extrapolation schemes; Compound Job, initial MDCI parallelization
   Dimitrios Manganas     : Further ROCIS development; embedding schemes
   Dimitrios Pantazis     : SARC Basis sets
   Taras Petrenko         : DFT Hessian,TD-DFT gradient, ASA, ECA, R-Raman, ABS, FL, XAS/XES, NRVS
   Peter Pinski           : DLPNO-MP2, DLPNO-MP2 Gradient
   Christoph Reimann      : Effective Core Potentials
   Marius Retegan         : Local ZFS, SOC
   Christoph Riplinger    : Optimizer, TS searches, QM/MM, DLPNO-CCSD(T), (RO)-DLPNO pert. Triples
   Tobias Risthaus        : Range-separated hybrids, TD-DFT gradient, RPA, STAB
   Michael Roemelt        : Original ROCIS implementation
   Masaaki Saitow         : Open-shell DLPNO-CCSD energy and density
   Barbara Sandhoefer     : DKH picture change effects
   Avijit Sen             : IP-ROCIS
   Kantharuban Sivalingam : CASSCF convergence, NEVPT2, FIC-MRCI
   Bernardo de Souza      : ESD, SOC TD-DFT
   Georgi Stoychev        : AutoAux, RI-MP2 NMR
   Willem Van den Heuvel  : Paramagnetic NMR
   Boris Wezisla          : Elementary symmetry handling
   Frank Wennmohs         : Technical directorship


 We gratefully acknowledge several colleagues who have allowed us to
 interface, adapt or use parts of their codes:
   Stefan Grimme, W. Hujo, H. Kruse,             : VdW corrections, initial TS optimization,
                  C. Bannwarth                     DFT functionals, gCP, sTDA/sTD-DF
   Ed Valeev, F. Pavosevic, A. Kumar             : LibInt (2-el integral package), F12 methods
   Garnet Chan, S. Sharma, J. Yang, R. Olivares  : DMRG
   Ulf Ekstrom                                   : XCFun DFT Library
   Mihaly Kallay                                 : mrcc  (arbitrary order and MRCC methods)
   Andreas Klamt, Michael Diedenhofen            : otool_cosmo (COSMO solvation model)
   Jiri Pittner, Ondrej Demel                    : Mk-CCSD
   Frank Weinhold                                : gennbo (NPA and NBO analysis)
   Christopher J. Cramer and Donald G. Truhlar   : smd solvation model
   Lars Goerigk                                  : TD-DFT with DH, B97 family of functionals
   V. Asgeirsson, H. Jonsson                     : NEB implementation
   FAccTs GmbH                                   : IRC, NEB, NEB-TS, Multilevel, MM, QM/MM, CI optimization
   S Lehtola, MJT Oliveira, MAL Marques          : LibXC Library


 Your calculation uses the libint2 library for the computation of 2-el integrals
 For citations please refer to: http://libint.valeyev.net

 Your ORCA version has been built with support for libXC version: 4.2.3
 For citations please refer to: https://tddft.org/programs/libxc/

 This ORCA versions uses:
   CBLAS   interface :  Fast vector & matrix operations
   LAPACKE interface :  Fast linear algebra routines
   SCALAPACK package :  Parallel linear algebra routines


Your calculation utilizes the atom-pairwise dispersion correction
with the Becke-Johnson damping scheme (D3BJ)
Cite in your paper:
S.Grimme, S.Ehrlich, L.Goerigk, J Comput Chem, (2011), 32, 1456–1465 
S.Grimme, J.Antony, S.Ehrlich and H.Krieg, J.Chem.Phys., 132, (2010), 154104 
   

----- Orbital basis set information -----
Your calculation utilizes the basis: def2-TZVPPD
   F. Weigend and R. Ahlrichs, Phys. Chem. Chem. Phys. 7, 3297 (2005).
   D. Rappoport and F. Furche, J. Chem. Phys. 133 134105 (2010).

----- AuxJK basis set information -----
Your calculation utilizes the auxiliary basis: def2/JK
   H-Ba, Hf-Rn: F. Weigend, J. Comput. Chem. 29, 167 (2008).

================================================================================
                                        WARNINGS
                       Please study these warnings very carefully!
================================================================================


INFO   : the flag for use of LIBINT has been found!

================================================================================
                                       INPUT FILE
================================================================================
NAME = MOR24_pme3.in
|  1> #
|  2> # MOR24_pme3 TPSSh-D3BJ/Def2-TZVPPD
|  3> #
|  4> ! tpssh d3bj def2-tzvppd def2/jk grid4 nofinalgrid
|  5> 
|  6> *xyz 0 1
|  7> P        0.000014   -0.000022   -0.608033 
|  8> C        1.496142   -0.644859    0.281510 
|  9> H        1.381991   -0.595756    1.371521 
| 10> H        2.374450   -0.059896   -0.010082 
| 11> H        1.674284   -1.684941   -0.010215 
| 12> C       -0.189596    1.618079    0.281483 
| 13> H       -0.175035    1.494773    1.371519 
| 14> H       -1.135286    2.086341   -0.010098 
| 15> H        0.622176    2.292253   -0.010285 
| 16> C       -1.306577   -0.973225    0.281488 
| 17> H       -1.206743   -0.899098    1.371498 
| 18> H       -1.239562   -2.026308   -0.010273 
| 19> H       -2.296301   -0.607013   -0.009976 
| 20> *
| 21> 
| 22> %maxcore 5000
| 23> 
| 24> %pal
| 25> nprocs = 24
| 26> end
| 27> 
| 28> 
| 29>                          ****END OF INPUT****
================================================================================

                       ****************************
                       * Single Point Calculation *
                       ****************************

---------------------------------
CARTESIAN COORDINATES (ANGSTROEM)
---------------------------------
  P      0.000014   -0.000022   -0.608033
  C      1.496142   -0.644859    0.281510
  H      1.381991   -0.595756    1.371521
  H      2.374450   -0.059896   -0.010082
  H      1.674284   -1.684941   -0.010215
  C     -0.189596    1.618079    0.281483
  H     -0.175035    1.494773    1.371519
  H     -1.135286    2.086341   -0.010098
  H      0.622176    2.292253   -0.010285
  C     -1.306577   -0.973225    0.281488
  H     -1.206743   -0.899098    1.371498
  H     -1.239562   -2.026308   -0.010273
  H     -2.296301   -0.607013   -0.009976

----------------------------
CARTESIAN COORDINATES (A.U.)
----------------------------
  NO LB      ZA    FRAG     MASS         X           Y           Z
   0 P    15.0000    0    30.974    0.000026   -0.000042   -1.149016
   1 C     6.0000    0    12.011    2.827299   -1.218607    0.531977
   2 H     1.0000    0     1.008    2.611585   -1.125816    2.591799
   3 H     1.0000    0     1.008    4.487060   -0.113187   -0.019052
   4 H     1.0000    0     1.008    3.163938   -3.184077   -0.019304
   5 C     6.0000    0    12.011   -0.358285    3.057726    0.531926
   6 H     1.0000    0     1.008   -0.330768    2.824712    2.591795
   7 H     1.0000    0     1.008   -2.145380    3.942613   -0.019082
   8 H     1.0000    0     1.008    1.175742    4.331730   -0.019436
   9 C     6.0000    0    12.011   -2.469073   -1.839129    0.531935
  10 H     1.0000    0     1.008   -2.280414   -1.699049    2.591756
  11 H     1.0000    0     1.008   -2.342433   -3.829167   -0.019413
  12 H     1.0000    0     1.008   -4.339380   -1.147088   -0.018852

--------------------------------
INTERNAL COORDINATES (ANGSTROEM)
--------------------------------
 P      0   0   0     0.000000000000     0.00000000     0.00000000
 C      1   0   0     1.856205941646     0.00000000     0.00000000
 H      2   1   0     1.097071344777   112.13110714     0.00000000
 H      2   1   3     1.094820783826   109.47323922   239.00231603
 H      2   1   3     1.094809853131   109.48040574   121.00380486
 C      1   2   3     1.856190052919    98.94678480    50.31151194
 H      6   1   2     1.097084715805   112.13583001   309.70020222
 H      6   1   2     1.094814302202   109.47860882   188.69787616
 H      6   1   2     1.094811823139   109.47230593    70.69848452
 C      1   2   3     1.856219741822    98.94955960   309.70038817
 H     10   1   2     1.097079504769   112.12590837    50.29339066
 H     10   1   2     1.094805597462   109.48243156   289.29142906
 H     10   1   2     1.094813266460   109.47414643   171.28736402

---------------------------
INTERNAL COORDINATES (A.U.)
---------------------------
 P      0   0   0     0.000000000000     0.00000000     0.00000000
 C      1   0   0     3.507720877868     0.00000000     0.00000000
 H      2   1   0     2.073164391001   112.13110714     0.00000000
 H      2   1   3     2.068911447156   109.47323922   239.00231603
 H      2   1   3     2.068890791136   109.48040574   121.00380486
 C      1   2   3     3.507690852526    98.94678480    50.31151194
 H      6   1   2     2.073189658582   112.13583001   309.70020222
 H      6   1   2     2.068899198661   109.47860882   188.69787616
 H      6   1   2     2.068894513911   109.47230593    70.69848452
 C      1   2   3     3.507746956422    98.94955960   309.70038817
 H     10   1   2     2.073179811152   112.12590837    50.29339066
 H     10   1   2     2.068882749088   109.48243156   289.29142906
 H     10   1   2     2.068897241392   109.47414643   171.28736402

---------------------
BASIS SET INFORMATION
---------------------
There are 3 groups of distinct atoms

 Group   1 Type P   : 15s9p4d1f contracted to 6s5p4d1f pattern {732111/51111/1111/1}
 Group   2 Type C   : 12s6p3d1f contracted to 6s3p3d1f pattern {621111/411/111/1}
 Group   3 Type H   : 5s3p1d contracted to 3s3p1d pattern {311/111/1}

Atom   0P    basis set group =>   1
Atom   1C    basis set group =>   2
Atom   2H    basis set group =>   3
Atom   3H    basis set group =>   3
Atom   4H    basis set group =>   3
Atom   5C    basis set group =>   2
Atom   6H    basis set group =>   3
Atom   7H    basis set group =>   3
Atom   8H    basis set group =>   3
Atom   9C    basis set group =>   2
Atom  10H    basis set group =>   3
Atom  11H    basis set group =>   3
Atom  12H    basis set group =>   3
----------------------------------
AUXILIARY/JK BASIS SET INFORMATION
----------------------------------
There are 3 groups of distinct atoms

 Group   1 Type P   : 16s12p10d4f1g contracted to 13s11p9d4f1g pattern {4111111111111/21111111111/211111111/1111/1}
 Group   2 Type C   : 14s10p6d2f1g contracted to 10s8p5d1f1g pattern {5111111111/31111111/21111/2/1}
 Group   3 Type H   : 4s2p2d contracted to 2s2p2d pattern {31/11/11}

Atom   0P    basis set group =>   1
Atom   1C    basis set group =>   2
Atom   2H    basis set group =>   3
Atom   3H    basis set group =>   3
Atom   4H    basis set group =>   3
Atom   5C    basis set group =>   2
Atom   6H    basis set group =>   3
Atom   7H    basis set group =>   3
Atom   8H    basis set group =>   3
Atom   9C    basis set group =>   2
Atom  10H    basis set group =>   3
Atom  11H    basis set group =>   3
Atom  12H    basis set group =>   3


           ************************************************************
           *        Program running with 24 parallel MPI-processes    *
           *              working on a common directory               *
           ************************************************************
------------------------------------------------------------------------------
                           ORCA GTO INTEGRAL CALCULATION
------------------------------------------------------------------------------

                         BASIS SET STATISTICS AND STARTUP INFO

 # of primitive gaussian shells          ...  176
 # of primitive gaussian functions       ...  396
 # of contracted shells                  ...  118
 # of contracted basis functions         ...  312
 Highest angular momentum                ...    3
 Maximum contraction depth               ...    7
 Integral package used                   ... LIBINT
 Integral threshhold            Thresh   ...  1.000e-10
 Primitive cut-off              TCut     ...  1.000e-11


------------------------------ INTEGRAL EVALUATION ----------------------------


 * One electron integrals 
 Pre-screening matrix                    ... done
 Shell pair data                         ... done (   0.002 sec)



           ************************************************************
           *        Program running with 24 parallel MPI-processes    *
           *              working on a common directory               *
           ************************************************************
-------------------------------------------------------------------------------
                                 ORCA SCF
-------------------------------------------------------------------------------

------------
SCF SETTINGS
------------
Hamiltonian:
 Density Functional     Method          .... DFT(GTOs)
 Exchange Functional    Exchange        .... TPSS
 Correlation Functional Correlation     .... TPSS
 LDA part of GGA corr.  LDAOpt          .... PW91-LDA
 Gradients option       PostSCFGGA      .... off
 Hybrid DFT is turned on
   Fraction HF Exchange ScalHFX         ....  0.100000
   Scaling of DF-GGA-X  ScalDFX         ....  0.900000
   Scaling of DF-GGA-C  ScalDFC         ....  1.000000
   Scaling of DF-LDA-C  ScalLDAC        ....  1.000000
   Perturbative correction              ....  0.000000
   Density functional embedding theory  .... OFF
   NL short-range parameter             ....  5.200000


General Settings:
 Integral files         IntName         .... MOR24_pme3
 Hartree-Fock type      HFTyp           .... RHF
 Total Charge           Charge          ....    0
 Multiplicity           Mult            ....    1
 Number of Electrons    NEL             ....   42
 Basis Dimension        Dim             ....  312
 Nuclear Repulsion      ENuc            ....    176.7484710169 Eh

Convergence Acceleration:
 DIIS                   CNVDIIS         .... on
   Start iteration      DIISMaxIt       ....    12
   Startup error        DIISStart       ....  0.200000
   # of expansion vecs  DIISMaxEq       ....     5
   Bias factor          DIISBfac        ....   1.050
   Max. coefficient     DIISMaxC        ....  10.000
 Newton-Raphson         CNVNR           .... off
 SOSCF                  CNVSOSCF        .... on
   Start iteration      SOSCFMaxIt      ....   150
   Startup grad/error   SOSCFStart      ....  0.003300
 Level Shifting         CNVShift        .... on
   Level shift para.    LevelShift      ....    0.2500
   Turn off err/grad.   ShiftErr        ....    0.0010
 Zerner damping         CNVZerner       .... off
 Static damping         CNVDamp         .... on
   Fraction old density DampFac         ....    0.7000
   Max. Damping (<1)    DampMax         ....    0.9800
   Min. Damping (>=0)   DampMin         ....    0.0000
   Turn off err/grad.   DampErr         ....    0.1000
 Fernandez-Rico         CNVRico         .... off

SCF Procedure:
 Maximum # iterations   MaxIter         ....   125
 SCF integral mode      SCFMode         .... Direct
   Integral package                     .... LIBINT
 Reset frequency        DirectResetFreq ....    20
 Integral Threshold     Thresh          ....  1.000e-10 Eh
 Primitive CutOff       TCut            ....  1.000e-11 Eh

Convergence Tolerance:
 Convergence Check Mode ConvCheckMode   .... Total+1el-Energy
 Convergence forced     ConvForced      .... 0
 Energy Change          TolE            ....  1.000e-06 Eh
 1-El. energy change                    ....  1.000e-03 Eh
 Orbital Gradient       TolG            ....  5.000e-05
 Orbital Rotation angle TolX            ....  5.000e-05
 DIIS Error             TolErr          ....  1.000e-06


Diagonalization of the overlap matrix:
Smallest eigenvalue                        ... 2.657e-05
Time for diagonalization                   ...    0.016 sec
Threshold for overlap eigenvalues          ... 1.000e-08
Number of eigenvalues below threshold      ... 0
Time for construction of square roots      ...    0.011 sec
Total time needed                          ...    0.029 sec

-------------------
DFT GRID GENERATION
-------------------

General Integration Accuracy     IntAcc      ...  4.670
Radial Grid Type                 RadialGrid  ... Gauss-Chebyshev
Angular Grid (max. acc.)         AngularGrid ... Lebedev-302
Angular grid pruning method      GridPruning ... 3 (G Style)
Weight generation scheme         WeightScheme... Becke
Basis function cutoff            BFCut       ...    1.0000e-10
Integration weight cutoff        WCut        ...    1.0000e-14
Grids for H and He will be reduced by one unit

# of grid points (after initial pruning)     ...  56028 (   0.0 sec)
# of grid points (after weights+screening)   ...  52082 (   0.0 sec)
nearest neighbour list constructed           ...    0.0 sec
Grid point re-assignment to atoms done       ...    0.0 sec
Grid point division into batches done        ...    0.2 sec
Reduced shell lists constructed in    0.2 sec

Total number of grid points                  ...    52082
Total number of batches                      ...      819
Average number of points per batch           ...       63
Average number of grid points per atom       ...     4006
Average number of shells per batch           ...    78.58 (66.60%)
Average number of basis functions per batch  ...   209.31 (67.09%)
Average number of large shells per batch     ...    64.28 (81.80%)
Average number of large basis fcns per batch ...   169.89 (81.17%)
Maximum spatial batch extension              ...  14.82, 16.68,  9.68 au
Average spatial batch extension              ...   0.14,  0.14,  0.12 au

Time for grid setup =    0.235 sec

------------------------------
INITIAL GUESS: MODEL POTENTIAL
------------------------------
Loading Hartree-Fock densities                     ... done
Calculating cut-offs                               ... done
Setting up the integral package                    ... done
Initializing the effective Hamiltonian             ... done
Starting the Coulomb interaction                   ... done (   0.0 sec)
Reading the grid                                   ... done
Mapping shells                                     ... done
Starting the XC term evaluation                    ... done (   0.1 sec)
  promolecular density results
     # of electrons  =     41.995566421
     EX              =    -40.490637064
     EC              =     -1.423849268
     EX+EC           =    -41.914486333
Transforming the Hamiltonian                       ... done (   0.0 sec)
Diagonalizing the Hamiltonian                      ... done (   0.0 sec)
Back transforming the eigenvectors                 ... done (   0.0 sec)
Now organizing SCF variables                       ... done
                      ------------------
                      INITIAL GUESS DONE (   0.4 sec)
                      ------------------
--------------
SCF ITERATIONS
--------------
ITER       Energy         Delta-E        Max-DP      RMS-DP      [F,P]     Damp
               ***  Starting incremental Fock matrix formation  ***
  0   -460.9914999709   0.000000000000 0.03940758  0.00079799  0.1964316 0.7000
  1   -461.0869267326  -0.095426761711 0.03824444  0.00068064  0.0972942 0.7000
                               ***Turning on DIIS***
  2   -461.1228646277  -0.035937895169 0.08673442  0.00155071  0.0315895 0.0000
  3   -461.1698031485  -0.046938520802 0.01690573  0.00036317  0.0590811 0.0000
  4   -461.1874401104  -0.017636961898 0.00580146  0.00012807  0.0122931 0.0000
                      *** Initiating the SOSCF procedure ***
                           *** Shutting down DIIS ***
                      *** Re-Reading the Fockian *** 
                      *** Removing any level shift *** 
ITER      Energy       Delta-E        Grad      Rot      Max-DP    RMS-DP
  5   -461.18836167  -0.0009215594  0.000947  0.000947  0.002206  0.000050
               *** Restarting incremental Fock matrix formation ***
  6   -461.18843153  -0.0000698601  0.000406  0.001240  0.001712  0.000054
  7   -461.18843347  -0.0000019361  0.000374  0.000271  0.000485  0.000010
  8   -461.18843853  -0.0000050592  0.000068  0.000147  0.000232  0.000007
  9   -461.18843858  -0.0000000500  0.000053  0.000051  0.000104  0.000002
                 **** Energy Check signals convergence ****
              ***Rediagonalizing the Fockian in SOSCF/NRSCF***

               *****************************************************
               *                     SUCCESS                       *
               *           SCF CONVERGED AFTER  10 CYCLES          *
               *****************************************************


----------------
TOTAL SCF ENERGY
----------------

Total Energy       :         -461.18843865 Eh          -12549.57542 eV

Components:
Nuclear Repulsion  :          176.74847102 Eh            4809.57041 eV
Electronic Energy  :         -637.93690967 Eh          -17359.14583 eV
One Electron Energy:         -982.70557234 Eh          -26740.77810 eV
Two Electron Energy:          344.76866267 Eh            9381.63226 eV

Virial components:
Potential Energy   :         -920.91119490 Eh          -25059.26760 eV
Kinetic Energy     :          459.72275625 Eh           12509.69218 eV
Virial Ratio       :            2.00318819


DFT components:
N(Alpha)           :       20.999991722179 electrons
N(Beta)            :       20.999991722179 electrons
N(Total)           :       41.999983444358 electrons
E(X)               :      -37.394191726717 Eh       
E(C)               :       -1.430246869658 Eh       
E(XC)              :      -38.824438596376 Eh       
DFET-embed. en.    :        0.000000000000 Eh       

---------------
SCF CONVERGENCE
---------------

  Last Energy change         ...   -7.3349e-08  Tolerance :   1.0000e-06
  Last MAX-Density change    ...    5.1121e-05  Tolerance :   1.0000e-05
  Last RMS-Density change    ...    1.0176e-06  Tolerance :   1.0000e-06
  Last Orbital Gradient      ...    4.7926e-06  Tolerance :   5.0000e-05
  Last Orbital Rotation      ...    9.6490e-06  Tolerance :   5.0000e-05

             **** THE GBW FILE WAS UPDATED (MOR24_pme3.gbw) ****
             **** DENSITY FILE WAS UPDATED (MOR24_pme3.scfp) ****
             **** ENERGY FILE WAS UPDATED (MOR24_pme3.en.tmp) ****
             **** THE GBW FILE WAS UPDATED (MOR24_pme3.gbw) ****
             **** DENSITY FILE WAS UPDATED (MOR24_pme3.scfp) ****
----------------
ORBITAL ENERGIES
----------------

  NO   OCC          E(Eh)            E(eV) 
   0   2.0000     -76.907624     -2092.7628 
   1   2.0000     -10.108135      -275.0563 
   2   2.0000     -10.108134      -275.0563 
   3   2.0000     -10.108132      -275.0563 
   4   2.0000      -6.462662      -175.8580 
   5   2.0000      -4.612289      -125.5068 
   6   2.0000      -4.612288      -125.5067 
   7   2.0000      -4.607144      -125.3667 
   8   2.0000      -0.737445       -20.0669 
   9   2.0000      -0.669738       -18.2245 
  10   2.0000      -0.669734       -18.2244 
  11   2.0000      -0.507785       -13.8175 
  12   2.0000      -0.420362       -11.4386 
  13   2.0000      -0.408240       -11.1088 
  14   2.0000      -0.408233       -11.1086 
  15   2.0000      -0.382447       -10.4069 
  16   2.0000      -0.382440       -10.4067 
  17   2.0000      -0.370194       -10.0735 
  18   2.0000      -0.309441        -8.4203 
  19   2.0000      -0.309434        -8.4201 
  20   2.0000      -0.214292        -5.8312 
  21   0.0000       0.006041         0.1644 
  22   0.0000       0.017346         0.4720 
  23   0.0000       0.017358         0.4723 
  24   0.0000       0.043991         1.1971 
  25   0.0000       0.061468         1.6726 
  26   0.0000       0.062055         1.6886 
  27   0.0000       0.062084         1.6894 
  28   0.0000       0.072261         1.9663 
  29   0.0000       0.072284         1.9670 
  30   0.0000       0.101955         2.7743 
  31   0.0000       0.101966         2.7746 
  32   0.0000       0.105421         2.8686 
  33   0.0000       0.116644         3.1740 
  34   0.0000       0.126800         3.4504 
  35   0.0000       0.126817         3.4509 
  36   0.0000       0.134259         3.6534 
  37   0.0000       0.134291         3.6542 
  38   0.0000       0.147038         4.0011 
  39   0.0000       0.181880         4.9492 
  40   0.0000       0.183902         5.0042 
  41   0.0000       0.183921         5.0047 
  42   0.0000       0.212258         5.7758 
  43   0.0000       0.212314         5.7774 
  44   0.0000       0.214500         5.8368 
  45   0.0000       0.215366         5.8604 
  46   0.0000       0.235705         6.4138 
  47   0.0000       0.235742         6.4149 
  48   0.0000       0.240797         6.5524 
  49   0.0000       0.246674         6.7123 
  50   0.0000       0.264975         7.2103 
  51   0.0000       0.264998         7.2110 
  52   0.0000       0.272639         7.4189 
  53   0.0000       0.272680         7.4200 
  54   0.0000       0.284678         7.7465 
  55   0.0000       0.284693         7.7469 
  56   0.0000       0.295970         8.0538 
  57   0.0000       0.296829         8.0771 
  58   0.0000       0.296884         8.0786 
  59   0.0000       0.304859         8.2956 
  60   0.0000       0.310610         8.4521 
  61   0.0000       0.343799         9.3552 
  62   0.0000       0.346619         9.4320 
  63   0.0000       0.346639         9.4325 
  64   0.0000       0.354609         9.6494 
  65   0.0000       0.372184        10.1276 
  66   0.0000       0.372235        10.1290 
  67   0.0000       0.373192        10.1551 
  68   0.0000       0.373210        10.1556 
  69   0.0000       0.400135        10.8882 
  70   0.0000       0.400849        10.9077 
  71   0.0000       0.400867        10.9082 
  72   0.0000       0.405719        11.0402 
  73   0.0000       0.405767        11.0415 
  74   0.0000       0.433328        11.7914 
  75   0.0000       0.436035        11.8651 
  76   0.0000       0.436152        11.8683 
  77   0.0000       0.438096        11.9212 
  78   0.0000       0.464887        12.6502 
  79   0.0000       0.464928        12.6513 
  80   0.0000       0.465059        12.6549 
  81   0.0000       0.469181        12.7671 
  82   0.0000       0.489068        13.3082 
  83   0.0000       0.518266        14.1027 
  84   0.0000       0.518346        14.1049 
  85   0.0000       0.536915        14.6102 
  86   0.0000       0.536935        14.6107 
  87   0.0000       0.547583        14.9005 
  88   0.0000       0.555253        15.1092 
  89   0.0000       0.581928        15.8351 
  90   0.0000       0.581967        15.8361 
  91   0.0000       0.590747        16.0750 
  92   0.0000       0.590775        16.0758 
  93   0.0000       0.604075        16.4377 
  94   0.0000       0.660783        17.9808 
  95   0.0000       0.660799        17.9813 
  96   0.0000       0.662415        18.0252 
  97   0.0000       0.666585        18.1387 
  98   0.0000       0.668926        18.2024 
  99   0.0000       0.669030        18.2052 
 100   0.0000       0.680583        18.5196 
 101   0.0000       0.681053        18.5324 
 102   0.0000       0.681118        18.5342 
 103   0.0000       0.723731        19.6937 
 104   0.0000       0.723820        19.6961 
 105   0.0000       0.727577        19.7984 
 106   0.0000       0.729908        19.8618 
 107   0.0000       0.743083        20.2203 
 108   0.0000       0.743121        20.2214 
 109   0.0000       0.789766        21.4906 
 110   0.0000       0.789792        21.4913 
 111   0.0000       0.821274        22.3480 
 112   0.0000       0.821356        22.3502 
 113   0.0000       0.881641        23.9907 
 114   0.0000       0.881681        23.9918 
 115   0.0000       0.905588        24.6423 
 116   0.0000       0.924670        25.1615 
 117   0.0000       0.937444        25.5091 
 118   0.0000       0.937474        25.5100 
 119   0.0000       0.973745        26.4970 
 120   0.0000       1.020628        27.7727 
 121   0.0000       1.049959        28.5708 
 122   0.0000       1.049984        28.5715 
 123   0.0000       1.072052        29.1720 
 124   0.0000       1.100335        29.9416 
 125   0.0000       1.100359        29.9423 
 126   0.0000       1.167910        31.7804 
 127   0.0000       1.178211        32.0607 
 128   0.0000       1.200423        32.6652 
 129   0.0000       1.200515        32.6677 
 130   0.0000       1.221437        33.2370 
 131   0.0000       1.221583        33.2410 
 132   0.0000       1.264309        34.4036 
 133   0.0000       1.273141        34.6439 
 134   0.0000       1.273202        34.6456 
 135   0.0000       1.291286        35.1377 
 136   0.0000       1.291321        35.1386 
 137   0.0000       1.309906        35.6444 
 138   0.0000       1.329384        36.1744 
 139   0.0000       1.369913        37.2772 
 140   0.0000       1.369935        37.2778 
 141   0.0000       1.384052        37.6620 
 142   0.0000       1.384083        37.6628 
 143   0.0000       1.386695        37.7339 
 144   0.0000       1.459627        39.7185 
 145   0.0000       1.459656        39.7193 
 146   0.0000       1.480541        40.2876 
 147   0.0000       1.528960        41.6051 
 148   0.0000       1.535273        41.7769 
 149   0.0000       1.535298        41.7776 
 150   0.0000       1.575411        42.8691 
 151   0.0000       1.589943        43.2645 
 152   0.0000       1.589995        43.2660 
 153   0.0000       1.628328        44.3091 
 154   0.0000       1.629652        44.3451 
 155   0.0000       1.629686        44.3460 
 156   0.0000       1.633146        44.4402 
 157   0.0000       1.655254        45.0418 
 158   0.0000       1.655310        45.0433 
 159   0.0000       1.704863        46.3917 
 160   0.0000       1.704915        46.3931 
 161   0.0000       1.768561        48.1250 
 162   0.0000       1.820712        49.5441 
 163   0.0000       1.835518        49.9470 
 164   0.0000       1.835571        49.9484 
 165   0.0000       1.843172        50.1553 
 166   0.0000       1.865332        50.7583 
 167   0.0000       1.865381        50.7596 
 168   0.0000       1.871103        50.9153 
 169   0.0000       1.929080        52.4929 
 170   0.0000       1.929095        52.4933 
 171   0.0000       2.007355        54.6229 
 172   0.0000       2.049314        55.7647 
 173   0.0000       2.049383        55.7665 
 174   0.0000       2.200315        59.8736 
 175   0.0000       2.200328        59.8740 
 176   0.0000       2.283559        62.1388 
 177   0.0000       2.283612        62.1402 
 178   0.0000       2.302173        62.6453 
 179   0.0000       2.363559        64.3157 
 180   0.0000       2.527234        68.7695 
 181   0.0000       2.541189        69.1493 
 182   0.0000       2.541242        69.1507 
 183   0.0000       2.751776        74.8796 
 184   0.0000       2.783794        75.7509 
 185   0.0000       2.783820        75.7516 
 186   0.0000       2.818423        76.6932 
 187   0.0000       2.866429        77.9995 
 188   0.0000       2.866481        78.0009 
 189   0.0000       2.905013        79.0494 
 190   0.0000       2.922504        79.5254 
 191   0.0000       2.922523        79.5259 
 192   0.0000       2.931263        79.7637 
 193   0.0000       2.971843        80.8680 
 194   0.0000       2.977688        81.0270 
 195   0.0000       2.977753        81.0288 
 196   0.0000       2.981143        81.1210 
 197   0.0000       3.031631        82.4949 
 198   0.0000       3.033023        82.5328 
 199   0.0000       3.033058        82.5337 
 200   0.0000       3.059159        83.2440 
 201   0.0000       3.059187        83.2447 
 202   0.0000       3.087500        84.0151 
 203   0.0000       3.087535        84.0161 
 204   0.0000       3.146411        85.6182 
 205   0.0000       3.168250        86.2125 
 206   0.0000       3.168287        86.2135 
 207   0.0000       3.203703        87.1772 
 208   0.0000       3.235850        88.0520 
 209   0.0000       3.252265        88.4986 
 210   0.0000       3.252332        88.5004 
 211   0.0000       3.267903        88.9242 
 212   0.0000       3.272585        89.0516 
 213   0.0000       3.272631        89.0528 
 214   0.0000       3.382483        92.0420 
 215   0.0000       3.382572        92.0445 
 216   0.0000       3.425706        93.2182 
 217   0.0000       3.453609        93.9775 
 218   0.0000       3.469239        94.4028 
 219   0.0000       3.534951        96.1909 
 220   0.0000       3.534954        96.1910 
 221   0.0000       3.572908        97.2238 
 222   0.0000       3.572980        97.2257 
 223   0.0000       3.579846        97.4126 
 224   0.0000       3.579860        97.4130 
 225   0.0000       3.599788        97.9552 
 226   0.0000       3.599831        97.9564 
 227   0.0000       3.622230        98.5659 
 228   0.0000       3.627348        98.7051 
 229   0.0000       3.673846        99.9704 
 230   0.0000       3.673897        99.9718 
 231   0.0000       3.729530       101.4857 
 232   0.0000       3.729595       101.4874 
 233   0.0000       3.788535       103.0913 
 234   0.0000       3.792875       103.2094 
 235   0.0000       3.822281       104.0096 
 236   0.0000       3.822287       104.0097 
 237   0.0000       3.914725       106.5251 
 238   0.0000       3.914760       106.5260 
 239   0.0000       3.943753       107.3150 
 240   0.0000       3.994425       108.6938 
 241   0.0000       3.994452       108.6946 
 242   0.0000       4.078423       110.9795 
 243   0.0000       4.078433       110.9798 
 244   0.0000       4.115985       112.0017 
 245   0.0000       4.117227       112.0354 
 246   0.0000       4.162742       113.2740 
 247   0.0000       4.162779       113.2750 
 248   0.0000       4.218118       114.7808 
 249   0.0000       4.219679       114.8233 
 250   0.0000       4.219684       114.8234 
 251   0.0000       4.244900       115.5096 
 252   0.0000       4.277771       116.4041 
 253   0.0000       4.285093       116.6033 
 254   0.0000       4.285151       116.6049 
 255   0.0000       4.369750       118.9069 
 256   0.0000       4.369791       118.9081 
 257   0.0000       4.381254       119.2200 
 258   0.0000       4.411308       120.0378 
 259   0.0000       4.446382       120.9922 
 260   0.0000       4.446444       120.9939 
 261   0.0000       4.475093       121.7735 
 262   0.0000       4.475162       121.7753 
 263   0.0000       4.548285       123.7651 
 264   0.0000       4.681884       127.4005 
 265   0.0000       4.699156       127.8705 
 266   0.0000       4.699191       127.8715 
 267   0.0000       4.726800       128.6228 
 268   0.0000       4.738416       128.9389 
 269   0.0000       4.738434       128.9393 
 270   0.0000       4.739858       128.9781 
 271   0.0000       4.809777       130.8807 
 272   0.0000       4.809781       130.8808 
 273   0.0000       5.169760       140.6763 
 274   0.0000       5.169807       140.6776 
 275   0.0000       5.209045       141.7453 
 276   0.0000       5.216003       141.9347 
 277   0.0000       5.228771       142.2821 
 278   0.0000       5.228811       142.2832 
 279   0.0000       5.249855       142.8558 
 280   0.0000       5.249887       142.8567 
 281   0.0000       5.262972       143.2128 
 282   0.0000       5.294640       144.0745 
 283   0.0000       5.333228       145.1245 
 284   0.0000       5.333235       145.1247 
 285   0.0000       5.346691       145.4909 
 286   0.0000       5.402306       147.0042 
 287   0.0000       5.402337       147.0051 
 288   0.0000       5.449426       148.2864 
 289   0.0000       5.455614       148.4548 
 290   0.0000       5.455628       148.4552 
 291   0.0000       5.605153       152.5240 
 292   0.0000       5.605223       152.5259 
 293   0.0000       5.650541       153.7590 
 294   0.0000       5.722423       155.7150 
 295   0.0000       5.728592       155.8829 
 296   0.0000       5.771123       157.0402 
 297   0.0000       5.771185       157.0419 
 298   0.0000       5.830740       158.6625 
 299   0.0000       5.830760       158.6630 
 300   0.0000       5.946771       161.8199 
 301   0.0000       5.946819       161.8212 
 302   0.0000       5.968012       162.3979 
 303   0.0000       6.388350       173.8358 
 304   0.0000       6.388412       173.8375 
 305   0.0000       7.747419       210.8180 
 306   0.0000       7.893955       214.8054 
 307   0.0000       7.894008       214.8069 
 308   0.0000      15.341109       417.4528 
 309   0.0000      23.661887       643.8727 
 310   0.0000      23.661981       643.8752 
 311   0.0000      23.764936       646.6768 

                    ********************************
                    * MULLIKEN POPULATION ANALYSIS *
                    ********************************

-----------------------
MULLIKEN ATOMIC CHARGES
-----------------------
   0 P :   -0.175299
   1 C :   -0.225279
   2 H :    0.118813
   3 H :    0.082553
   4 H :    0.082086
   5 C :   -0.223136
   6 H :    0.118084
   7 H :    0.082238
   8 H :    0.081679
   9 C :   -0.224414
  10 H :    0.118429
  11 H :    0.082012
  12 H :    0.082233
Sum of atomic charges:    0.0000000

--------------------------------
MULLIKEN REDUCED ORBITAL CHARGES
--------------------------------
  0 P s       :     5.923116  s :     5.923116
      pz      :     3.240189  p :     8.904557
      px      :     2.832173
      py      :     2.832195
      dz2     :     0.045498  d :     0.315598
      dxz     :     0.064291
      dyz     :     0.064285
      dx2y2   :     0.070713
      dxy     :     0.070809
      f0      :     0.003097  f :     0.032029
      f+1     :     0.003706
      f-1     :     0.003706
      f+2     :     0.006483
      f-2     :     0.006485
      f+3     :     0.005165
      f-3     :     0.003386
  1 C s       :     2.998770  s :     2.998770
      pz      :     1.049113  p :     3.125942
      px      :     1.007160
      py      :     1.069669
      dz2     :     0.045045  d :     0.098098
      dxz     :     0.006872
      dyz     :     0.010782
      dx2y2   :     0.018247
      dxy     :     0.017153
      f0      :     0.000651  f :     0.002469
      f+1     :     0.000355
      f-1     :     0.000140
      f+2     :     0.000226
      f-2     :     0.000234
      f+3     :     0.000306
      f-3     :     0.000557
  2 H s       :     0.823111  s :     0.823111
      pz      :     0.037882  p :     0.056416
      px      :     0.011364
      py      :     0.007170
      dz2     :     0.000272  d :     0.001660
      dxz     :     0.000720
      dyz     :     0.000613
      dx2y2   :     0.000028
      dxy     :     0.000026
  3 H s       :     0.851119  s :     0.851119
      pz      :     0.016194  p :     0.064653
      px      :     0.028303
      py      :     0.020156
      dz2     :     0.000220  d :     0.001675
      dxz     :     0.000390
      dyz     :     0.000169
      dx2y2   :     0.000630
      dxy     :     0.000267
  4 H s       :     0.851613  s :     0.851613
      pz      :     0.016179  p :     0.064629
      px      :     0.015430
      py      :     0.033019
      dz2     :     0.000220  d :     0.001672
      dxz     :     0.000046
      dyz     :     0.000512
      dx2y2   :     0.000247
      dxy     :     0.000647
  5 C s       :     2.998477  s :     2.998477
      pz      :     1.048699  p :     3.124208
      px      :     1.081446
      py      :     0.994063
      dz2     :     0.045189  d :     0.097982
      dxz     :     0.011545
      dyz     :     0.006014
      dx2y2   :     0.009037
      dxy     :     0.026197
      f0      :     0.000650  f :     0.002469
      f+1     :     0.000096
      f-1     :     0.000400
      f+2     :     0.000298
      f-2     :     0.000162
      f+3     :     0.000305
      f-3     :     0.000558
  6 H s       :     0.823612  s :     0.823612
      pz      :     0.037957  p :     0.056641
      px      :     0.006315
      py      :     0.012369
      dz2     :     0.000274  d :     0.001663
      dxz     :     0.000592
      dyz     :     0.000742
      dx2y2   :     0.000008
      dxy     :     0.000046
  7 H s       :     0.851482  s :     0.851482
      pz      :     0.016245  p :     0.064608
      px      :     0.029555
      py      :     0.018808
      dz2     :     0.000220  d :     0.001672
      dxz     :     0.000421
      dyz     :     0.000137
      dx2y2   :     0.000507
      dxy     :     0.000387
  8 H s       :     0.851994  s :     0.851994
      pz      :     0.016285  p :     0.064654
      px      :     0.025410
      py      :     0.022959
      dz2     :     0.000220  d :     0.001672
      dxz     :     0.000311
      dyz     :     0.000247
      dx2y2   :     0.000679
      dxy     :     0.000216
  9 C s       :     2.999019  s :     2.999019
      pz      :     1.048594  p :     3.124779
      px      :     1.025019
      py      :     1.051166
      dz2     :     0.045114  d :     0.098146
      dxz     :     0.008066
      dyz     :     0.009562
      dx2y2   :     0.025712
      dxy     :     0.009692
      f0      :     0.000650  f :     0.002469
      f+1     :     0.000292
      f-1     :     0.000203
      f+2     :     0.000166
      f-2     :     0.000294
      f+3     :     0.000306
      f-3     :     0.000558
 10 H s       :     0.823420  s :     0.823420
      pz      :     0.037894  p :     0.056489
      px      :     0.010172
      py      :     0.008422
      dz2     :     0.000274  d :     0.001662
      dxz     :     0.000689
      dyz     :     0.000645
      dx2y2   :     0.000045
      dxy     :     0.000010
 11 H s       :     0.851568  s :     0.851568
      pz      :     0.016291  p :     0.064745
      px      :     0.014792
      py      :     0.033662
      dz2     :     0.000220  d :     0.001674
      dxz     :     0.000027
      dyz     :     0.000531
      dx2y2   :     0.000207
      dxy     :     0.000689
 12 H s       :     0.851682  s :     0.851682
      pz      :     0.016138  p :     0.064414
      px      :     0.031527
      py      :     0.016750
      dz2     :     0.000219  d :     0.001671
      dxz     :     0.000480
      dyz     :     0.000078
      dx2y2   :     0.000415
      dxy     :     0.000479


                     *******************************
                     * LOEWDIN POPULATION ANALYSIS *
                     *******************************

----------------------
LOEWDIN ATOMIC CHARGES
----------------------
   0 P :    0.861081
   1 C :   -0.090209
   2 H :   -0.061056
   3 H :   -0.067879
   4 H :   -0.067878
   5 C :   -0.090208
   6 H :   -0.061053
   7 H :   -0.067877
   8 H :   -0.067889
   9 C :   -0.090195
  10 H :   -0.061063
  11 H :   -0.067893
  12 H :   -0.067880

-------------------------------
LOEWDIN REDUCED ORBITAL CHARGES
-------------------------------
  0 P s       :     4.815414  s :     4.815414
      pz      :     3.095505  p :     8.419858
      px      :     2.662173
      py      :     2.662180
      dz2     :     0.152783  d :     0.805023
      dxz     :     0.135509
      dyz     :     0.135507
      dx2y2   :     0.190611
      dxy     :     0.190614
      f0      :     0.007970  f :     0.098624
      f+1     :     0.011205
      f-1     :     0.011204
      f+2     :     0.019571
      f-2     :     0.019570
      f+3     :     0.015315
      f-3     :     0.013788
  1 C s       :     2.715772  s :     2.715772
      pz      :     0.955779  p :     2.846190
      px      :     0.945164
      py      :     0.945247
      dz2     :     0.145549  d :     0.506534
      dxz     :     0.111787
      dyz     :     0.045762
      dx2y2   :     0.103359
      dxy     :     0.100078
      f0      :     0.005158  f :     0.021712
      f+1     :     0.002430
      f-1     :     0.001675
      f+2     :     0.003108
      f-2     :     0.003186
      f+3     :     0.001836
      f-3     :     0.004319
  2 H s       :     0.716177  s :     0.716177
      pz      :     0.143835  p :     0.315109
      px      :     0.088400
      py      :     0.082875
      dz2     :     0.010774  d :     0.029770
      dxz     :     0.009497
      dyz     :     0.009176
      dx2y2   :     0.000167
      dxy     :     0.000158
  3 H s       :     0.724416  s :     0.724416
      pz      :     0.087615  p :     0.313703
      px      :     0.126375
      py      :     0.099712
      dz2     :     0.003863  d :     0.029760
      dxz     :     0.006219
      dyz     :     0.002936
      dx2y2   :     0.009398
      dxy     :     0.007343
  4 H s       :     0.724425  s :     0.724425
      pz      :     0.087620  p :     0.313693
      px      :     0.088686
      py      :     0.137387
      dz2     :     0.003864  d :     0.029761
      dxz     :     0.000795
      dyz     :     0.008360
      dx2y2   :     0.007308
      dxy     :     0.009433
  5 C s       :     2.715777  s :     2.715777
      pz      :     0.955764  p :     2.846162
      px      :     0.945244
      py      :     0.945154
      dz2     :     0.145558  d :     0.506556
      dxz     :     0.031993
      dyz     :     0.125556
      dx2y2   :     0.075759
      dxy     :     0.127691
      f0      :     0.005159  f :     0.021712
      f+1     :     0.001519
      f-1     :     0.002586
      f+2     :     0.003761
      f-2     :     0.002533
      f+3     :     0.001835
      f-3     :     0.004320
  6 H s       :     0.716192  s :     0.716192
      pz      :     0.143831  p :     0.315093
      px      :     0.081723
      py      :     0.089539
      dz2     :     0.010773  d :     0.029769
      dxz     :     0.009108
      dyz     :     0.009563
      dx2y2   :     0.000091
      dxy     :     0.000233
  7 H s       :     0.724422  s :     0.724422
      pz      :     0.087617  p :     0.313695
      px      :     0.126838
      py      :     0.099240
      dz2     :     0.003863  d :     0.029760
      dxz     :     0.006957
      dyz     :     0.002198
      dx2y2   :     0.008181
      dxy     :     0.008562
  8 H s       :     0.724426  s :     0.724426
      pz      :     0.087622  p :     0.313701
      px      :     0.114848
      py      :     0.111231
      dz2     :     0.003864  d :     0.029761
      dxz     :     0.005232
      dyz     :     0.003924
      dx2y2   :     0.009122
      dxy     :     0.007620
  9 C s       :     2.715776  s :     2.715776
      pz      :     0.955765  p :     2.846180
      px      :     0.945184
      py      :     0.945230
      dz2     :     0.145545  d :     0.506528
      dxz     :     0.092527
      dyz     :     0.065009
      dx2y2   :     0.126019
      dxy     :     0.077428
      f0      :     0.005158  f :     0.021712
      f+1     :     0.002211
      f-1     :     0.001895
      f+2     :     0.002572
      f-2     :     0.003721
      f+3     :     0.001834
      f-3     :     0.004321
 10 H s       :     0.716186  s :     0.716186
      pz      :     0.143834  p :     0.315107
      px      :     0.086792
      py      :     0.084480
      dz2     :     0.010774  d :     0.029770
      dxz     :     0.009403
      dyz     :     0.009269
      dx2y2   :     0.000229
      dxy     :     0.000096
 11 H s       :     0.724437  s :     0.724437
      pz      :     0.087622  p :     0.313696
      px      :     0.085904
      py      :     0.140170
      dz2     :     0.003864  d :     0.029760
      dxz     :     0.000556
      dyz     :     0.008599
      dx2y2   :     0.007533
      dxy     :     0.009208
 12 H s       :     0.724416  s :     0.724416
      pz      :     0.087614  p :     0.313703
      px      :     0.135578
      py      :     0.090511
      dz2     :     0.003862  d :     0.029761
      dxz     :     0.007706
      dyz     :     0.001449
      dx2y2   :     0.008684
      dxy     :     0.008059


                      *****************************
                      * MAYER POPULATION ANALYSIS *
                      *****************************

  NA   - Mulliken gross atomic population
  ZA   - Total nuclear charge
  QA   - Mulliken gross atomic charge
  VA   - Mayer's total valence
  BVA  - Mayer's bonded valence
  FA   - Mayer's free valence

  ATOM       NA         ZA         QA         VA         BVA        FA
  0 P     15.1753    15.0000    -0.1753     3.0168     3.0168     0.0000
  1 C      6.2253     6.0000    -0.2253     4.0091     4.0091    -0.0000
  2 H      0.8812     1.0000     0.1188     1.0932     1.0932    -0.0000
  3 H      0.9174     1.0000     0.0826     1.1011     1.1011    -0.0000
  4 H      0.9179     1.0000     0.0821     1.1012     1.1012    -0.0000
  5 C      6.2231     6.0000    -0.2231     4.0082     4.0082     0.0000
  6 H      0.8819     1.0000     0.1181     1.0942     1.0942     0.0000
  7 H      0.9178     1.0000     0.0822     1.1010     1.1010     0.0000
  8 H      0.9183     1.0000     0.0817     1.1014     1.1014     0.0000
  9 C      6.2244     6.0000    -0.2244     4.0091     4.0091     0.0000
 10 H      0.8816     1.0000     0.1184     1.0934     1.0934     0.0000
 11 H      0.9180     1.0000     0.0820     1.1013     1.1013     0.0000
 12 H      0.9178     1.0000     0.0822     1.1007     1.1007    -0.0000

  Mayer bond orders larger than 0.100000
B(  0-P ,  1-C ) :   0.8977 B(  0-P ,  5-C ) :   0.8976 B(  0-P ,  9-C ) :   0.8977 
B(  1-C ,  2-H ) :   0.9505 B(  1-C ,  3-H ) :   1.0024 B(  1-C ,  4-H ) :   1.0026 
B(  5-C ,  6-H ) :   0.9502 B(  5-C ,  7-H ) :   1.0027 B(  5-C ,  8-H ) :   1.0026 
B(  9-C , 10-H ) :   0.9507 B(  9-C , 11-H ) :   1.0027 B(  9-C , 12-H ) :   1.0022 


-------
TIMINGS
-------

Total SCF time: 0 days 0 hours 0 min 14 sec 

Total time                  ....      14.253 sec
Sum of individual times     ....      13.970 sec  ( 98.0%)

Fock matrix formation       ....      13.332 sec  ( 93.5%)
  XC integration            ....       1.368 sec  ( 10.3% of F)
    Basis function eval.    ....       0.139 sec  ( 10.1% of XC)
    Density eval.           ....       0.296 sec  ( 21.6% of XC)
    XC-Functional eval.     ....       0.047 sec  (  3.4% of XC)
    XC-Potential eval.      ....       0.637 sec  ( 46.5% of XC)
Diagonalization             ....       0.092 sec  (  0.6%)
Density matrix formation    ....       0.018 sec  (  0.1%)
Population analysis         ....       0.016 sec  (  0.1%)
Initial guess               ....       0.185 sec  (  1.3%)
Orbital Transformation      ....       0.000 sec  (  0.0%)
Orbital Orthonormalization  ....       0.000 sec  (  0.0%)
DIIS solution               ....       0.037 sec  (  0.3%)
SOSCF solution              ....       0.055 sec  (  0.4%)
Grid generation             ....       0.235 sec  (  1.6%)


-------------------------------------------------------------------------------
                          DFT DISPERSION CORRECTION                            
                                                                               
                              DFTD3 V3.1  Rev 1                                
                          USING Becke-Johnson damping                          
-------------------------------------------------------------------------------
The TPSSH functional is recognized
Active option DFTDOPT                   ...         4   

molecular C6(AA) [au] = 1663.039452 


            DFT-D V3
 parameters
 s6 scaling factor         :     1.0000 
 a1 scaling factor         :     0.4529 
 s8 scaling factor         :     2.2382 
 a2 scaling factor         :     4.6550 
 ad hoc parameters k1-k3   :    16.0000     1.3333    -4.0000 

 Edisp/kcal,au: -7.398032691431  -0.011789514275 
 E6   /kcal   :  -3.487176595 
 E8   /kcal   :  -3.910856097 
 % E8         :  52.863460593 

-------------------------   ----------------
Dispersion correction           -0.011789514
-------------------------   ----------------


-------------------------   --------------------
FINAL SINGLE POINT ENERGY      -461.200228162831
-------------------------   --------------------


                            ***************************************
                            *     ORCA property calculations      *
                            ***************************************

                                    ---------------------
                                    Active property flags
                                    ---------------------
   (+) Dipole Moment


------------------------------------------------------------------------------
                       ORCA ELECTRIC PROPERTIES CALCULATION
------------------------------------------------------------------------------

Dipole Moment Calculation                       ... on
Quadrupole Moment Calculation                   ... off
Polarizability Calculation                      ... off
GBWName                                         ... MOR24_pme3.gbw
Electron density file                           ... MOR24_pme3.scfp
The origin for moment calculation is the CENTER OF MASS  = ( 0.000001, -0.000010 -0.114362)

-------------
DIPOLE MOMENT
-------------
                                X             Y             Z
Electronic contribution:      0.00012      -0.00038      -4.31202
Nuclear contribution   :     -0.00004       0.00039       4.80319
                        -----------------------------------------
Total Dipole Moment    :      0.00008       0.00001       0.49117
                        -----------------------------------------
Magnitude (a.u.)       :      0.49117
Magnitude (Debye)      :      1.24844



--------------------
Rotational spectrum 
--------------------
 
Rotational constants in cm-1:     0.191522     0.191510     0.123399 
Rotational constants in MHz :  5741.693239  5741.320508  3699.411170 

 Dipole components along the rotational axes: 
x,y,z [a.u.] :     0.000078     0.000013     0.491165 
x,y,z [Debye]:     0.000199     0.000033     1.248442 

 

Timings for individual modules:

Sum of individual times         ...       15.322 sec (=   0.255 min)
GTO integral calculation        ...        0.682 sec (=   0.011 min)   4.4 %
SCF iterations                  ...       14.640 sec (=   0.244 min)  95.6 %
                             ****ORCA TERMINATED NORMALLY****
TOTAL RUN TIME: 0 days 0 hours 0 minutes 15 seconds 833 msec
