
                                 *****************
                                 * O   R   C   A *
                                 *****************

           --- An Ab Initio, DFT and Semiempirical electronic structure package ---

                  #######################################################
                  #                        -***-                        #
                  #          Department of theory and spectroscopy      #
                  #               Directorship: Frank Neese             #
                  #        Max Planck Institute fuer Kohlenforschung    #
                  #                Kaiser Wilhelm Platz 1               #
                  #                 D-45470 Muelheim/Ruhr               #
                  #                      Germany                        #
                  #                                                     #
                  #                  All rights reserved                #
                  #                        -***-                        #
                  #######################################################


                         Program Version 4.2.0 -  RELEASE  -


 With contributions from (in alphabetic order):
   Daniel Aravena         : Magnetic Suceptibility
   Michael Atanasov       : Ab Initio Ligand Field Theory (pilot matlab implementation)
   Alexander A. Auer      : GIAO ZORA, VPT2
   Ute Becker             : Parallelization
   Giovanni Bistoni       : ED, misc. LED, open-shell LED, HFLED
   Martin Brehm           : Molecular dynamics
   Dmytro Bykov           : SCF Hessian
   Vijay G. Chilkuri      : MRCI spin determinant printing, contributions to CSF-ICE
   Dipayan Datta          : RHF DLPNO-CCSD density
   Achintya Kumar Dutta   : EOM-CC, STEOM-CC
   Dmitry Ganyushin       : Spin-Orbit,Spin-Spin,Magnetic field MRCI
   Miquel Garcia          : C-PCM Hessian, Gaussian charge scheme
   Yang Guo               : DLPNO-NEVPT2, CIM, IAO-localization
   Andreas Hansen         : Spin unrestricted coupled pair/coupled cluster methods
   Benjamin Helmich-Paris : CASSCF linear response (MC-RPA)
   Lee Huntington         : MR-EOM, pCC
   Robert Izsak           : Overlap fitted RIJCOSX, COSX-SCS-MP3, EOM
   Christian Kollmar      : KDIIS, OOCD, Brueckner-CCSD(T), CCSD density
   Simone Kossmann        : Meta GGA functionals, TD-DFT gradient, OOMP2, MP2 Hessian
   Martin Krupicka        : AUTO-CI
   Lucas Lang             : DCDCAS
   Dagmar Lenk            : GEPOL surface, SMD
   Dimitrios Liakos       : Extrapolation schemes; Compound Job, initial MDCI parallelization
   Dimitrios Manganas     : Further ROCIS development; embedding schemes
   Dimitrios Pantazis     : SARC Basis sets
   Taras Petrenko         : DFT Hessian,TD-DFT gradient, ASA, ECA, R-Raman, ABS, FL, XAS/XES, NRVS
   Peter Pinski           : DLPNO-MP2, DLPNO-MP2 Gradient
   Christoph Reimann      : Effective Core Potentials
   Marius Retegan         : Local ZFS, SOC
   Christoph Riplinger    : Optimizer, TS searches, QM/MM, DLPNO-CCSD(T), (RO)-DLPNO pert. Triples
   Tobias Risthaus        : Range-separated hybrids, TD-DFT gradient, RPA, STAB
   Michael Roemelt        : Original ROCIS implementation
   Masaaki Saitow         : Open-shell DLPNO-CCSD energy and density
   Barbara Sandhoefer     : DKH picture change effects
   Avijit Sen             : IP-ROCIS
   Kantharuban Sivalingam : CASSCF convergence, NEVPT2, FIC-MRCI
   Bernardo de Souza      : ESD, SOC TD-DFT
   Georgi Stoychev        : AutoAux, RI-MP2 NMR
   Willem Van den Heuvel  : Paramagnetic NMR
   Boris Wezisla          : Elementary symmetry handling
   Frank Wennmohs         : Technical directorship


 We gratefully acknowledge several colleagues who have allowed us to
 interface, adapt or use parts of their codes:
   Stefan Grimme, W. Hujo, H. Kruse,             : VdW corrections, initial TS optimization,
                  C. Bannwarth                     DFT functionals, gCP, sTDA/sTD-DF
   Ed Valeev, F. Pavosevic, A. Kumar             : LibInt (2-el integral package), F12 methods
   Garnet Chan, S. Sharma, J. Yang, R. Olivares  : DMRG
   Ulf Ekstrom                                   : XCFun DFT Library
   Mihaly Kallay                                 : mrcc  (arbitrary order and MRCC methods)
   Andreas Klamt, Michael Diedenhofen            : otool_cosmo (COSMO solvation model)
   Jiri Pittner, Ondrej Demel                    : Mk-CCSD
   Frank Weinhold                                : gennbo (NPA and NBO analysis)
   Christopher J. Cramer and Donald G. Truhlar   : smd solvation model
   Lars Goerigk                                  : TD-DFT with DH, B97 family of functionals
   V. Asgeirsson, H. Jonsson                     : NEB implementation
   FAccTs GmbH                                   : IRC, NEB, NEB-TS, Multilevel, MM, QM/MM, CI optimization
   S Lehtola, MJT Oliveira, MAL Marques          : LibXC Library


 Your calculation uses the libint2 library for the computation of 2-el integrals
 For citations please refer to: http://libint.valeyev.net

 Your ORCA version has been built with support for libXC version: 4.2.3
 For citations please refer to: https://tddft.org/programs/libxc/

 This ORCA versions uses:
   CBLAS   interface :  Fast vector & matrix operations
   LAPACKE interface :  Fast linear algebra routines
   SCALAPACK package :  Parallel linear algebra routines


Your calculation utilizes the atom-pairwise dispersion correction
with the Becke-Johnson damping scheme (D3BJ)
Cite in your paper:
S.Grimme, S.Ehrlich, L.Goerigk, J Comput Chem, (2011), 32, 1456–1465 
S.Grimme, J.Antony, S.Ehrlich and H.Krieg, J.Chem.Phys., 132, (2010), 154104 
   

----- Orbital basis set information -----
Your calculation utilizes the basis: def2-TZVPPD
   F. Weigend and R. Ahlrichs, Phys. Chem. Chem. Phys. 7, 3297 (2005).
   D. Rappoport and F. Furche, J. Chem. Phys. 133 134105 (2010).

----- AuxJK basis set information -----
Your calculation utilizes the auxiliary basis: def2/JK
   H-Ba, Hf-Rn: F. Weigend, J. Comput. Chem. 29, 167 (2008).

cite the ECPs for Mo [Def2-ECP] as follows:
Ce-Yb(ecp-28): M. Dolg, H. Stoll, H.Preuss, J. Chem. Phys., 1989, 90, 1730-1734.
Y-Cd(ecp-28), Hf-Hg(ecp-46): D. Andrae,U. Haeussermann, M. Dolg, H. Stoll, H. Preuss, Theor. Chim. Acta, 1990, 77, 123-141.
In-Sb(ecp-28), Tl-Bi(ecp-46): B. Metz, H. Stoll, M. Dolg, J. Chem. Phys., 2000, 113, 2563-2569.
Te-Xe(ecp-28), Po-Rn(ecp-46): K. A. Peterson, D. Figgen, E. Goll, H. Stoll, M. Dolg, J. Chem. Phys., 2003, 119, 11113-11123.
Rb(ecp-28), Cs(ecp-46): T. Leininger, A. Nicklass, W. Kuechle, H. Stoll, M. Dolg, A. Bergner, Chem. Phys. Lett., 1996, 255, 274-280.
Sr(ecp-28), Ba(ecp-46): M. Kaupp, P. V. Schleyer, H. Stoll and H. Preuss, J. Chem. Phys., 1991, 94, 1360-1366.
La(ecp-46): M. Dolg, H. Stoll, A. Savin, H. Preuss, Theor. Chim. Acta, 1989, 75, 173-194.
Lu(ecp-28): X. Cao, M. Dolg, J. Chem. Phys., 2001, 115, 7348-7355.

ECP parameters for Mo [Def2-ECP] have been obtained from:
TURBOMOLE (7.0.2)

================================================================================
                                        WARNINGS
                       Please study these warnings very carefully!
================================================================================


INFO   : the flag for use of LIBINT has been found!

================================================================================
                                       INPUT FILE
================================================================================
NAME = MOR36_pr37.in
|  1> #
|  2> # MOR36_pr37 TPSSh-D3BJ/Def2-TZVPPD
|  3> #
|  4> ! tpssh d3bj def2-tzvppd def2/jk grid4 nofinalgrid
|  5> 
|  6> *xyz 0 1
|  7> Mo       0.000106   -0.000070   -0.471377 
|  8> C        0.514398   -1.514915   -1.646050 
|  9> C        1.055079    1.202350   -1.646249 
| 10> C       -1.568474    0.311983   -1.646660 
| 11> O       -2.484520    0.493946   -2.346732 
| 12> O        0.814970   -2.399453   -2.345765 
| 13> O        1.670957    1.904692   -2.346079 
| 14> N       -1.133555   -1.291008    0.811792 
| 15> N       -0.551576    1.627166    0.811584 
| 16> N        1.684684   -0.335905    0.812231 
| 17> C        2.623715   -0.523292    1.470917 
| 18> C       -0.858944    2.534303    1.469905 
| 19> C       -1.765652   -2.010491    1.470244 
| 20> C       -2.579903   -2.936733    2.238371 
| 21> H       -3.631237   -2.631169    2.207389 
| 22> H       -2.252645   -2.962558    3.282907 
| 23> H       -2.496617   -3.945451    1.819577 
| 24> C       -1.254401    3.702555    2.237857 
| 25> H       -0.464690    4.460832    2.206160 
| 26> H       -1.439592    3.432273    3.282594 
| 27> H       -2.170183    4.133961    1.819442 
| 28> C        3.832875   -0.764956    2.239344 
| 29> H        4.094105   -1.828181    2.208653 
| 30> H        3.691346   -0.468421    3.283785 
| 31> H        4.664793   -0.188419    1.820591 
| 32> *
| 33> 
| 34> %maxcore 5000
| 35> 
| 36> %pal
| 37> nprocs = 24
| 38> end
| 39> 
| 40> 
| 41>                          ****END OF INPUT****
================================================================================

                       ****************************
                       * Single Point Calculation *
                       ****************************

---------------------------------
CARTESIAN COORDINATES (ANGSTROEM)
---------------------------------
  Mo     0.000106   -0.000070   -0.471377
  C      0.514398   -1.514915   -1.646050
  C      1.055079    1.202350   -1.646249
  C     -1.568474    0.311983   -1.646660
  O     -2.484520    0.493946   -2.346732
  O      0.814970   -2.399453   -2.345765
  O      1.670957    1.904692   -2.346079
  N     -1.133555   -1.291008    0.811792
  N     -0.551576    1.627166    0.811584
  N      1.684684   -0.335905    0.812231
  C      2.623715   -0.523292    1.470917
  C     -0.858944    2.534303    1.469905
  C     -1.765652   -2.010491    1.470244
  C     -2.579903   -2.936733    2.238371
  H     -3.631237   -2.631169    2.207389
  H     -2.252645   -2.962558    3.282907
  H     -2.496617   -3.945451    1.819577
  C     -1.254401    3.702555    2.237857
  H     -0.464690    4.460832    2.206160
  H     -1.439592    3.432273    3.282594
  H     -2.170183    4.133961    1.819442
  C      3.832875   -0.764956    2.239344
  H      4.094105   -1.828181    2.208653
  H      3.691346   -0.468421    3.283785
  H      4.664793   -0.188419    1.820591

----------------------------
CARTESIAN COORDINATES (A.U.)
----------------------------
  NO LB      ZA    FRAG     MASS         X           Y           Z
   0 Mo   14.0000*   0    95.940    0.000200   -0.000132   -0.890773
   1 C     6.0000    0    12.011    0.972071   -2.862774   -3.110584
   2 C     6.0000    0    12.011    1.993810    2.272112   -3.110960
   3 C     6.0000    0    12.011   -2.963986    0.589562   -3.111736
   4 O     8.0000    0    15.999   -4.695062    0.933423   -4.434681
   5 O     8.0000    0    15.999    1.540070   -4.534309   -4.432853
   6 O     8.0000    0    15.999    3.157651    3.599346   -4.433447
   7 N     7.0000    0    14.007   -2.142109   -2.439652    1.534065
   8 N     7.0000    0    14.007   -1.042328    3.074898    1.533671
   9 N     7.0000    0    14.007    3.183591   -0.634768    1.534894
  10 C     6.0000    0    12.011    4.958103   -0.988879    2.779630
  11 C     6.0000    0    12.011   -1.623169    4.789139    2.777718
  12 C     6.0000    0    12.011   -3.336599   -3.799277    2.778359
  13 C     6.0000    0    12.011   -4.875310   -5.549621    4.229908
  14 H     1.0000    0     1.008   -6.862043   -4.972189    4.171361
  15 H     1.0000    0     1.008   -4.256882   -5.598423    6.203795
  16 H     1.0000    0     1.008   -4.717922   -7.455822    3.438502
  17 C     6.0000    0    12.011   -2.370474    6.996815    4.228937
  18 H     1.0000    0     1.008   -0.878137    8.429751    4.169038
  19 H     1.0000    0     1.008   -2.720435    6.486056    6.203204
  20 H     1.0000    0     1.008   -4.101052    7.812054    3.438247
  21 C     6.0000    0    12.011    7.243084   -1.445557    4.231747
  22 H     1.0000    0     1.008    7.736737   -3.454761    4.173749
  23 H     1.0000    0     1.008    6.975633   -0.885187    6.205454
  24 H     1.0000    0     1.008    8.815181   -0.356060    3.440418
* core charge reduced due to ECP

--------------------------------
INTERNAL COORDINATES (ANGSTROEM)
--------------------------------
 Mo     0   0   0     0.000000000000     0.00000000     0.00000000
 C      1   0   0     1.984718693472     0.00000000     0.00000000
 C      1   2   0     1.984718142083    88.52821499     0.00000000
 C      1   2   3     1.984719229840    88.52852908    88.56446471
 O      4   1   2     1.167198189113   179.45594567   317.10735893
 O      2   1   3     1.167198390100   179.45602869   317.02965672
 O      3   1   2     1.167198365638   179.45611457    45.61657349
 N      1   2   3     2.144348587643    91.81459848   180.30593702
 N      1   2   3     2.144350474232   179.54049399   226.71307953
 N      1   2   3     2.144350177320    91.78699754   268.23068328
 C     10   1   2     1.162222161777   177.75398670    44.05698539
 C      9   1   3     1.162221649787   177.75375258    44.07509113
 C      8   1   2     1.162222629707   177.75457570   315.42287600
 C     13   8   1     1.452910190512   177.40669965   359.91582242
 H     14  13   8     1.095277326514   110.18997744   285.66233562
 H     14  13   8     1.094906472940   110.60293907   165.46241910
 H     14  13   8     1.095370702436   110.01906894    45.38593472
 C     12   9   1     1.452910612755   177.40636648   359.88894389
 H     18  12   9     1.095277212426   110.18976884   285.69273374
 H     18  12   9     1.094907971098   110.60286905   165.49299331
 H     18  12   9     1.095371590185   110.01929112    45.41639584
 C     11  10   1     1.452910681640   177.40661353   359.90192026
 H     22  11  10     1.095276426755   110.19009660   285.63634270
 H     22  11  10     1.094906601746   110.60282438   165.43643606
 H     22  11  10     1.095370506314   110.01900162    45.36002498

---------------------------
INTERNAL COORDINATES (A.U.)
---------------------------
 Mo     0   0   0     0.000000000000     0.00000000     0.00000000
 C      1   0   0     3.750574783536     0.00000000     0.00000000
 C      1   2   0     3.750573741562    88.52821499     0.00000000
 C      1   2   3     3.750575797125    88.52852908    88.56446471
 O      4   1   2     2.205684921433   179.45594567   317.10735893
 O      2   1   3     2.205685301244   179.45602869   317.02965672
 O      3   1   2     2.205685255016   179.45611457    45.61657349
 N      1   2   3     4.052231566306    91.81459848   180.30593702
 N      1   2   3     4.052235131444   179.54049399   226.71307953
 N      1   2   3     4.052234570361    91.78699754   268.23068328
 C     10   1   2     2.196281592533   177.75398670    44.05698539
 C      9   1   3     2.196280625012   177.75375258    44.07509113
 C      8   1   2     2.196282476791   177.75457570   315.42287600
 C     13   8   1     2.745602357251   177.40669965   359.91582242
 H     14  13   8     2.069774187805   110.18997744   285.66233562
 H     14  13   8     2.069073376113   110.60293907   165.46241910
 H     14  13   8     2.069950642726   110.01906894    45.38593472
 C     12   9   1     2.745603155175   177.40636648   359.88894389
 H     18  12   9     2.069773972209   110.18976884   285.69273374
 H     18  12   9     2.069076207223   110.60286905   165.49299331
 H     18  12   9     2.069952320328   110.01929112    45.41639584
 C     11  10   1     2.745603285349   177.40661353   359.90192026
 H     22  11  10     2.069772487507   110.19009660   285.63634270
 H     22  11  10     2.069073619522   110.60282438   165.43643606
 H     22  11  10     2.069950272108   110.01900162    45.36002498

---------------------
BASIS SET INFORMATION
---------------------
There are 5 groups of distinct atoms

 Group   1 Type Mo  : 7s7p5d2f1g contracted to 6s4p3d2f1g pattern {211111/4111/311/11/1}
 Group   2 Type C   : 12s6p3d1f contracted to 6s3p3d1f pattern {621111/411/111/1}
 Group   3 Type O   : 12s7p3d1f contracted to 6s4p3d1f pattern {621111/4111/111/1}
 Group   4 Type N   : 12s6p3d1f contracted to 6s3p3d1f pattern {621111/411/111/1}
 Group   5 Type H   : 5s3p1d contracted to 3s3p1d pattern {311/111/1}

Atom   0Mo   basis set group =>   1
Atom   1C    basis set group =>   2
Atom   2C    basis set group =>   2
Atom   3C    basis set group =>   2
Atom   4O    basis set group =>   3
Atom   5O    basis set group =>   3
Atom   6O    basis set group =>   3
Atom   7N    basis set group =>   4
Atom   8N    basis set group =>   4
Atom   9N    basis set group =>   4
Atom  10C    basis set group =>   2
Atom  11C    basis set group =>   2
Atom  12C    basis set group =>   2
Atom  13C    basis set group =>   2
Atom  14H    basis set group =>   5
Atom  15H    basis set group =>   5
Atom  16H    basis set group =>   5
Atom  17C    basis set group =>   2
Atom  18H    basis set group =>   5
Atom  19H    basis set group =>   5
Atom  20H    basis set group =>   5
Atom  21C    basis set group =>   2
Atom  22H    basis set group =>   5
Atom  23H    basis set group =>   5
Atom  24H    basis set group =>   5
----------------------------------
AUXILIARY/JK BASIS SET INFORMATION
----------------------------------
There are 5 groups of distinct atoms

 Group   1 Type Mo  : 13s12p10d9f6g3h2i contracted to 11s10p9d8f6g3h2i pattern {31111111111/3111111111/211111111/21111111/111111/111/11}
 Group   2 Type C   : 14s10p6d2f1g contracted to 10s8p5d1f1g pattern {5111111111/31111111/21111/2/1}
 Group   3 Type O   : 14s10p6d2f1g contracted to 10s8p4d2f1g pattern {5111111111/31111111/3111/11/1}
 Group   4 Type N   : 14s10p6d2f1g contracted to 10s8p4d2f1g pattern {5111111111/31111111/3111/11/1}
 Group   5 Type H   : 4s2p2d contracted to 2s2p2d pattern {31/11/11}

Atom   0Mo   basis set group =>   1
Atom   1C    basis set group =>   2
Atom   2C    basis set group =>   2
Atom   3C    basis set group =>   2
Atom   4O    basis set group =>   3
Atom   5O    basis set group =>   3
Atom   6O    basis set group =>   3
Atom   7N    basis set group =>   4
Atom   8N    basis set group =>   4
Atom   9N    basis set group =>   4
Atom  10C    basis set group =>   2
Atom  11C    basis set group =>   2
Atom  12C    basis set group =>   2
Atom  13C    basis set group =>   2
Atom  14H    basis set group =>   5
Atom  15H    basis set group =>   5
Atom  16H    basis set group =>   5
Atom  17C    basis set group =>   2
Atom  18H    basis set group =>   5
Atom  19H    basis set group =>   5
Atom  20H    basis set group =>   5
Atom  21C    basis set group =>   2
Atom  22H    basis set group =>   5
Atom  23H    basis set group =>   5
Atom  24H    basis set group =>   5
-------------------------
ECP PARAMETER INFORMATION
-------------------------

 Group 1, Type Mo ECP Def2-ECP (replacing 28 core electrons, lmax=3)

Atom   0Mo   ECP group =>   1



           ************************************************************
           *        Program running with 24 parallel MPI-processes    *
           *              working on a common directory               *
           ************************************************************
------------------------------------------------------------------------------
                           ORCA GTO INTEGRAL CALCULATION
------------------------------------------------------------------------------

                         BASIS SET STATISTICS AND STARTUP INFO

 # of primitive gaussian shells          ...  436
 # of primitive gaussian functions       ... 1036
 # of contracted shells                  ...  277
 # of contracted basis functions         ...  773
 Highest angular momentum                ...    4
 Maximum contraction depth               ...    6
 Integral package used                   ... LIBINT
 Integral threshhold            Thresh   ...  1.000e-10
 Primitive cut-off              TCut     ...  1.000e-11


------------------------------ INTEGRAL EVALUATION ----------------------------


 * One electron integrals 

   ECP integrals                         ... done
 Pre-screening matrix                    ... done
 Shell pair data                         ... done (   0.008 sec)



           ************************************************************
           *        Program running with 24 parallel MPI-processes    *
           *              working on a common directory               *
           ************************************************************
-------------------------------------------------------------------------------
                                 ORCA SCF
-------------------------------------------------------------------------------

------------
SCF SETTINGS
------------
Hamiltonian:
 Density Functional     Method          .... DFT(GTOs)
 Exchange Functional    Exchange        .... TPSS
 Correlation Functional Correlation     .... TPSS
 LDA part of GGA corr.  LDAOpt          .... PW91-LDA
 Gradients option       PostSCFGGA      .... off
 Hybrid DFT is turned on
   Fraction HF Exchange ScalHFX         ....  0.100000
   Scaling of DF-GGA-X  ScalDFX         ....  0.900000
   Scaling of DF-GGA-C  ScalDFC         ....  1.000000
   Scaling of DF-LDA-C  ScalLDAC        ....  1.000000
   Perturbative correction              ....  0.000000
   Density functional embedding theory  .... OFF
   NL short-range parameter             ....  5.200000


General Settings:
 Integral files         IntName         .... MOR36_pr37
 Hartree-Fock type      HFTyp           .... RHF
 Total Charge           Charge          ....    0
 Multiplicity           Mult            ....    1
 Number of Electrons    NEL             ....  122
 Basis Dimension        Dim             ....  773
 Nuclear Repulsion      ENuc            ....   1067.4966403648 Eh

Convergence Acceleration:
 DIIS                   CNVDIIS         .... on
   Start iteration      DIISMaxIt       ....    12
   Startup error        DIISStart       ....  0.200000
   # of expansion vecs  DIISMaxEq       ....     5
   Bias factor          DIISBfac        ....   1.050
   Max. coefficient     DIISMaxC        ....  10.000
 Newton-Raphson         CNVNR           .... off
 SOSCF                  CNVSOSCF        .... off
 Level Shifting         CNVShift        .... on
   Level shift para.    LevelShift      ....    0.2500
   Turn off err/grad.   ShiftErr        ....    0.0010
 Zerner damping         CNVZerner       .... off
 Static damping         CNVDamp         .... on
   Fraction old density DampFac         ....    0.7000
   Max. Damping (<1)    DampMax         ....    0.9800
   Min. Damping (>=0)   DampMin         ....    0.0000
   Turn off err/grad.   DampErr         ....    0.1000
 Fernandez-Rico         CNVRico         .... off

SCF Procedure:
 Maximum # iterations   MaxIter         ....   125
 SCF integral mode      SCFMode         .... Direct
   Integral package                     .... LIBINT
 Reset frequency        DirectResetFreq ....    20
 Integral Threshold     Thresh          ....  1.000e-10 Eh
 Primitive CutOff       TCut            ....  1.000e-11 Eh

Convergence Tolerance:
 Convergence Check Mode ConvCheckMode   .... Total+1el-Energy
 Convergence forced     ConvForced      .... 0
 Energy Change          TolE            ....  1.000e-06 Eh
 1-El. energy change                    ....  1.000e-03 Eh
 DIIS Error             TolErr          ....  1.000e-06


Diagonalization of the overlap matrix:
Smallest eigenvalue                        ... 4.649e-06
Time for diagonalization                   ...    0.125 sec
Threshold for overlap eigenvalues          ... 1.000e-08
Number of eigenvalues below threshold      ... 0
Time for construction of square roots      ...    0.081 sec
Total time needed                          ...    0.209 sec

-------------------
DFT GRID GENERATION
-------------------

General Integration Accuracy     IntAcc      ...  4.670
Radial Grid Type                 RadialGrid  ... Gauss-Chebyshev
Angular Grid (max. acc.)         AngularGrid ... Lebedev-302
Angular grid pruning method      GridPruning ... 3 (G Style)
Weight generation scheme         WeightScheme... Becke
Basis function cutoff            BFCut       ...    1.0000e-10
Integration weight cutoff        WCut        ...    1.0000e-14
Grids for H and He will be reduced by one unit

# of grid points (after initial pruning)     ... 134324 (   0.0 sec)
# of grid points (after weights+screening)   ... 123319 (   0.1 sec)
nearest neighbour list constructed           ...    0.0 sec
Grid point re-assignment to atoms done       ...    0.0 sec
Grid point division into batches done        ...    0.4 sec
Reduced shell lists constructed in    0.6 sec

Total number of grid points                  ...   123319
Total number of batches                      ...     1939
Average number of points per batch           ...       63
Average number of grid points per atom       ...     4933
Average number of shells per batch           ...   172.48 (62.27%)
Average number of basis functions per batch  ...   498.57 (64.50%)
Average number of large shells per batch     ...   136.94 (79.40%)
Average number of large basis fcns per batch ...   392.96 (78.82%)
Maximum spatial batch extension              ...   1.63,  1.79,  1.92 au
Average spatial batch extension              ...   0.04,  0.04,  0.04 au

Time for grid setup =    0.655 sec

------------------------------
INITIAL GUESS: MODEL POTENTIAL
------------------------------
Loading Hartree-Fock densities                     ... done
  calling /sw/apps/orca/orca_4_2_0_linux_x86-64_openmpi314/orca MOR36_pr37_atom42.inp > MOR36_pr37_atom42.out in order to generate an atomic fitting density for atom 0 (Mo with ECP) on-the-fly... 
    atom 0 (Mo), assumed electronic state with S=5: 1s2 2s2 2p6 3s2 3p6 4s2 3d10 4p6 5s2 4d4           ... done
Calculating cut-offs                               ... done
Setting up the integral package                    ... done
Initializing the effective Hamiltonian             ... done
Starting the Coulomb interaction                   ... done (   0.1 sec)
Reading the grid                                   ... done
Mapping shells                                     ... done
Starting the XC term evaluation                    ... done (   0.2 sec)
  promolecular density results
     # of electrons  =    149.996147575
     EX              =   -211.754647239
     EC              =     -5.680233235
     EX+EC           =   -217.434880474
Transforming the Hamiltonian                       ... done (   0.0 sec)
Diagonalizing the Hamiltonian                      ... done (   0.1 sec)
Back transforming the eigenvectors                 ... done (   0.0 sec)
Now organizing SCF variables                       ... done
                      ------------------
                      INITIAL GUESS DONE (   3.5 sec)
                      ------------------
--------------
SCF ITERATIONS
--------------
ITER       Energy         Delta-E        Max-DP      RMS-DP      [F,P]     Damp
               ***  Starting incremental Fock matrix formation  ***
  0   -806.2373442725   0.000000000000 0.72271598  0.00183462  0.4397230 0.7000
  1   -806.6115601421  -0.374215869547 0.51718250  0.00122092  0.2829979 0.7000
                               ***Turning on DIIS***
  2   -806.6888525363  -0.077292394222 0.12534025  0.00050057  0.1873392 0.7000
  3   -806.7707895338  -0.081936997512 0.16002615  0.00044218  0.1349439 0.7000
  4   -806.8250734237  -0.054283889958 0.57815778  0.00129329  0.0955984 0.0000
  5   -806.9458248211  -0.120751397344 0.09557806  0.00020136  0.0047983 0.0000
  6   -806.9459950568  -0.000170235658 0.04309056  0.00009301  0.0036302 0.0000
  7   -806.9460987251  -0.000103668346 0.02452443  0.00005329  0.0012509 0.0000
  8   -806.9461097647  -0.000011039624 0.02944058  0.00006463  0.0005494 0.0000
  9   -806.9461118109  -0.000002046195 0.00328119  0.00000876  0.0004265 0.0000
 10   -806.9461129161  -0.000001105204 0.00182291  0.00001057  0.0002108 0.0000
 11   -806.9461132450  -0.000000328889 0.00219567  0.00001084  0.0000375 0.0000
 12   -806.9461132548  -0.000000009767 0.00213966  0.00001321  0.0000435 0.0000
                 **** Energy Check signals convergence ****

               *****************************************************
               *                     SUCCESS                       *
               *           SCF CONVERGED AFTER  13 CYCLES          *
               *****************************************************


----------------
TOTAL SCF ENERGY
----------------

Total Energy       :         -806.94611325 Eh          -21958.12007 eV

Components:
Nuclear Repulsion  :         1067.49664036 Eh           29048.06036 eV
Electronic Energy  :        -1874.44275362 Eh          -51006.18043 eV
One Electron Energy:        -3244.42831126 Eh          -88285.38269 eV
Two Electron Energy:         1369.98555764 Eh           37279.20226 eV

Virial components:
Potential Energy   :        -1565.63286154 Eh          -42603.03606 eV
Kinetic Energy     :          758.68674829 Eh           20644.91599 eV
Virial Ratio       :            2.06360908


DFT components:
N(Alpha)           :       60.999995042455 electrons
N(Beta)            :       60.999995042455 electrons
N(Total)           :      121.999990084911 electrons
E(X)               :      -92.075196716954 Eh       
E(C)               :       -4.145622663472 Eh       
E(XC)              :      -96.220819380426 Eh       
DFET-embed. en.    :        0.000000000000 Eh       

---------------
SCF CONVERGENCE
---------------

  Last Energy change         ...    4.3633e-10  Tolerance :   1.0000e-06
  Last MAX-Density change    ...    9.8626e-04  Tolerance :   1.0000e-05
  Last RMS-Density change    ...    7.6057e-06  Tolerance :   1.0000e-06
  Last DIIS Error            ...    3.6021e-05  Tolerance :   1.0000e-06

             **** THE GBW FILE WAS UPDATED (MOR36_pr37.gbw) ****
             **** DENSITY FILE WAS UPDATED (MOR36_pr37.scfp) ****
             **** ENERGY FILE WAS UPDATED (MOR36_pr37.en.tmp) ****
             **** THE GBW FILE WAS UPDATED (MOR36_pr37.gbw) ****
             **** DENSITY FILE WAS UPDATED (MOR36_pr37.scfp) ****
----------------
ORBITAL ENERGIES
----------------

  NO   OCC          E(Eh)            E(eV) 
   0   2.0000     -19.057593      -518.5835 
   1   2.0000     -19.057590      -518.5834 
   2   2.0000     -19.057586      -518.5833 
   3   2.0000     -14.277520      -388.5111 
   4   2.0000     -14.277516      -388.5110 
   5   2.0000     -14.277511      -388.5108 
   6   2.0000     -10.175520      -276.8900 
   7   2.0000     -10.175517      -276.8899 
   8   2.0000     -10.175514      -276.8898 
   9   2.0000     -10.166870      -276.6546 
  10   2.0000     -10.166869      -276.6546 
  11   2.0000     -10.166866      -276.6545 
  12   2.0000     -10.151772      -276.2438 
  13   2.0000     -10.151769      -276.2437 
  14   2.0000     -10.151765      -276.2436 
  15   2.0000      -2.458592       -66.9017 
  16   2.0000      -1.474699       -40.1286 
  17   2.0000      -1.471192       -40.0332 
  18   2.0000      -1.471191       -40.0331 
  19   2.0000      -1.029871       -28.0242 
  20   2.0000      -1.029257       -28.0075 
  21   2.0000      -1.029253       -28.0074 
  22   2.0000      -0.905797       -24.6480 
  23   2.0000      -0.903475       -24.5848 
  24   2.0000      -0.903470       -24.5847 
  25   2.0000      -0.768733       -20.9183 
  26   2.0000      -0.768311       -20.9068 
  27   2.0000      -0.768310       -20.9068 
  28   2.0000      -0.522999       -14.2315 
  29   2.0000      -0.515590       -14.0299 
  30   2.0000      -0.515588       -14.0299 
  31   2.0000      -0.494383       -13.4528 
  32   2.0000      -0.479893       -13.0585 
  33   2.0000      -0.479891       -13.0585 
  34   2.0000      -0.458551       -12.4778 
  35   2.0000      -0.458042       -12.4640 
  36   2.0000      -0.458041       -12.4639 
  37   2.0000      -0.457368       -12.4456 
  38   2.0000      -0.457368       -12.4456 
  39   2.0000      -0.456932       -12.4337 
  40   2.0000      -0.439003       -11.9459 
  41   2.0000      -0.426261       -11.5992 
  42   2.0000      -0.426256       -11.5990 
  43   2.0000      -0.378814       -10.3081 
  44   2.0000      -0.375894       -10.2286 
  45   2.0000      -0.375893       -10.2286 
  46   2.0000      -0.366480        -9.9724 
  47   2.0000      -0.366477        -9.9723 
  48   2.0000      -0.363046        -9.8790 
  49   2.0000      -0.358694        -9.7605 
  50   2.0000      -0.349394        -9.5075 
  51   2.0000      -0.349391        -9.5074 
  52   2.0000      -0.339126        -9.2281 
  53   2.0000      -0.339124        -9.2280 
  54   2.0000      -0.335349        -9.1253 
  55   2.0000      -0.332002        -9.0342 
  56   2.0000      -0.326872        -8.8946 
  57   2.0000      -0.326872        -8.8946 
  58   2.0000      -0.156582        -4.2608 
  59   2.0000      -0.153129        -4.1669 
  60   2.0000      -0.153126        -4.1668 
  61   0.0000      -0.022828        -0.6212 
  62   0.0000      -0.020996        -0.5713 
  63   0.0000      -0.020988        -0.5711 
  64   0.0000      -0.017457        -0.4750 
  65   0.0000      -0.008857        -0.2410 
  66   0.0000      -0.008846        -0.2407 
  67   0.0000      -0.004570        -0.1243 
  68   0.0000      -0.004565        -0.1242 
  69   0.0000      -0.003750        -0.1021 
  70   0.0000       0.029124         0.7925 
  71   0.0000       0.029129         0.7926 
  72   0.0000       0.031737         0.8636 
  73   0.0000       0.036299         0.9877 
  74   0.0000       0.041173         1.1204 
  75   0.0000       0.042058         1.1445 
  76   0.0000       0.042076         1.1449 
  77   0.0000       0.056826         1.5463 
  78   0.0000       0.059371         1.6156 
  79   0.0000       0.059381         1.6158 
  80   0.0000       0.062029         1.6879 
  81   0.0000       0.062065         1.6889 
  82   0.0000       0.071137         1.9357 
  83   0.0000       0.073699         2.0055 
  84   0.0000       0.073716         2.0059 
  85   0.0000       0.077416         2.1066 
  86   0.0000       0.078048         2.1238 
  87   0.0000       0.078054         2.1239 
  88   0.0000       0.094417         2.5692 
  89   0.0000       0.094430         2.5696 
  90   0.0000       0.096432         2.6240 
  91   0.0000       0.099667         2.7121 
  92   0.0000       0.099673         2.7122 
  93   0.0000       0.103005         2.8029 
  94   0.0000       0.106031         2.8853 
  95   0.0000       0.107400         2.9225 
  96   0.0000       0.110669         3.0115 
  97   0.0000       0.110681         3.0118 
  98   0.0000       0.116956         3.1825 
  99   0.0000       0.116969         3.1829 
 100   0.0000       0.124392         3.3849 
 101   0.0000       0.126507         3.4424 
 102   0.0000       0.126526         3.4429 
 103   0.0000       0.142203         3.8695 
 104   0.0000       0.144412         3.9296 
 105   0.0000       0.144419         3.9298 
 106   0.0000       0.153896         4.1877 
 107   0.0000       0.157948         4.2980 
 108   0.0000       0.157959         4.2983 
 109   0.0000       0.177701         4.8355 
 110   0.0000       0.182644         4.9700 
 111   0.0000       0.182671         4.9707 
 112   0.0000       0.182829         4.9750 
 113   0.0000       0.187523         5.1027 
 114   0.0000       0.187534         5.1031 
 115   0.0000       0.198986         5.4147 
 116   0.0000       0.211075         5.7436 
 117   0.0000       0.211101         5.7444 
 118   0.0000       0.213766         5.8169 
 119   0.0000       0.224831         6.1180 
 120   0.0000       0.226885         6.1739 
 121   0.0000       0.226967         6.1761 
 122   0.0000       0.231814         6.3080 
 123   0.0000       0.231826         6.3083 
 124   0.0000       0.233453         6.3526 
 125   0.0000       0.240330         6.5397 
 126   0.0000       0.240359         6.5405 
 127   0.0000       0.249919         6.8006 
 128   0.0000       0.249947         6.8014 
 129   0.0000       0.251920         6.8551 
 130   0.0000       0.255836         6.9617 
 131   0.0000       0.255875         6.9627 
 132   0.0000       0.261902         7.1267 
 133   0.0000       0.262967         7.1557 
 134   0.0000       0.263789         7.1781 
 135   0.0000       0.263815         7.1788 
 136   0.0000       0.267805         7.2873 
 137   0.0000       0.268904         7.3173 
 138   0.0000       0.268922         7.3177 
 139   0.0000       0.275771         7.5041 
 140   0.0000       0.275792         7.5047 
 141   0.0000       0.275805         7.5050 
 142   0.0000       0.277077         7.5397 
 143   0.0000       0.283078         7.7029 
 144   0.0000       0.283095         7.7034 
 145   0.0000       0.288874         7.8607 
 146   0.0000       0.288929         7.8622 
 147   0.0000       0.288944         7.8626 
 148   0.0000       0.298307         8.1174 
 149   0.0000       0.298349         8.1185 
 150   0.0000       0.299177         8.1410 
 151   0.0000       0.304828         8.2948 
 152   0.0000       0.316921         8.6239 
 153   0.0000       0.317068         8.6279 
 154   0.0000       0.324438         8.8284 
 155   0.0000       0.330630         8.9969 
 156   0.0000       0.330766         9.0006 
 157   0.0000       0.333757         9.0820 
 158   0.0000       0.345570         9.4034 
 159   0.0000       0.345605         9.4044 
 160   0.0000       0.357845         9.7374 
 161   0.0000       0.357892         9.7387 
 162   0.0000       0.358537         9.7563 
 163   0.0000       0.370413        10.0795 
 164   0.0000       0.373706        10.1691 
 165   0.0000       0.382997        10.4219 
 166   0.0000       0.383039        10.4230 
 167   0.0000       0.383071        10.4239 
 168   0.0000       0.386097        10.5062 
 169   0.0000       0.386106        10.5065 
 170   0.0000       0.388792        10.5796 
 171   0.0000       0.399535        10.8719 
 172   0.0000       0.399573        10.8729 
 173   0.0000       0.406097        11.0505 
 174   0.0000       0.407513        11.0890 
 175   0.0000       0.407526        11.0894 
 176   0.0000       0.411031        11.1847 
 177   0.0000       0.417242        11.3537 
 178   0.0000       0.417276        11.3547 
 179   0.0000       0.427018        11.6197 
 180   0.0000       0.427041        11.6204 
 181   0.0000       0.434116        11.8129 
 182   0.0000       0.438880        11.9425 
 183   0.0000       0.438948        11.9444 
 184   0.0000       0.441035        12.0012 
 185   0.0000       0.457613        12.4523 
 186   0.0000       0.457617        12.4524 
 187   0.0000       0.463578        12.6146 
 188   0.0000       0.477463        12.9924 
 189   0.0000       0.491280        13.3684 
 190   0.0000       0.491385        13.3713 
 191   0.0000       0.493553        13.4303 
 192   0.0000       0.502336        13.6693 
 193   0.0000       0.510118        13.8810 
 194   0.0000       0.510134        13.8814 
 195   0.0000       0.510561        13.8931 
 196   0.0000       0.515474        14.0268 
 197   0.0000       0.515507        14.0276 
 198   0.0000       0.524530        14.2732 
 199   0.0000       0.524569        14.2743 
 200   0.0000       0.530988        14.4489 
 201   0.0000       0.536309        14.5937 
 202   0.0000       0.536415        14.5966 
 203   0.0000       0.537993        14.6395 
 204   0.0000       0.548200        14.9173 
 205   0.0000       0.548407        14.9229 
 206   0.0000       0.548667        14.9300 
 207   0.0000       0.554683        15.0937 
 208   0.0000       0.563431        15.3317 
 209   0.0000       0.563557        15.3352 
 210   0.0000       0.564585        15.3631 
 211   0.0000       0.566582        15.4175 
 212   0.0000       0.566619        15.4185 
 213   0.0000       0.589451        16.0398 
 214   0.0000       0.594141        16.1674 
 215   0.0000       0.594226        16.1697 
 216   0.0000       0.600201        16.3323 
 217   0.0000       0.607978        16.5439 
 218   0.0000       0.607996        16.5444 
 219   0.0000       0.617451        16.8017 
 220   0.0000       0.618433        16.8284 
 221   0.0000       0.618454        16.8290 
 222   0.0000       0.621902        16.9228 
 223   0.0000       0.623681        16.9712 
 224   0.0000       0.623715        16.9722 
 225   0.0000       0.632088        17.2000 
 226   0.0000       0.638257        17.3678 
 227   0.0000       0.638274        17.3683 
 228   0.0000       0.645406        17.5624 
 229   0.0000       0.645453        17.5637 
 230   0.0000       0.657994        17.9049 
 231   0.0000       0.661092        17.9892 
 232   0.0000       0.661142        17.9906 
 233   0.0000       0.669739        18.2245 
 234   0.0000       0.671059        18.2605 
 235   0.0000       0.671085        18.2611 
 236   0.0000       0.683191        18.5906 
 237   0.0000       0.683253        18.5923 
 238   0.0000       0.685010        18.6401 
 239   0.0000       0.702358        19.1121 
 240   0.0000       0.704432        19.1686 
 241   0.0000       0.704460        19.1693 
 242   0.0000       0.708809        19.2877 
 243   0.0000       0.708843        19.2886 
 244   0.0000       0.714657        19.4468 
 245   0.0000       0.723703        19.6930 
 246   0.0000       0.723840        19.6967 
 247   0.0000       0.739790        20.1307 
 248   0.0000       0.743614        20.2348 
 249   0.0000       0.743714        20.2375 
 250   0.0000       0.760490        20.6940 
 251   0.0000       0.766871        20.8676 
 252   0.0000       0.766888        20.8681 
 253   0.0000       0.769817        20.9478 
 254   0.0000       0.773738        21.0545 
 255   0.0000       0.782524        21.2936 
 256   0.0000       0.782600        21.2956 
 257   0.0000       0.790519        21.5111 
 258   0.0000       0.799471        21.7547 
 259   0.0000       0.799840        21.7647 
 260   0.0000       0.810605        22.0577 
 261   0.0000       0.816818        22.2267 
 262   0.0000       0.816830        22.2271 
 263   0.0000       0.824741        22.4423 
 264   0.0000       0.827005        22.5040 
 265   0.0000       0.827025        22.5045 
 266   0.0000       0.834513        22.7083 
 267   0.0000       0.848562        23.0905 
 268   0.0000       0.848597        23.0915 
 269   0.0000       0.853575        23.2270 
 270   0.0000       0.853630        23.2284 
 271   0.0000       0.858080        23.3496 
 272   0.0000       0.870622        23.6908 
 273   0.0000       0.873054        23.7570 
 274   0.0000       0.873518        23.7696 
 275   0.0000       0.873556        23.7707 
 276   0.0000       0.886085        24.1116 
 277   0.0000       0.886314        24.1178 
 278   0.0000       0.887396        24.1473 
 279   0.0000       0.887469        24.1493 
 280   0.0000       0.902438        24.5566 
 281   0.0000       0.902577        24.5604 
 282   0.0000       0.909905        24.7598 
 283   0.0000       0.919204        25.0128 
 284   0.0000       0.919264        25.0144 
 285   0.0000       0.923412        25.1273 
 286   0.0000       0.937873        25.5208 
 287   0.0000       0.937979        25.5237 
 288   0.0000       0.939055        25.5530 
 289   0.0000       0.959286        26.1035 
 290   0.0000       0.974814        26.5260 
 291   0.0000       0.975046        26.5323 
 292   0.0000       0.978985        26.6395 
 293   0.0000       0.979028        26.6407 
 294   0.0000       0.986899        26.8549 
 295   0.0000       0.990019        26.9398 
 296   0.0000       0.991288        26.9743 
 297   0.0000       0.991363        26.9764 
 298   0.0000       1.009418        27.4677 
 299   0.0000       1.015329        27.6285 
 300   0.0000       1.018585        27.7171 
 301   0.0000       1.018656        27.7190 
 302   0.0000       1.033629        28.1265 
 303   0.0000       1.052029        28.6272 
 304   0.0000       1.052087        28.6288 
 305   0.0000       1.055520        28.7222 
 306   0.0000       1.067360        29.0443 
 307   0.0000       1.069799        29.1107 
 308   0.0000       1.070014        29.1166 
 309   0.0000       1.091699        29.7066 
 310   0.0000       1.091730        29.7075 
 311   0.0000       1.098964        29.9043 
 312   0.0000       1.112768        30.2800 
 313   0.0000       1.115243        30.3473 
 314   0.0000       1.115289        30.3486 
 315   0.0000       1.132041        30.8044 
 316   0.0000       1.137018        30.9398 
 317   0.0000       1.137036        30.9403 
 318   0.0000       1.163616        31.6636 
 319   0.0000       1.166193        31.7337 
 320   0.0000       1.166352        31.7381 
 321   0.0000       1.174464        31.9588 
 322   0.0000       1.174640        31.9636 
 323   0.0000       1.178897        32.0794 
 324   0.0000       1.185027        32.2462 
 325   0.0000       1.188782        32.3484 
 326   0.0000       1.188854        32.3504 
 327   0.0000       1.199794        32.6481 
 328   0.0000       1.206129        32.8204 
 329   0.0000       1.206163        32.8214 
 330   0.0000       1.214812        33.0567 
 331   0.0000       1.231351        33.5068 
 332   0.0000       1.231380        33.5076 
 333   0.0000       1.237145        33.6644 
 334   0.0000       1.237221        33.6665 
 335   0.0000       1.244556        33.8661 
 336   0.0000       1.277369        34.7590 
 337   0.0000       1.282377        34.8952 
 338   0.0000       1.286892        35.0181 
 339   0.0000       1.286917        35.0188 
 340   0.0000       1.309062        35.6214 
 341   0.0000       1.309095        35.6223 
 342   0.0000       1.337484        36.3948 
 343   0.0000       1.337535        36.3962 
 344   0.0000       1.339849        36.4591 
 345   0.0000       1.348407        36.6920 
 346   0.0000       1.370315        37.2882 
 347   0.0000       1.370441        37.2916 
 348   0.0000       1.387612        37.7588 
 349   0.0000       1.393533        37.9199 
 350   0.0000       1.393669        37.9237 
 351   0.0000       1.407004        38.2865 
 352   0.0000       1.411153        38.3994 
 353   0.0000       1.411189        38.4004 
 354   0.0000       1.419425        38.6245 
 355   0.0000       1.422144        38.6985 
 356   0.0000       1.422242        38.7012 
 357   0.0000       1.460371        39.7387 
 358   0.0000       1.460500        39.7422 
 359   0.0000       1.514624        41.2150 
 360   0.0000       1.516187        41.2575 
 361   0.0000       1.516216        41.2583 
 362   0.0000       1.526933        41.5499 
 363   0.0000       1.541377        41.9430 
 364   0.0000       1.541402        41.9437 
 365   0.0000       1.547657        42.1139 
 366   0.0000       1.547676        42.1144 
 367   0.0000       1.552110        42.2351 
 368   0.0000       1.559739        42.4426 
 369   0.0000       1.562619        42.5210 
 370   0.0000       1.562685        42.5228 
 371   0.0000       1.574627        42.8478 
 372   0.0000       1.574667        42.8489 
 373   0.0000       1.579589        42.9828 
 374   0.0000       1.583106        43.0785 
 375   0.0000       1.583122        43.0789 
 376   0.0000       1.583136        43.0793 
 377   0.0000       1.606456        43.7139 
 378   0.0000       1.624938        44.2168 
 379   0.0000       1.625101        44.2212 
 380   0.0000       1.628518        44.3142 
 381   0.0000       1.664446        45.2919 
 382   0.0000       1.664524        45.2940 
 383   0.0000       1.699544        46.2469 
 384   0.0000       1.699627        46.2492 
 385   0.0000       1.705491        46.4088 
 386   0.0000       1.754703        47.7479 
 387   0.0000       1.755048        47.7573 
 388   0.0000       1.755086        47.7583 
 389   0.0000       1.757558        47.8256 
 390   0.0000       1.782951        48.5166 
 391   0.0000       1.782980        48.5174 
 392   0.0000       1.796909        48.8964 
 393   0.0000       1.817235        49.4495 
 394   0.0000       1.817254        49.4500 
 395   0.0000       1.851834        50.3910 
 396   0.0000       1.851843        50.3912 
 397   0.0000       1.862679        50.6861 
 398   0.0000       1.862727        50.6874 
 399   0.0000       1.870880        50.9092 
 400   0.0000       1.878705        51.1222 
 401   0.0000       1.879032        51.1311 
 402   0.0000       1.879223        51.1362 
 403   0.0000       1.916475        52.1499 
 404   0.0000       1.921370        52.2831 
 405   0.0000       1.931210        52.5509 
 406   0.0000       1.931258        52.5522 
 407   0.0000       1.941501        52.8309 
 408   0.0000       1.941561        52.8326 
 409   0.0000       1.953105        53.1467 
 410   0.0000       1.968537        53.5666 
 411   0.0000       1.968635        53.5693 
 412   0.0000       1.981798        53.9275 
 413   0.0000       1.999710        54.4149 
 414   0.0000       1.999760        54.4162 
 415   0.0000       2.005057        54.5604 
 416   0.0000       2.038797        55.4785 
 417   0.0000       2.041913        55.5633 
 418   0.0000       2.060378        56.0657 
 419   0.0000       2.060466        56.0681 
 420   0.0000       2.081812        56.6490 
 421   0.0000       2.081837        56.6497 
 422   0.0000       2.143784        58.3353 
 423   0.0000       2.143889        58.3382 
 424   0.0000       2.193795        59.6962 
 425   0.0000       2.193901        59.6991 
 426   0.0000       2.199411        59.8490 
 427   0.0000       2.209382        60.1204 
 428   0.0000       2.209435        60.1218 
 429   0.0000       2.233052        60.7644 
 430   0.0000       2.240548        60.9684 
 431   0.0000       2.240588        60.9695 
 432   0.0000       2.280006        62.0421 
 433   0.0000       2.290102        62.3169 
 434   0.0000       2.300664        62.6043 
 435   0.0000       2.300677        62.6046 
 436   0.0000       2.310191        62.8635 
 437   0.0000       2.333780        63.5054 
 438   0.0000       2.333795        63.5058 
 439   0.0000       2.341769        63.7228 
 440   0.0000       2.367253        64.4162 
 441   0.0000       2.367321        64.4181 
 442   0.0000       2.410311        65.5879 
 443   0.0000       2.455848        66.8270 
 444   0.0000       2.455865        66.8275 
 445   0.0000       2.515324        68.4454 
 446   0.0000       2.545463        69.2656 
 447   0.0000       2.581127        70.2360 
 448   0.0000       2.581169        70.2372 
 449   0.0000       2.585438        70.3533 
 450   0.0000       2.621234        71.3274 
 451   0.0000       2.621455        71.3334 
 452   0.0000       2.621471        71.3339 
 453   0.0000       2.625124        71.4333 
 454   0.0000       2.625822        71.4523 
 455   0.0000       2.625830        71.4525 
 456   0.0000       2.629474        71.5516 
 457   0.0000       2.637591        71.7725 
 458   0.0000       2.637649        71.7741 
 459   0.0000       2.642397        71.9033 
 460   0.0000       2.668844        72.6230 
 461   0.0000       2.668860        72.6234 
 462   0.0000       2.674065        72.7650 
 463   0.0000       2.692481        73.2661 
 464   0.0000       2.692495        73.2665 
 465   0.0000       2.723692        74.1154 
 466   0.0000       2.723700        74.1156 
 467   0.0000       2.729871        74.2836 
 468   0.0000       2.750140        74.8351 
 469   0.0000       2.750189        74.8364 
 470   0.0000       2.751460        74.8710 
 471   0.0000       2.764401        75.2232 
 472   0.0000       2.764428        75.2239 
 473   0.0000       2.774370        75.4944 
 474   0.0000       2.779954        75.6464 
 475   0.0000       2.788243        75.8719 
 476   0.0000       2.788306        75.8737 
 477   0.0000       2.805028        76.3287 
 478   0.0000       2.805074        76.3299 
 479   0.0000       2.806245        76.3618 
 480   0.0000       2.814185        76.5779 
 481   0.0000       2.814203        76.5784 
 482   0.0000       2.821013        76.7637 
 483   0.0000       2.840128        77.2838 
 484   0.0000       2.840183        77.2853 
 485   0.0000       2.841311        77.3160 
 486   0.0000       2.847330        77.4798 
 487   0.0000       2.847340        77.4801 
 488   0.0000       2.860244        77.8312 
 489   0.0000       2.877599        78.3034 
 490   0.0000       2.883993        78.4775 
 491   0.0000       2.883998        78.4776 
 492   0.0000       2.894686        78.7684 
 493   0.0000       2.896810        78.8262 
 494   0.0000       2.896818        78.8264 
 495   0.0000       2.911931        79.2377 
 496   0.0000       2.911937        79.2378 
 497   0.0000       2.911975        79.2389 
 498   0.0000       2.942729        80.0757 
 499   0.0000       2.942750        80.0763 
 500   0.0000       2.956192        80.4421 
 501   0.0000       2.964468        80.6673 
 502   0.0000       2.971040        80.8461 
 503   0.0000       2.971059        80.8466 
 504   0.0000       2.983837        81.1943 
 505   0.0000       2.999621        81.6238 
 506   0.0000       2.999632        81.6241 
 507   0.0000       3.002392        81.6992 
 508   0.0000       3.025025        82.3151 
 509   0.0000       3.025052        82.3159 
 510   0.0000       3.027626        82.3859 
 511   0.0000       3.032031        82.5058 
 512   0.0000       3.032044        82.5061 
 513   0.0000       3.049452        82.9798 
 514   0.0000       3.058936        83.2379 
 515   0.0000       3.058977        83.2390 
 516   0.0000       3.075624        83.6920 
 517   0.0000       3.088693        84.0476 
 518   0.0000       3.088751        84.0492 
 519   0.0000       3.117543        84.8327 
 520   0.0000       3.117572        84.8334 
 521   0.0000       3.133673        85.2716 
 522   0.0000       3.150809        85.7379 
 523   0.0000       3.150846        85.7389 
 524   0.0000       3.152484        85.7835 
 525   0.0000       3.172787        86.3359 
 526   0.0000       3.172800        86.3363 
 527   0.0000       3.187910        86.7475 
 528   0.0000       3.190351        86.8139 
 529   0.0000       3.190360        86.8141 
 530   0.0000       3.191089        86.8340 
 531   0.0000       3.193104        86.8888 
 532   0.0000       3.193116        86.8891 
 533   0.0000       3.213760        87.4508 
 534   0.0000       3.229431        87.8773 
 535   0.0000       3.235194        88.0341 
 536   0.0000       3.235215        88.0347 
 537   0.0000       3.263362        88.8006 
 538   0.0000       3.263382        88.8012 
 539   0.0000       3.272719        89.0552 
 540   0.0000       3.281739        89.3007 
 541   0.0000       3.292145        89.5838 
 542   0.0000       3.292180        89.5848 
 543   0.0000       3.330294        90.6219 
 544   0.0000       3.330310        90.6223 
 545   0.0000       3.359771        91.4240 
 546   0.0000       3.359842        91.4259 
 547   0.0000       3.359859        91.4264 
 548   0.0000       3.375130        91.8420 
 549   0.0000       3.375192        91.8437 
 550   0.0000       3.384616        92.1001 
 551   0.0000       3.399371        92.5016 
 552   0.0000       3.399412        92.5027 
 553   0.0000       3.406952        92.7079 
 554   0.0000       3.408448        92.7486 
 555   0.0000       3.408489        92.7497 
 556   0.0000       3.427496        93.2669 
 557   0.0000       3.446270        93.7778 
 558   0.0000       3.446288        93.7783 
 559   0.0000       3.447282        93.8053 
 560   0.0000       3.474070        94.5343 
 561   0.0000       3.491037        94.9959 
 562   0.0000       3.494834        95.0993 
 563   0.0000       3.506417        95.4145 
 564   0.0000       3.506549        95.4181 
 565   0.0000       3.516428        95.6869 
 566   0.0000       3.519843        95.7798 
 567   0.0000       3.519871        95.7805 
 568   0.0000       3.530695        96.0751 
 569   0.0000       3.537436        96.2585 
 570   0.0000       3.537455        96.2590 
 571   0.0000       3.545659        96.4823 
 572   0.0000       3.545673        96.4827 
 573   0.0000       3.556742        96.7839 
 574   0.0000       3.568290        97.0981 
 575   0.0000       3.568386        97.1007 
 576   0.0000       3.581042        97.4451 
 577   0.0000       3.611875        98.2841 
 578   0.0000       3.611903        98.2849 
 579   0.0000       3.623619        98.6037 
 580   0.0000       3.647105        99.2428 
 581   0.0000       3.647115        99.2430 
 582   0.0000       3.674950       100.0005 
 583   0.0000       3.674980       100.0013 
 584   0.0000       3.682688       100.2110 
 585   0.0000       3.715657       101.1082 
 586   0.0000       3.715669       101.1085 
 587   0.0000       3.744921       101.9045 
 588   0.0000       3.797550       103.3366 
 589   0.0000       3.827238       104.1445 
 590   0.0000       3.827299       104.1461 
 591   0.0000       3.854858       104.8960 
 592   0.0000       3.866058       105.2008 
 593   0.0000       3.866067       105.2010 
 594   0.0000       3.895722       106.0080 
 595   0.0000       3.895745       106.0086 
 596   0.0000       3.947276       107.4108 
 597   0.0000       3.969747       108.0223 
 598   0.0000       3.969765       108.0228 
 599   0.0000       3.973792       108.1324 
 600   0.0000       3.984926       108.4354 
 601   0.0000       3.988494       108.5324 
 602   0.0000       3.988522       108.5332 
 603   0.0000       4.005659       108.9995 
 604   0.0000       4.005712       109.0010 
 605   0.0000       4.008675       109.0816 
 606   0.0000       4.041629       109.9783 
 607   0.0000       4.053943       110.3134 
 608   0.0000       4.053966       110.3140 
 609   0.0000       4.075630       110.9035 
 610   0.0000       4.075637       110.9037 
 611   0.0000       4.078830       110.9906 
 612   0.0000       4.084792       111.1528 
 613   0.0000       4.087477       111.2259 
 614   0.0000       4.087488       111.2262 
 615   0.0000       4.099597       111.5557 
 616   0.0000       4.106253       111.7368 
 617   0.0000       4.106287       111.7377 
 618   0.0000       4.134801       112.5136 
 619   0.0000       4.134815       112.5140 
 620   0.0000       4.151718       112.9740 
 621   0.0000       4.163225       113.2871 
 622   0.0000       4.163914       113.3059 
 623   0.0000       4.163943       113.3066 
 624   0.0000       4.166694       113.3815 
 625   0.0000       4.218670       114.7958 
 626   0.0000       4.218689       114.7964 
 627   0.0000       4.224904       114.9655 
 628   0.0000       4.224935       114.9663 
 629   0.0000       4.225400       114.9790 
 630   0.0000       4.237868       115.3183 
 631   0.0000       4.247101       115.5695 
 632   0.0000       4.247125       115.5702 
 633   0.0000       4.294784       116.8670 
 634   0.0000       4.304805       117.1397 
 635   0.0000       4.304829       117.1403 
 636   0.0000       4.452423       121.1566 
 637   0.0000       4.452437       121.1570 
 638   0.0000       4.458951       121.3342 
 639   0.0000       4.460083       121.3650 
 640   0.0000       4.460106       121.3657 
 641   0.0000       4.467938       121.5788 
 642   0.0000       4.528211       123.2189 
 643   0.0000       4.610285       125.4522 
 644   0.0000       4.610313       125.4530 
 645   0.0000       4.632587       126.0591 
 646   0.0000       4.640164       126.2653 
 647   0.0000       4.640209       126.2665 
 648   0.0000       4.651788       126.5816 
 649   0.0000       4.655726       126.6887 
 650   0.0000       4.655757       126.6896 
 651   0.0000       4.658009       126.7509 
 652   0.0000       4.729709       128.7019 
 653   0.0000       4.729825       128.7051 
 654   0.0000       4.790439       130.3545 
 655   0.0000       4.802670       130.6873 
 656   0.0000       4.802738       130.6891 
 657   0.0000       4.848348       131.9303 
 658   0.0000       4.859738       132.2402 
 659   0.0000       4.859792       132.2417 
 660   0.0000       4.863448       132.3412 
 661   0.0000       4.863455       132.3413 
 662   0.0000       4.864310       132.3646 
 663   0.0000       4.873763       132.6218 
 664   0.0000       4.881184       132.8238 
 665   0.0000       4.885295       132.9356 
 666   0.0000       4.885302       132.9358 
 667   0.0000       4.923530       133.9761 
 668   0.0000       4.923627       133.9787 
 669   0.0000       4.931817       134.2016 
 670   0.0000       4.986534       135.6905 
 671   0.0000       4.986636       135.6933 
 672   0.0000       5.140592       139.8826 
 673   0.0000       5.169051       140.6570 
 674   0.0000       5.169076       140.6577 
 675   0.0000       5.169080       140.6578 
 676   0.0000       5.197861       141.4410 
 677   0.0000       5.197870       141.4412 
 678   0.0000       5.198046       141.4460 
 679   0.0000       5.200203       141.5047 
 680   0.0000       5.200208       141.5048 
 681   0.0000       5.201000       141.5264 
 682   0.0000       5.245803       142.7456 
 683   0.0000       5.245815       142.7459 
 684   0.0000       5.274011       143.5131 
 685   0.0000       5.274125       143.5162 
 686   0.0000       5.289174       143.9257 
 687   0.0000       5.312476       144.5598 
 688   0.0000       5.312582       144.5627 
 689   0.0000       5.317221       144.6889 
 690   0.0000       5.346431       145.4838 
 691   0.0000       5.355315       145.7255 
 692   0.0000       5.357843       145.7943 
 693   0.0000       5.357867       145.7950 
 694   0.0000       5.365566       146.0045 
 695   0.0000       5.365704       146.0082 
 696   0.0000       5.387954       146.6137 
 697   0.0000       5.387994       146.6148 
 698   0.0000       5.404734       147.0703 
 699   0.0000       5.455592       148.4542 
 700   0.0000       5.455620       148.4550 
 701   0.0000       5.455825       148.4605 
 702   0.0000       5.462430       148.6403 
 703   0.0000       5.462627       148.6456 
 704   0.0000       5.462659       148.6465 
 705   0.0000       5.579910       151.8371 
 706   0.0000       5.579914       151.8372 
 707   0.0000       5.597212       152.3079 
 708   0.0000       5.615406       152.8030 
 709   0.0000       5.621022       152.9558 
 710   0.0000       5.621034       152.9561 
 711   0.0000       5.658698       153.9810 
 712   0.0000       5.665727       154.1723 
 713   0.0000       5.665766       154.1733 
 714   0.0000       5.745864       156.3529 
 715   0.0000       5.745874       156.3532 
 716   0.0000       5.748681       156.4296 
 717   0.0000       5.754419       156.5857 
 718   0.0000       5.754433       156.5861 
 719   0.0000       5.757622       156.6729 
 720   0.0000       5.984277       162.8405 
 721   0.0000       5.984298       162.8410 
 722   0.0000       5.990895       163.0205 
 723   0.0000       6.019367       163.7953 
 724   0.0000       6.041383       164.3944 
 725   0.0000       6.041387       164.3945 
 726   0.0000       6.213293       169.0723 
 727   0.0000       6.214524       169.1058 
 728   0.0000       6.214590       169.1076 
 729   0.0000       6.327357       172.1761 
 730   0.0000       6.327470       172.1792 
 731   0.0000       6.364596       173.1895 
 732   0.0000       6.450059       175.5150 
 733   0.0000       6.458337       175.7403 
 734   0.0000       6.458356       175.7408 
 735   0.0000       6.465550       175.9366 
 736   0.0000       6.465565       175.9370 
 737   0.0000       6.472353       176.1217 
 738   0.0000       6.485860       176.4892 
 739   0.0000       6.485894       176.4902 
 740   0.0000       6.489741       176.5948 
 741   0.0000       6.522597       177.4889 
 742   0.0000       6.536770       177.8746 
 743   0.0000       6.536893       177.8779 
 744   0.0000       6.738907       183.3750 
 745   0.0000       6.738936       183.3758 
 746   0.0000       6.756410       183.8513 
 747   0.0000       6.971244       189.6972 
 748   0.0000       6.973704       189.7641 
 749   0.0000       6.974350       189.7817 
 750   0.0000       6.974355       189.7818 
 751   0.0000       6.985411       190.0827 
 752   0.0000       6.985419       190.0829 
 753   0.0000       7.262576       197.6248 
 754   0.0000       7.271168       197.8585 
 755   0.0000       7.271204       197.8595 
 756   0.0000      23.551027       640.8560 
 757   0.0000      23.551057       640.8568 
 758   0.0000      23.572326       641.4356 
 759   0.0000      23.589846       641.9124 
 760   0.0000      23.589858       641.9127 
 761   0.0000      23.705964       645.0721 
 762   0.0000      23.864646       649.3900 
 763   0.0000      23.864648       649.3901 
 764   0.0000      23.877546       649.7411 
 765   0.0000      25.617317       697.0826 
 766   0.0000      32.958636       896.8501 
 767   0.0000      33.161786       902.3781 
 768   0.0000      33.161801       902.3785 
 769   0.0000      44.327227      1206.2052 
 770   0.0000      44.459901      1209.8154 
 771   0.0000      44.459906      1209.8156 
 772   0.0000      86.067054      2342.0036 

                    ********************************
                    * MULLIKEN POPULATION ANALYSIS *
                    ********************************

-----------------------
MULLIKEN ATOMIC CHARGES
-----------------------
   0 Mo:   -1.022754
   1 C :    0.662733
   2 C :    0.662953
   3 C :    0.662620
   4 O :   -0.413166
   5 O :   -0.413307
   6 O :   -0.413287
   7 N :    0.158715
   8 N :    0.157710
   9 N :    0.159246
  10 C :   -0.134523
  11 C :   -0.133616
  12 C :   -0.132665
  13 C :   -0.129801
  14 H :    0.066188
  15 H :    0.067397
  16 H :    0.061738
  17 C :   -0.128863
  18 H :    0.066190
  19 H :    0.067256
  20 H :    0.062165
  21 C :   -0.127009
  22 H :    0.065778
  23 H :    0.066873
  24 H :    0.061429
Sum of atomic charges:   -0.0000000

--------------------------------
MULLIKEN REDUCED ORBITAL CHARGES
--------------------------------
  0 Mos       :     2.878272  s :     2.878272
      pz      :     2.424716  p :     6.961379
      px      :     2.269206
      py      :     2.267457
      dz2     :     1.283446  d :     5.087323
      dxz     :     0.789028
      dyz     :     0.788829
      dx2y2   :     1.113130
      dxy     :     1.112889
      f0      :     0.010624  f :     0.091486
      f+1     :     0.009544
      f-1     :     0.009542
      f+2     :     0.021722
      f-2     :     0.021722
      f+3     :     0.010742
      f-3     :     0.007589
      g0      :     0.000419  g :     0.004294
      g+1     :     0.000297
      g-1     :     0.000297
      g+2     :     0.000624
      g-2     :     0.000624
      g+3     :     0.000840
      g-3     :     0.000606
      g+4     :     0.000293
      g-4     :     0.000293
  1 C s       :     3.143853  s :     3.143853
      pz      :     0.678402  p :     2.075243
      px      :     0.653057
      py      :     0.743784
      dz2     :     0.026757  d :     0.101255
      dxz     :     0.011766
      dyz     :     0.012017
      dx2y2   :     0.021988
      dxy     :     0.028727
      f0      :     0.001644  f :     0.016916
      f+1     :     0.000721
      f-1     :     0.004302
      f+2     :     0.003117
      f-2     :     0.003151
      f+3     :     0.001907
      f-3     :     0.002074
  2 C s       :     3.143913  s :     3.143913
      pz      :     0.678136  p :     2.075041
      px      :     0.690960
      py      :     0.705945
      dz2     :     0.026721  d :     0.101177
      dxz     :     0.011724
      dyz     :     0.012019
      dx2y2   :     0.037855
      dxy     :     0.012857
      f0      :     0.001645  f :     0.016916
      f+1     :     0.002217
      f-1     :     0.002805
      f+2     :     0.003200
      f-2     :     0.003069
      f+3     :     0.001907
      f-3     :     0.002072
  3 C s       :     3.144374  s :     3.144374
      pz      :     0.677813  p :     2.074944
      px      :     0.751495
      py      :     0.645636
      dz2     :     0.026685  d :     0.101142
      dxz     :     0.012138
      dyz     :     0.011632
      dx2y2   :     0.016230
      dxy     :     0.034457
      f0      :     0.001647  f :     0.016920
      f+1     :     0.004597
      f-1     :     0.000427
      f+2     :     0.003087
      f-2     :     0.003184
      f+3     :     0.001906
      f-3     :     0.002071
  4 O s       :     4.018610  s :     4.018610
      pz      :     1.441939  p :     4.340932
      px      :     1.382173
      py      :     1.516819
      dz2     :     0.013507  d :     0.051987
      dxz     :     0.010987
      dyz     :     0.008017
      dx2y2   :     0.008569
      dxy     :     0.010906
      f0      :     0.000146  f :     0.001637
      f+1     :     0.000484
      f-1     :     0.000044
      f+2     :     0.000226
      f-2     :     0.000342
      f+3     :     0.000180
      f-3     :     0.000216
  5 O s       :     4.018903  s :     4.018903
      pz      :     1.442020  p :     4.340874
      px      :     1.507263
      py      :     1.391592
      dz2     :     0.013487  d :     0.051892
      dxz     :     0.008221
      dyz     :     0.010714
      dx2y2   :     0.009322
      dxy     :     0.010149
      f0      :     0.000145  f :     0.001638
      f+1     :     0.000075
      f-1     :     0.000453
      f+2     :     0.000263
      f-2     :     0.000305
      f+3     :     0.000180
      f-3     :     0.000216
  6 O s       :     4.018885  s :     4.018885
      pz      :     1.441949  p :     4.340854
      px      :     1.458984
      py      :     1.439921
      dz2     :     0.013489  d :     0.051911
      dxz     :     0.009253
      dyz     :     0.009691
      dx2y2   :     0.011324
      dxy     :     0.008153
      f0      :     0.000146  f :     0.001638
      f+1     :     0.000233
      f-1     :     0.000295
      f+2     :     0.000363
      f-2     :     0.000205
      f+3     :     0.000180
      f-3     :     0.000216
  7 N s       :     3.681971  s :     3.681971
      pz      :     1.047056  p :     3.168425
      px      :     1.068583
      py      :     1.052786
      dz2     :    -0.006490  d :    -0.011997
      dxz     :     0.001684
      dyz     :     0.000574
      dx2y2   :    -0.004983
      dxy     :    -0.002782
      f0      :     0.000193  f :     0.002886
      f+1     :     0.000442
      f-1     :     0.000560
      f+2     :     0.000652
      f-2     :     0.000258
      f+3     :     0.000340
      f-3     :     0.000440
  8 N s       :     3.683335  s :     3.683335
      pz      :     1.046506  p :     3.168198
      px      :     1.108983
      py      :     1.012709
      dz2     :    -0.006512  d :    -0.012130
      dxz     :     0.003318
      dyz     :    -0.001030
      dx2y2   :    -0.003545
      dxy     :    -0.004361
      f0      :     0.000193  f :     0.002887
      f+1     :     0.000131
      f-1     :     0.000871
      f+2     :     0.000402
      f-2     :     0.000509
      f+3     :     0.000340
      f-3     :     0.000440
  9 N s       :     3.680486  s :     3.680486
      pz      :     1.047606  p :     3.169077
      px      :     1.004704
      py      :     1.116767
      dz2     :    -0.006385  d :    -0.011694
      dxz     :    -0.001443
      dyz     :     0.003977
      dx2y2   :    -0.003200
      dxy     :    -0.004643
      f0      :     0.000193  f :     0.002885
      f+1     :     0.000930
      f-1     :     0.000072
      f+2     :     0.000312
      f-2     :     0.000599
      f+3     :     0.000340
      f-3     :     0.000440
 10 C s       :     3.098712  s :     3.098712
      pz      :     0.950841  p :     2.935276
      px      :     1.027110
      py      :     0.957325
      dz2     :     0.034673  d :     0.083551
      dxz     :    -0.003066
      dyz     :     0.013551
      dx2y2   :     0.008149
      dxy     :     0.030244
      f0      :     0.001231  f :     0.016984
      f+1     :     0.005080
      f-1     :     0.000312
      f+2     :     0.002493
      f-2     :     0.003221
      f+3     :     0.002139
      f-3     :     0.002508
 11 C s       :     3.097847  s :     3.097847
      pz      :     0.949456  p :     2.935095
      px      :     0.961698
      py      :     1.023941
      dz2     :     0.034636  d :     0.083696
      dxz     :     0.012687
      dyz     :    -0.002039
      dx2y2   :     0.012976
      dxy     :     0.025436
      f0      :     0.001228  f :     0.016977
      f+1     :     0.000671
      f-1     :     0.004717
      f+2     :     0.002717
      f-2     :     0.002994
      f+3     :     0.002140
      f-3     :     0.002510
 12 C s       :     3.097856  s :     3.097856
      pz      :     0.950084  p :     2.934209
      px      :     0.988273
      py      :     0.995852
      dz2     :     0.034584  d :     0.083619
      dxz     :     0.006119
      dyz     :     0.004488
      dx2y2   :     0.036482
      dxy     :     0.001946
      f0      :     0.001229  f :     0.016980
      f+1     :     0.002336
      f-1     :     0.003054
      f+2     :     0.003358
      f-2     :     0.002354
      f+3     :     0.002141
      f-3     :     0.002508
 13 C s       :     3.195764  s :     3.195764
      pz      :     0.964333  p :     2.879840
      px      :     0.964049
      py      :     0.951459
      dz2     :     0.019725  d :     0.051225
      dxz     :     0.003948
      dyz     :     0.005309
      dx2y2   :     0.016942
      dxy     :     0.005301
      f0      :     0.000535  f :     0.002972
      f+1     :     0.000466
      f-1     :     0.000254
      f+2     :     0.000343
      f-2     :     0.000461
      f+3     :     0.000395
      f-3     :     0.000519
 14 H s       :     0.894528  s :     0.894528
      pz      :     0.005694  p :     0.037634
      px      :     0.020977
      py      :     0.010963
      dz2     :     0.000091  d :     0.001650
      dxz     :     0.000612
      dyz     :     0.000044
      dx2y2   :     0.000363
      dxy     :     0.000541
 15 H s       :     0.894624  s :     0.894624
      pz      :     0.019383  p :     0.036331
      px      :     0.010284
      py      :     0.006665
      dz2     :     0.000391  d :     0.001648
      dxz     :     0.000503
      dyz     :     0.000631
      dx2y2   :     0.000078
      dxy     :     0.000045
 16 H s       :     0.897598  s :     0.897598
      pz      :     0.011771  p :     0.039014
      px      :     0.007424
      py      :     0.019819
      dz2     :     0.000296  d :     0.001650
      dxz     :     0.000069
      dyz     :     0.000439
      dx2y2   :     0.000273
      dxy     :     0.000574
 17 C s       :     3.193799  s :     3.193799
      pz      :     0.964376  p :     2.880814
      px      :     0.994210
      py      :     0.922228
      dz2     :     0.019761  d :     0.051278
      dxz     :     0.002497
      dyz     :     0.006723
      dx2y2   :     0.004825
      dxy     :     0.017473
      f0      :     0.000536  f :     0.002972
      f+1     :     0.000228
      f-1     :     0.000490
      f+2     :     0.000427
      f-2     :     0.000378
      f+3     :     0.000396
      f-3     :     0.000518
 18 H s       :     0.894507  s :     0.894507
      pz      :     0.005591  p :     0.037652
      px      :     0.017406
      py      :     0.014654
      dz2     :     0.000091  d :     0.001651
      dxz     :     0.000303
      dyz     :     0.000353
      dx2y2   :     0.000665
      dxy     :     0.000239
 19 H s       :     0.894750  s :     0.894750
      pz      :     0.019383  p :     0.036346
      px      :     0.003369
      py      :     0.013594
      dz2     :     0.000391  d :     0.001648
      dxz     :     0.000551
      dyz     :     0.000583
      dx2y2   :     0.000027
      dxy     :     0.000095
 20 H s       :     0.897230  s :     0.897230
      pz      :     0.011752  p :     0.038954
      px      :     0.016795
      py      :     0.010407
      dz2     :     0.000296  d :     0.001651
      dxz     :     0.000336
      dyz     :     0.000172
      dx2y2   :     0.000417
      dxy     :     0.000430
 21 C s       :     3.194291  s :     3.194291
      pz      :     0.963535  p :     2.878608
      px      :     0.915360
      py      :     0.999713
      dz2     :     0.019728  d :     0.051137
      dxz     :     0.007425
      dyz     :     0.001780
      dx2y2   :     0.011634
      dxy     :     0.010571
      f0      :     0.000535  f :     0.002973
      f+1     :     0.000385
      f-1     :     0.000336
      f+2     :     0.000437
      f-2     :     0.000367
      f+3     :     0.000395
      f-3     :     0.000518
 22 H s       :     0.895003  s :     0.895003
      pz      :     0.005654  p :     0.037570
      px      :     0.009596
      py      :     0.022320
      dz2     :     0.000090  d :     0.001649
      dxz     :     0.000069
      dyz     :     0.000587
      dx2y2   :     0.000327
      dxy     :     0.000576
 23 H s       :     0.895231  s :     0.895231
      pz      :     0.019278  p :     0.036248
      px      :     0.011850
      py      :     0.005120
      dz2     :     0.000391  d :     0.001648
      dxz     :     0.000648
      dyz     :     0.000486
      dx2y2   :     0.000079
      dxy     :     0.000044
 24 H s       :     0.897980  s :     0.897980
      pz      :     0.011741  p :     0.038940
      px      :     0.016625
      py      :     0.010575
      dz2     :     0.000296  d :     0.001650
      dxz     :     0.000358
      dyz     :     0.000150
      dx2y2   :     0.000580
      dxy     :     0.000267


                     *******************************
                     * LOEWDIN POPULATION ANALYSIS *
                     *******************************

----------------------
LOEWDIN ATOMIC CHARGES
----------------------
   0 Mo:    0.481678
   1 C :   -0.271668
   2 C :   -0.271662
   3 C :   -0.271670
   4 O :    0.028839
   5 O :    0.028852
   6 O :    0.028849
   7 N :    0.059207
   8 N :    0.059209
   9 N :    0.059177
  10 C :   -0.124513
  11 C :   -0.124490
  12 C :   -0.124495
  13 C :    0.154157
  14 H :   -0.001503
  15 H :   -0.004863
  16 H :   -0.000230
  17 C :    0.154155
  18 H :   -0.001504
  19 H :   -0.004864
  20 H :   -0.000227
  21 C :    0.154169
  22 H :   -0.001503
  23 H :   -0.004867
  24 H :   -0.000233

-------------------------------
LOEWDIN REDUCED ORBITAL CHARGES
-------------------------------
  0 Mos       :     1.864409  s :     1.864409
      pz      :     2.144968  p :     6.420564
      px      :     2.137804
      py      :     2.137792
      dz2     :     1.088974  d :     4.867734
      dxz     :     0.871266
      dyz     :     0.871399
      dx2y2   :     1.018095
      dxy     :     1.018000
      f0      :     0.041220  f :     0.342834
      f+1     :     0.033270
      f-1     :     0.033232
      f+2     :     0.085270
      f-2     :     0.085289
      f+3     :     0.039075
      f-3     :     0.025478
      g0      :     0.002705  g :     0.022781
      g+1     :     0.001231
      g-1     :     0.001232
      g+2     :     0.003253
      g-2     :     0.003253
      g+3     :     0.005155
      g-3     :     0.003237
      g+4     :     0.001358
      g-4     :     0.001358
  1 C s       :     2.951984  s :     2.951984
      pz      :     0.802609  p :     2.360287
      px      :     0.678119
      py      :     0.879559
      dz2     :     0.192410  d :     0.876598
      dxz     :     0.114705
      dyz     :     0.211636
      dx2y2   :     0.173732
      dxy     :     0.184114
      f0      :     0.008152  f :     0.082799
      f+1     :     0.003381
      f-1     :     0.020648
      f+2     :     0.016055
      f-2     :     0.015660
      f+3     :     0.009199
      f-3     :     0.009705
  2 C s       :     2.951977  s :     2.951977
      pz      :     0.802643  p :     2.360286
      px      :     0.762240
      py      :     0.795403
      dz2     :     0.192443  d :     0.876600
      dxz     :     0.155214
      dyz     :     0.171149
      dx2y2   :     0.198328
      dxy     :     0.159467
      f0      :     0.008155  f :     0.082799
      f+1     :     0.010593
      f-1     :     0.013437
      f+2     :     0.015123
      f-2     :     0.016594
      f+3     :     0.009196
      f-3     :     0.009700
  3 C s       :     2.951967  s :     2.951967
      pz      :     0.802759  p :     2.360308
      px      :     0.896056
      py      :     0.661492
      dz2     :     0.192501  d :     0.876595
      dxz     :     0.219627
      dyz     :     0.106775
      dx2y2   :     0.164612
      dxy     :     0.193079
      f0      :     0.008161  f :     0.082800
      f+1     :     0.022077
      f-1     :     0.001958
      f+2     :     0.016396
      f-2     :     0.015326
      f+3     :     0.009189
      f-3     :     0.009694
  4 O s       :     3.414328  s :     3.414328
      pz      :     1.454869  p :     4.345259
      px      :     1.506661
      py      :     1.383729
      dz2     :     0.033695  d :     0.205497
      dxz     :     0.077376
      dyz     :     0.019920
      dx2y2   :     0.041288
      dxy     :     0.033218
      f0      :     0.000628  f :     0.006077
      f+1     :     0.001469
      f-1     :     0.000117
      f+2     :     0.001563
      f-2     :     0.000999
      f+3     :     0.000673
      f-3     :     0.000628
  5 O s       :     3.414330  s :     3.414330
      pz      :     1.454791  p :     4.345259
      px      :     1.392431
      py      :     1.498037
      dz2     :     0.033671  d :     0.205483
      dxz     :     0.023976
      dyz     :     0.073285
      dx2y2   :     0.038750
      dxy     :     0.035801
      f0      :     0.000628  f :     0.006077
      f+1     :     0.000212
      f-1     :     0.001372
      f+2     :     0.001384
      f-2     :     0.001178
      f+3     :     0.000674
      f-3     :     0.000629
  6 O s       :     3.414330  s :     3.414330
      pz      :     1.454815  p :     4.345257
      px      :     1.436554
      py      :     1.453887
      dz2     :     0.033678  d :     0.205487
      dxz     :     0.044576
      dyz     :     0.052696
      dx2y2   :     0.031752
      dxy     :     0.042785
      f0      :     0.000628  f :     0.006077
      f+1     :     0.000697
      f-1     :     0.000888
      f+2     :     0.000896
      f-2     :     0.001666
      f+3     :     0.000674
      f-3     :     0.000629
  7 N s       :     3.104987  s :     3.104987
      pz      :     1.096769  p :     3.324084
      px      :     1.099473
      py      :     1.127842
      dz2     :     0.108351  d :     0.495977
      dxz     :     0.092727
      dyz     :     0.100280
      dx2y2   :     0.101795
      dxy     :     0.092823
      f0      :     0.001507  f :     0.015745
      f+1     :     0.001809
      f-1     :     0.002306
      f+2     :     0.002407
      f-2     :     0.003854
      f+3     :     0.001949
      f-3     :     0.001913
  8 N s       :     3.104992  s :     3.104992
      pz      :     1.096725  p :     3.324075
      px      :     1.026928
      py      :     1.200421
      dz2     :     0.108332  d :     0.495978
      dxz     :     0.073481
      dyz     :     0.119510
      dx2y2   :     0.096258
      dxy     :     0.098396
      f0      :     0.001507  f :     0.015745
      f+1     :     0.000507
      f-1     :     0.003607
      f+2     :     0.003325
      f-2     :     0.002935
      f+3     :     0.001950
      f-3     :     0.001913
  9 N s       :     3.104980  s :     3.104980
      pz      :     1.096857  p :     3.324121
      px      :     1.214565
      py      :     1.012699
      dz2     :     0.108382  d :     0.495977
      dxz     :     0.123287
      dyz     :     0.069747
      dx2y2   :     0.093874
      dxy     :     0.100688
      f0      :     0.001507  f :     0.015744
      f+1     :     0.003858
      f-1     :     0.000258
      f+2     :     0.003659
      f-2     :     0.002603
      f+3     :     0.001948
      f-3     :     0.001911
 10 C s       :     2.734040  s :     2.734040
      pz      :     0.861509  p :     2.608278
      px      :     0.964554
      py      :     0.782215
      dz2     :     0.151366  d :     0.719634
      dxz     :     0.193627
      dyz     :     0.068140
      dx2y2   :     0.146527
      dxy     :     0.159973
      f0      :     0.005660  f :     0.062561
      f+1     :     0.016011
      f-1     :     0.000985
      f+2     :     0.013167
      f-2     :     0.010564
      f+3     :     0.008007
      f-3     :     0.008168
 11 C s       :     2.734035  s :     2.734035
      pz      :     0.861403  p :     2.608282
      px      :     0.794944
      py      :     0.951935
      dz2     :     0.151299  d :     0.719612
      dxz     :     0.077592
      dyz     :     0.184084
      dx2y2   :     0.144141
      dxy     :     0.162497
      f0      :     0.005656  f :     0.062561
      f+1     :     0.002102
      f-1     :     0.014888
      f+2     :     0.012310
      f-2     :     0.011414
      f+3     :     0.008014
      f-3     :     0.008176
 12 C s       :     2.734036  s :     2.734036
      pz      :     0.861443  p :     2.608282
      px      :     0.860767
      py      :     0.886072
      dz2     :     0.151313  d :     0.719616
      dxz     :     0.121355
      dyz     :     0.140364
      dx2y2   :     0.169212
      dxy     :     0.137372
      f0      :     0.005657  f :     0.062561
      f+1     :     0.007381
      f-1     :     0.009611
      f+2     :     0.010112
      f-2     :     0.013615
      f+3     :     0.008013
      f-3     :     0.008172
 13 C s       :     2.645118  s :     2.645118
      pz      :     0.910510  p :     2.722220
      px      :     0.908380
      py      :     0.903330
      dz2     :     0.115159  d :     0.445569
      dxz     :     0.060150
      dyz     :     0.075796
      dx2y2   :     0.123249
      dxy     :     0.071215
      f0      :     0.004542  f :     0.032936
      f+1     :     0.005374
      f-1     :     0.002987
      f+2     :     0.004625
      f-2     :     0.006114
      f+3     :     0.003948
      f-3     :     0.005345
 14 H s       :     0.695950  s :     0.695950
      pz      :     0.072399  p :     0.276819
      px      :     0.128707
      py      :     0.075713
      dz2     :     0.002698  d :     0.028734
      dxz     :     0.008534
      dyz     :     0.000665
      dx2y2   :     0.008272
      dxy     :     0.008567
 15 H s       :     0.698659  s :     0.698659
      pz      :     0.127829  p :     0.277483
      px      :     0.077451
      py      :     0.072203
      dz2     :     0.010103  d :     0.028721
      dxz     :     0.008499
      dyz     :     0.008458
      dx2y2   :     0.000929
      dxy     :     0.000732
 16 H s       :     0.694892  s :     0.694892
      pz      :     0.080426  p :     0.276594
      px      :     0.072350
      py      :     0.123818
      dz2     :     0.004422  d :     0.028744
      dxz     :     0.001203
      dyz     :     0.008308
      dx2y2   :     0.006921
      dxy     :     0.007891
 17 C s       :     2.645117  s :     2.645117
      pz      :     0.910516  p :     2.722221
      px      :     0.923146
      py      :     0.888559
      dz2     :     0.115218  d :     0.445572
      dxz     :     0.046964
      dyz     :     0.088887
      dx2y2   :     0.069657
      dxy     :     0.124846
      f0      :     0.004545  f :     0.032935
      f+1     :     0.002792
      f-1     :     0.005563
      f+2     :     0.006338
      f-2     :     0.004404
      f+3     :     0.003954
      f-3     :     0.005339
 18 H s       :     0.695953  s :     0.695953
      pz      :     0.072400  p :     0.276818
      px      :     0.104193
      py      :     0.100225
      dz2     :     0.002699  d :     0.028734
      dxz     :     0.004649
      dyz     :     0.004547
      dx2y2   :     0.008924
      dxy     :     0.007914
 19 H s       :     0.698661  s :     0.698661
      pz      :     0.127851  p :     0.277483
      px      :     0.076314
      py      :     0.073317
      dz2     :     0.010104  d :     0.028721
      dxz     :     0.008679
      dyz     :     0.008282
      dx2y2   :     0.000580
      dxy     :     0.001075
 20 H s       :     0.694885  s :     0.694885
      pz      :     0.080414  p :     0.276598
      px      :     0.116142
      py      :     0.080042
      dz2     :     0.004420  d :     0.028744
      dxz     :     0.006760
      dyz     :     0.002748
      dx2y2   :     0.007401
      dxy     :     0.007414
 21 C s       :     2.645119  s :     2.645119
      pz      :     0.910491  p :     2.722211
      px      :     0.886037
      py      :     0.925683
      dz2     :     0.115150  d :     0.445565
      dxz     :     0.096776
      dyz     :     0.039209
      dx2y2   :     0.098839
      dxy     :     0.095591
      f0      :     0.004540  f :     0.032936
      f+1     :     0.004372
      f-1     :     0.003993
      f+2     :     0.005148
      f-2     :     0.005591
      f+3     :     0.003948
      f-3     :     0.005343
 22 H s       :     0.695950  s :     0.695950
      pz      :     0.072396  p :     0.276819
      px      :     0.073689
      py      :     0.130733
      dz2     :     0.002698  d :     0.028735
      dxz     :     0.000607
      dyz     :     0.008591
      dx2y2   :     0.008062
      dxy     :     0.008776
 23 H s       :     0.698663  s :     0.698663
      pz      :     0.127818  p :     0.277483
      px      :     0.070701
      py      :     0.078964
      dz2     :     0.010102  d :     0.028721
      dxz     :     0.008259
      dyz     :     0.008697
      dx2y2   :     0.000981
      dxy     :     0.000683
 24 H s       :     0.694895  s :     0.694895
      pz      :     0.080423  p :     0.276594
      px      :     0.105810
      py      :     0.090361
      dz2     :     0.004422  d :     0.028744
      dxz     :     0.006308
      dyz     :     0.003202
      dx2y2   :     0.007896
      dxy     :     0.006916


                      *****************************
                      * MAYER POPULATION ANALYSIS *
                      *****************************

  NA   - Mulliken gross atomic population
  ZA   - Total nuclear charge
  QA   - Mulliken gross atomic charge
  VA   - Mayer's total valence
  BVA  - Mayer's bonded valence
  FA   - Mayer's free valence

  ATOM       NA         ZA         QA         VA         BVA        FA
  0 Mo    15.0228    14.0000    -1.0228     6.8999     6.8999    -0.0000
  1 C      5.3373     6.0000     0.6627     3.2513     3.2513    -0.0000
  2 C      5.3370     6.0000     0.6630     3.2496     3.2496    -0.0000
  3 C      5.3374     6.0000     0.6626     3.2498     3.2498    -0.0000
  4 O      8.4132     8.0000    -0.4132     2.0143     2.0143    -0.0000
  5 O      8.4133     8.0000    -0.4133     2.0144     2.0144    -0.0000
  6 O      8.4133     8.0000    -0.4133     2.0143     2.0143     0.0000
  7 N      6.8413     7.0000     0.1587     3.0777     3.0777    -0.0000
  8 N      6.8423     7.0000     0.1577     3.0758     3.0758    -0.0000
  9 N      6.8408     7.0000     0.1592     3.0814     3.0814    -0.0000
 10 C      6.1345     6.0000    -0.1345     3.6934     3.6934     0.0000
 11 C      6.1336     6.0000    -0.1336     3.6943     3.6943    -0.0000
 12 C      6.1327     6.0000    -0.1327     3.6908     3.6908    -0.0000
 13 C      6.1298     6.0000    -0.1298     3.7907     3.7907    -0.0000
 14 H      0.9338     1.0000     0.0662     1.0225     1.0225    -0.0000
 15 H      0.9326     1.0000     0.0674     1.0172     1.0172    -0.0000
 16 H      0.9383     1.0000     0.0617     1.0250     1.0250     0.0000
 17 C      6.1289     6.0000    -0.1289     3.7919     3.7919    -0.0000
 18 H      0.9338     1.0000     0.0662     1.0228     1.0228    -0.0000
 19 H      0.9327     1.0000     0.0673     1.0172     1.0172    -0.0000
 20 H      0.9378     1.0000     0.0622     1.0245     1.0245    -0.0000
 21 C      6.1270     6.0000    -0.1270     3.7912     3.7912    -0.0000
 22 H      0.9342     1.0000     0.0658     1.0225     1.0225    -0.0000
 23 H      0.9331     1.0000     0.0669     1.0168     1.0168    -0.0000
 24 H      0.9386     1.0000     0.0614     1.0250     1.0250    -0.0000

  Mayer bond orders larger than 0.100000
B(  0-Mo,  1-C ) :   1.4938 B(  0-Mo,  2-C ) :   1.4934 B(  0-Mo,  3-C ) :   1.4935 
B(  0-Mo,  4-O ) :   0.1533 B(  0-Mo,  5-O ) :   0.1533 B(  0-Mo,  6-O ) :   0.1533 
B(  0-Mo,  7-N ) :   0.5488 B(  0-Mo,  8-N ) :   0.5484 B(  0-Mo,  9-N ) :   0.5512 
B(  1-C ,  5-O ) :   1.7794 B(  2-C ,  6-O ) :   1.7791 B(  3-C ,  4-O ) :   1.7792 
B(  7-N , 12-C ) :   2.6867 B(  8-N , 11-C ) :   2.6858 B(  9-N , 10-C ) :   2.6873 
B( 10-C , 21-C ) :   0.8582 B( 11-C , 17-C ) :   0.8595 B( 12-C , 13-C ) :   0.8569 
B( 13-C , 14-H ) :   0.9741 B( 13-C , 15-H ) :   0.9667 B( 13-C , 16-H ) :   0.9788 
B( 17-C , 18-H ) :   0.9741 B( 17-C , 19-H ) :   0.9663 B( 17-C , 20-H ) :   0.9780 
B( 21-C , 22-H ) :   0.9737 B( 21-C , 23-H ) :   0.9665 B( 21-C , 24-H ) :   0.9788 


-------
TIMINGS
-------

Total SCF time: 0 days 0 hours 3 min 46 sec 

Total time                  ....     226.745 sec
Sum of individual times     ....     225.863 sec  ( 99.6%)

Fock matrix formation       ....     218.713 sec  ( 96.5%)
  XC integration            ....       6.845 sec  (  3.1% of F)
    Basis function eval.    ....       0.713 sec  ( 10.4% of XC)
    Density eval.           ....       2.225 sec  ( 32.5% of XC)
    XC-Functional eval.     ....       0.123 sec  (  1.8% of XC)
    XC-Potential eval.      ....       2.781 sec  ( 40.6% of XC)
Diagonalization             ....       2.212 sec  (  1.0%)
Density matrix formation    ....       0.089 sec  (  0.0%)
Population analysis         ....       0.115 sec  (  0.1%)
Initial guess               ....       2.808 sec  (  1.2%)
Orbital Transformation      ....       0.000 sec  (  0.0%)
Orbital Orthonormalization  ....       0.000 sec  (  0.0%)
DIIS solution               ....       1.271 sec  (  0.6%)
Grid generation             ....       0.655 sec  (  0.3%)


-------------------------------------------------------------------------------
                          DFT DISPERSION CORRECTION                            
                                                                               
                              DFTD3 V3.1  Rev 1                                
                          USING Becke-Johnson damping                          
-------------------------------------------------------------------------------
The TPSSH functional is recognized
Active option DFTDOPT                   ...         4   

molecular C6(AA) [au] = 11344.973916 


            DFT-D V3
 parameters
 s6 scaling factor         :     1.0000 
 a1 scaling factor         :     0.4529 
 s8 scaling factor         :     2.2382 
 a2 scaling factor         :     4.6550 
 ad hoc parameters k1-k3   :    16.0000     1.3333    -4.0000 

 Edisp/kcal,au: -22.580880140860  -0.035984919217 
 E6   /kcal   :  -9.789185809 
 E8   /kcal   : -12.791694332 
 % E8         :  56.648342546 

-------------------------   ----------------
Dispersion correction           -0.035984919
-------------------------   ----------------


-------------------------   --------------------
FINAL SINGLE POINT ENERGY      -806.982098173557
-------------------------   --------------------


                            ***************************************
                            *     ORCA property calculations      *
                            ***************************************

                                    ---------------------
                                    Active property flags
                                    ---------------------
   (+) Dipole Moment


------------------------------------------------------------------------------
                       ORCA ELECTRIC PROPERTIES CALCULATION
------------------------------------------------------------------------------

Dipole Moment Calculation                       ... on
Quadrupole Moment Calculation                   ... off
Polarizability Calculation                      ... off
GBWName                                         ... MOR36_pr37.gbw
Electron density file                           ... MOR36_pr37.scfp
The origin for moment calculation is the CENTER OF MASS  = ( 0.000037, -0.000023 -0.170139)

-------------
DIPOLE MOMENT
-------------
                                X             Y             Z
Electronic contribution:      0.00907      -0.00587     -40.64339
Nuclear contribution   :     -0.01011       0.00649      45.69854
                        -----------------------------------------
Total Dipole Moment    :     -0.00104       0.00062       5.05515
                        -----------------------------------------
Magnitude (a.u.)       :      5.05515
Magnitude (Debye)      :     12.84918



--------------------
Rotational spectrum 
--------------------
 
Rotational constants in cm-1:     0.011429     0.011429     0.011227 
Rotational constants in MHz :   342.640201   342.631727   336.586559 

 Dipole components along the rotational axes: 
x,y,z [a.u.] :     0.001770     0.001078     5.055152 
x,y,z [Debye]:     0.004499     0.002739    12.849174 

 

Timings for individual modules:

Sum of individual times         ...      230.586 sec (=   3.843 min)
GTO integral calculation        ...        3.248 sec (=   0.054 min)   1.4 %
SCF iterations                  ...      227.337 sec (=   3.789 min)  98.6 %
                             ****ORCA TERMINATED NORMALLY****
TOTAL RUN TIME: 0 days 0 hours 3 minutes 51 seconds 354 msec
