
                                 *****************
                                 * O   R   C   A *
                                 *****************

           --- An Ab Initio, DFT and Semiempirical electronic structure package ---

                  #######################################################
                  #                        -***-                        #
                  #          Department of theory and spectroscopy      #
                  #               Directorship: Frank Neese             #
                  #        Max Planck Institute fuer Kohlenforschung    #
                  #                Kaiser Wilhelm Platz 1               #
                  #                 D-45470 Muelheim/Ruhr               #
                  #                      Germany                        #
                  #                                                     #
                  #                  All rights reserved                #
                  #                        -***-                        #
                  #######################################################


                         Program Version 4.2.0 -  RELEASE  -


 With contributions from (in alphabetic order):
   Daniel Aravena         : Magnetic Suceptibility
   Michael Atanasov       : Ab Initio Ligand Field Theory (pilot matlab implementation)
   Alexander A. Auer      : GIAO ZORA, VPT2
   Ute Becker             : Parallelization
   Giovanni Bistoni       : ED, misc. LED, open-shell LED, HFLED
   Martin Brehm           : Molecular dynamics
   Dmytro Bykov           : SCF Hessian
   Vijay G. Chilkuri      : MRCI spin determinant printing, contributions to CSF-ICE
   Dipayan Datta          : RHF DLPNO-CCSD density
   Achintya Kumar Dutta   : EOM-CC, STEOM-CC
   Dmitry Ganyushin       : Spin-Orbit,Spin-Spin,Magnetic field MRCI
   Miquel Garcia          : C-PCM Hessian, Gaussian charge scheme
   Yang Guo               : DLPNO-NEVPT2, CIM, IAO-localization
   Andreas Hansen         : Spin unrestricted coupled pair/coupled cluster methods
   Benjamin Helmich-Paris : CASSCF linear response (MC-RPA)
   Lee Huntington         : MR-EOM, pCC
   Robert Izsak           : Overlap fitted RIJCOSX, COSX-SCS-MP3, EOM
   Christian Kollmar      : KDIIS, OOCD, Brueckner-CCSD(T), CCSD density
   Simone Kossmann        : Meta GGA functionals, TD-DFT gradient, OOMP2, MP2 Hessian
   Martin Krupicka        : AUTO-CI
   Lucas Lang             : DCDCAS
   Dagmar Lenk            : GEPOL surface, SMD
   Dimitrios Liakos       : Extrapolation schemes; Compound Job, initial MDCI parallelization
   Dimitrios Manganas     : Further ROCIS development; embedding schemes
   Dimitrios Pantazis     : SARC Basis sets
   Taras Petrenko         : DFT Hessian,TD-DFT gradient, ASA, ECA, R-Raman, ABS, FL, XAS/XES, NRVS
   Peter Pinski           : DLPNO-MP2, DLPNO-MP2 Gradient
   Christoph Reimann      : Effective Core Potentials
   Marius Retegan         : Local ZFS, SOC
   Christoph Riplinger    : Optimizer, TS searches, QM/MM, DLPNO-CCSD(T), (RO)-DLPNO pert. Triples
   Tobias Risthaus        : Range-separated hybrids, TD-DFT gradient, RPA, STAB
   Michael Roemelt        : Original ROCIS implementation
   Masaaki Saitow         : Open-shell DLPNO-CCSD energy and density
   Barbara Sandhoefer     : DKH picture change effects
   Avijit Sen             : IP-ROCIS
   Kantharuban Sivalingam : CASSCF convergence, NEVPT2, FIC-MRCI
   Bernardo de Souza      : ESD, SOC TD-DFT
   Georgi Stoychev        : AutoAux, RI-MP2 NMR
   Willem Van den Heuvel  : Paramagnetic NMR
   Boris Wezisla          : Elementary symmetry handling
   Frank Wennmohs         : Technical directorship


 We gratefully acknowledge several colleagues who have allowed us to
 interface, adapt or use parts of their codes:
   Stefan Grimme, W. Hujo, H. Kruse,             : VdW corrections, initial TS optimization,
                  C. Bannwarth                     DFT functionals, gCP, sTDA/sTD-DF
   Ed Valeev, F. Pavosevic, A. Kumar             : LibInt (2-el integral package), F12 methods
   Garnet Chan, S. Sharma, J. Yang, R. Olivares  : DMRG
   Ulf Ekstrom                                   : XCFun DFT Library
   Mihaly Kallay                                 : mrcc  (arbitrary order and MRCC methods)
   Andreas Klamt, Michael Diedenhofen            : otool_cosmo (COSMO solvation model)
   Jiri Pittner, Ondrej Demel                    : Mk-CCSD
   Frank Weinhold                                : gennbo (NPA and NBO analysis)
   Christopher J. Cramer and Donald G. Truhlar   : smd solvation model
   Lars Goerigk                                  : TD-DFT with DH, B97 family of functionals
   V. Asgeirsson, H. Jonsson                     : NEB implementation
   FAccTs GmbH                                   : IRC, NEB, NEB-TS, Multilevel, MM, QM/MM, CI optimization
   S Lehtola, MJT Oliveira, MAL Marques          : LibXC Library


 Your calculation uses the libint2 library for the computation of 2-el integrals
 For citations please refer to: http://libint.valeyev.net

 Your ORCA version has been built with support for libXC version: 4.2.3
 For citations please refer to: https://tddft.org/programs/libxc/

 This ORCA versions uses:
   CBLAS   interface :  Fast vector & matrix operations
   LAPACKE interface :  Fast linear algebra routines
   SCALAPACK package :  Parallel linear algebra routines


Your calculation utilizes the atom-pairwise dispersion correction
with the Becke-Johnson damping scheme (D3BJ)
Cite in your paper:
S.Grimme, S.Ehrlich, L.Goerigk, J Comput Chem, (2011), 32, 1456–1465 
S.Grimme, J.Antony, S.Ehrlich and H.Krieg, J.Chem.Phys., 132, (2010), 154104 
   

----- Orbital basis set information -----
Your calculation utilizes the basis: def2-TZVPPD
   F. Weigend and R. Ahlrichs, Phys. Chem. Chem. Phys. 7, 3297 (2005).
   D. Rappoport and F. Furche, J. Chem. Phys. 133 134105 (2010).

----- AuxJK basis set information -----
Your calculation utilizes the auxiliary basis: def2/JK
   H-Ba, Hf-Rn: F. Weigend, J. Comput. Chem. 29, 167 (2008).

cite the ECPs for Zr [Def2-ECP] as follows:
Ce-Yb(ecp-28): M. Dolg, H. Stoll, H.Preuss, J. Chem. Phys., 1989, 90, 1730-1734.
Y-Cd(ecp-28), Hf-Hg(ecp-46): D. Andrae,U. Haeussermann, M. Dolg, H. Stoll, H. Preuss, Theor. Chim. Acta, 1990, 77, 123-141.
In-Sb(ecp-28), Tl-Bi(ecp-46): B. Metz, H. Stoll, M. Dolg, J. Chem. Phys., 2000, 113, 2563-2569.
Te-Xe(ecp-28), Po-Rn(ecp-46): K. A. Peterson, D. Figgen, E. Goll, H. Stoll, M. Dolg, J. Chem. Phys., 2003, 119, 11113-11123.
Rb(ecp-28), Cs(ecp-46): T. Leininger, A. Nicklass, W. Kuechle, H. Stoll, M. Dolg, A. Bergner, Chem. Phys. Lett., 1996, 255, 274-280.
Sr(ecp-28), Ba(ecp-46): M. Kaupp, P. V. Schleyer, H. Stoll and H. Preuss, J. Chem. Phys., 1991, 94, 1360-1366.
La(ecp-46): M. Dolg, H. Stoll, A. Savin, H. Preuss, Theor. Chim. Acta, 1989, 75, 173-194.
Lu(ecp-28): X. Cao, M. Dolg, J. Chem. Phys., 2001, 115, 7348-7355.

ECP parameters for Zr [Def2-ECP] have been obtained from:
TURBOMOLE (7.0.2)

================================================================================
                                        WARNINGS
                       Please study these warnings very carefully!
================================================================================


INFO   : the flag for use of LIBINT has been found!

================================================================================
                                       INPUT FILE
================================================================================
NAME = TMB01_R1.in
|  1> #
|  2> # TMB01_R1 TPSSh-D3BJ/Def2-TZVPPD
|  3> #
|  4> ! tpssh d3bj def2-tzvppd def2/jk grid4 nofinalgrid
|  5> 
|  6> *xyz 0 1
|  7> Zr      -0.000671    0.112924   -0.223454 
|  8> C       -2.181938   -0.834851   -1.042825 
|  9> C       -1.643164   -1.771750   -0.135830 
| 10> C       -2.502306    0.332733   -0.316676 
| 11> H       -1.308937   -2.768103   -0.380464 
| 12> C       -1.636664   -1.184419    1.151214 
| 13> H       -2.895434    1.248967   -0.729119 
| 14> C       -2.175001    0.113493    1.036510 
| 15> H       -1.306352   -1.655857    2.064126 
| 16> H       -2.282924    0.831022    1.835850 
| 17> C        1.600796   -1.794999   -0.006343 
| 18> C        2.125532   -0.971960   -1.023204 
| 19> C        1.653632   -1.076274    1.213076 
| 20> H        2.228565   -1.232630   -2.063673 
| 21> C        2.505388    0.254502   -0.432287 
| 22> H        1.350619   -1.442345    2.182051 
| 23> C        2.228391    0.183709    0.945544 
| 24> H        2.903936    1.111956   -0.952399 
| 25> H        2.382975    0.976423    1.661482 
| 26> Cl       0.011968    2.512474    0.074703 
| 27> H       -0.001250   -0.010619   -2.053074 
| 28> H       -2.330784   -0.986753   -2.099038 
| 29> H        1.234974   -2.802168   -0.132604 
| 30> *
| 31> 
| 32> %maxcore 5000
| 33> 
| 34> %pal
| 35> nprocs = 24
| 36> end
| 37> 
| 38> 
| 39>                          ****END OF INPUT****
================================================================================

                       ****************************
                       * Single Point Calculation *
                       ****************************

---------------------------------
CARTESIAN COORDINATES (ANGSTROEM)
---------------------------------
  Zr    -0.000671    0.112924   -0.223454
  C     -2.181938   -0.834851   -1.042825
  C     -1.643164   -1.771750   -0.135830
  C     -2.502306    0.332733   -0.316676
  H     -1.308937   -2.768103   -0.380464
  C     -1.636664   -1.184419    1.151214
  H     -2.895434    1.248967   -0.729119
  C     -2.175001    0.113493    1.036510
  H     -1.306352   -1.655857    2.064126
  H     -2.282924    0.831022    1.835850
  C      1.600796   -1.794999   -0.006343
  C      2.125532   -0.971960   -1.023204
  C      1.653632   -1.076274    1.213076
  H      2.228565   -1.232630   -2.063673
  C      2.505388    0.254502   -0.432287
  H      1.350619   -1.442345    2.182051
  C      2.228391    0.183709    0.945544
  H      2.903936    1.111956   -0.952399
  H      2.382975    0.976423    1.661482
  Cl     0.011968    2.512474    0.074703
  H     -0.001250   -0.010619   -2.053074
  H     -2.330784   -0.986753   -2.099038
  H      1.234974   -2.802168   -0.132604

----------------------------
CARTESIAN COORDINATES (A.U.)
----------------------------
  NO LB      ZA    FRAG     MASS         X           Y           Z
   0 Zr   12.0000*   0    91.220   -0.001268    0.213395   -0.422267
   1 C     6.0000    0    12.011   -4.123265   -1.577640   -1.970654
   2 C     6.0000    0    12.011   -3.105130   -3.348122   -0.256682
   3 C     6.0000    0    12.011   -4.728673    0.628774   -0.598431
   4 H     1.0000    0     1.008   -2.473532   -5.230957   -0.718973
   5 C     6.0000    0    12.011   -3.092847   -2.238228    2.175479
   6 H     1.0000    0     1.008   -5.471577    2.360206   -1.377835
   7 C     6.0000    0    12.011   -4.110156    0.214471    1.958720
   8 H     1.0000    0     1.008   -2.468648   -3.129116    3.900633
   9 H     1.0000    0     1.008   -4.314101    1.570404    3.469254
  10 C     6.0000    0    12.011    3.025066   -3.392057   -0.011987
  11 C     6.0000    0    12.011    4.016673   -1.836738   -1.933575
  12 C     6.0000    0    12.011    3.124912   -2.033863    2.292381
  13 H     1.0000    0     1.008    4.211378   -2.329333   -3.899777
  14 C     6.0000    0    12.011    4.734497    0.480939   -0.816904
  15 H     1.0000    0     1.008    2.552300   -2.725637    4.123479
  16 C     6.0000    0    12.011    4.211049    0.347160    1.786819
  17 H     1.0000    0     1.008    5.487644    2.101292   -1.799773
  18 H     1.0000    0     1.008    4.503170    1.845172    3.139746
  19 Cl   17.0000    0    35.453    0.022616    4.747888    0.141168
  20 H     1.0000    0     1.008   -0.002362   -0.020067   -3.879748
  21 H     1.0000    0     1.008   -4.404543   -1.864693   -3.966607
  22 H     1.0000    0     1.008    2.333763   -5.295330   -0.250585
* core charge reduced due to ECP

--------------------------------
INTERNAL COORDINATES (ANGSTROEM)
--------------------------------
 Zr     0   0   0     0.000000000000     0.00000000     0.00000000
 C      1   0   0     2.515466559419     0.00000000     0.00000000
 C      2   1   0     1.410920653085    73.12247516     0.00000000
 C      2   1   3     1.411800418856    73.59840866   114.94503470
 H      3   2   1     1.079014727469   125.85250426   245.37267947
 C      3   2   1     1.414737506217   108.11325565    66.23793646
 H      4   2   1     1.078954862536   126.04072486   111.68690894
 C      4   2   1     1.409364073340   108.20939605   293.76875367
 H      6   3   2     1.079244237850   126.12795999   178.46472239
 H      8   4   2     1.079555313715   125.75431252   178.45751450
 C      1   2   3     2.500400750348   107.22796614    37.91257856
 C     11   1   2     1.409520258293    74.35024165   114.93379122
 C     11   1   2     1.416453305295    73.22968211   229.87141530
 H     12  11   1     1.077562243191   126.22323460   245.56044773
 C     12  11   1     1.413393971640   107.76560677    66.10921066
 H     13  11   1     1.079230005993   126.18261805   115.05657889
 C     15  12  11     1.407180603696   108.22840952     0.56700398
 H     15  12  11     1.079159099931   125.96041597   182.70881656
 H     17  15  12     1.079286300615   125.75809091   181.83498265
 Cl     1   2   3     2.418035885480   114.74596236   216.43021223
 H      1   2   3     1.833786397727    69.47288006   123.52537725
 H      2   1   3     1.077411365584   119.48808811   237.59279035
 H     11   1   2     1.078961060635   119.00971341   352.14516703

---------------------------
INTERNAL COORDINATES (A.U.)
---------------------------
 Zr     0   0   0     0.000000000000     0.00000000     0.00000000
 C      1   0   0     4.753542896339     0.00000000     0.00000000
 C      2   1   0     2.666253631024    73.12247516     0.00000000
 C      2   1   3     2.667916147392    73.59840866   114.94503470
 H      3   2   1     2.039042329383   125.85250426   245.37267947
 C      3   2   1     2.673466438137   108.11325565    66.23793646
 H      4   2   1     2.038929201055   126.04072486   111.68690894
 C      4   2   1     2.663312121600   108.20939605   293.76875367
 H      6   3   2     2.039476041149   126.12795999   178.46472239
 H      8   4   2     2.040063889341   125.75431252   178.45751450
 C      1   2   3     4.725072643208   107.22796614    37.91257856
 C     11   1   2     2.663607268387    74.35024165   114.93379122
 C     11   1   2     2.676708828496    73.22968211   229.87141530
 H     12  11   1     2.036297531884   126.22323460   245.56044773
 C     12  11   1     2.670927525735   107.76560677    66.10921066
 H     13  11   1     2.039449146836   126.18261805   115.05657889
 C     15  12  11     2.659185961952   108.22840952     0.56700398
 H     15  12  11     2.039315153799   125.96041597   182.70881656
 H     17  15  12     2.039555528256   125.75809091   181.83498265
 Cl     1   2   3     4.569425605551   114.74596236   216.43021223
 H      1   2   3     3.465354079815    69.47288006   123.52537725
 H      2   1   3     2.036012414527   119.48808811   237.59279035
 H     11   1   2     2.038940913765   119.00971341   352.14516703

---------------------
BASIS SET INFORMATION
---------------------
There are 4 groups of distinct atoms

 Group   1 Type Zr  : 7s7p5d2f1g contracted to 6s4p3d2f1g pattern {211111/4111/311/11/1}
 Group   2 Type C   : 12s6p3d1f contracted to 6s3p3d1f pattern {621111/411/111/1}
 Group   3 Type H   : 5s3p1d contracted to 3s3p1d pattern {311/111/1}
 Group   4 Type Cl  : 15s10p4d1f contracted to 6s6p4d1f pattern {732111/511111/1111/1}

Atom   0Zr   basis set group =>   1
Atom   1C    basis set group =>   2
Atom   2C    basis set group =>   2
Atom   3C    basis set group =>   2
Atom   4H    basis set group =>   3
Atom   5C    basis set group =>   2
Atom   6H    basis set group =>   3
Atom   7C    basis set group =>   2
Atom   8H    basis set group =>   3
Atom   9H    basis set group =>   3
Atom  10C    basis set group =>   2
Atom  11C    basis set group =>   2
Atom  12C    basis set group =>   2
Atom  13H    basis set group =>   3
Atom  14C    basis set group =>   2
Atom  15H    basis set group =>   3
Atom  16C    basis set group =>   2
Atom  17H    basis set group =>   3
Atom  18H    basis set group =>   3
Atom  19Cl   basis set group =>   4
Atom  20H    basis set group =>   3
Atom  21H    basis set group =>   3
Atom  22H    basis set group =>   3
----------------------------------
AUXILIARY/JK BASIS SET INFORMATION
----------------------------------
There are 4 groups of distinct atoms

 Group   1 Type Zr  : 13s12p10d9f6g3h2i contracted to 11s10p9d8f6g3h2i pattern {31111111111/3111111111/211111111/21111111/111111/111/11}
 Group   2 Type C   : 14s10p6d2f1g contracted to 10s8p5d1f1g pattern {5111111111/31111111/21111/2/1}
 Group   3 Type H   : 4s2p2d contracted to 2s2p2d pattern {31/11/11}
 Group   4 Type Cl  : 16s12p10d4f1g contracted to 13s11p9d4f1g pattern {4111111111111/21111111111/211111111/1111/1}

Atom   0Zr   basis set group =>   1
Atom   1C    basis set group =>   2
Atom   2C    basis set group =>   2
Atom   3C    basis set group =>   2
Atom   4H    basis set group =>   3
Atom   5C    basis set group =>   2
Atom   6H    basis set group =>   3
Atom   7C    basis set group =>   2
Atom   8H    basis set group =>   3
Atom   9H    basis set group =>   3
Atom  10C    basis set group =>   2
Atom  11C    basis set group =>   2
Atom  12C    basis set group =>   2
Atom  13H    basis set group =>   3
Atom  14C    basis set group =>   2
Atom  15H    basis set group =>   3
Atom  16C    basis set group =>   2
Atom  17H    basis set group =>   3
Atom  18H    basis set group =>   3
Atom  19Cl   basis set group =>   4
Atom  20H    basis set group =>   3
Atom  21H    basis set group =>   3
Atom  22H    basis set group =>   3
-------------------------
ECP PARAMETER INFORMATION
-------------------------

 Group 1, Type Zr ECP Def2-ECP (replacing 28 core electrons, lmax=3)

Atom   0Zr   ECP group =>   1



           ************************************************************
           *        Program running with 24 parallel MPI-processes    *
           *              working on a common directory               *
           ************************************************************
------------------------------------------------------------------------------
                           ORCA GTO INTEGRAL CALCULATION
------------------------------------------------------------------------------

                         BASIS SET STATISTICS AND STARTUP INFO

 # of primitive gaussian shells          ...  371
 # of primitive gaussian functions       ...  877
 # of contracted shells                  ...  240
 # of contracted basis functions         ...  664
 Highest angular momentum                ...    4
 Maximum contraction depth               ...    7
 Integral package used                   ... LIBINT
 Integral threshhold            Thresh   ...  1.000e-10
 Primitive cut-off              TCut     ...  1.000e-11


------------------------------ INTEGRAL EVALUATION ----------------------------


 * One electron integrals 

   ECP integrals                         ... done
 Pre-screening matrix                    ... done
 Shell pair data                         ... done (   0.007 sec)



           ************************************************************
           *        Program running with 24 parallel MPI-processes    *
           *              working on a common directory               *
           ************************************************************
-------------------------------------------------------------------------------
                                 ORCA SCF
-------------------------------------------------------------------------------

------------
SCF SETTINGS
------------
Hamiltonian:
 Density Functional     Method          .... DFT(GTOs)
 Exchange Functional    Exchange        .... TPSS
 Correlation Functional Correlation     .... TPSS
 LDA part of GGA corr.  LDAOpt          .... PW91-LDA
 Gradients option       PostSCFGGA      .... off
 Hybrid DFT is turned on
   Fraction HF Exchange ScalHFX         ....  0.100000
   Scaling of DF-GGA-X  ScalDFX         ....  0.900000
   Scaling of DF-GGA-C  ScalDFC         ....  1.000000
   Scaling of DF-LDA-C  ScalLDAC        ....  1.000000
   Perturbative correction              ....  0.000000
   Density functional embedding theory  .... OFF
   NL short-range parameter             ....  5.200000


General Settings:
 Integral files         IntName         .... TMB01_R1
 Hartree-Fock type      HFTyp           .... RHF
 Total Charge           Charge          ....    0
 Multiplicity           Mult            ....    1
 Number of Electrons    NEL             ....  100
 Basis Dimension        Dim             ....  664
 Nuclear Repulsion      ENuc            ....    842.2257055069 Eh

Convergence Acceleration:
 DIIS                   CNVDIIS         .... on
   Start iteration      DIISMaxIt       ....    12
   Startup error        DIISStart       ....  0.200000
   # of expansion vecs  DIISMaxEq       ....     5
   Bias factor          DIISBfac        ....   1.050
   Max. coefficient     DIISMaxC        ....  10.000
 Newton-Raphson         CNVNR           .... off
 SOSCF                  CNVSOSCF        .... off
 Level Shifting         CNVShift        .... on
   Level shift para.    LevelShift      ....    0.2500
   Turn off err/grad.   ShiftErr        ....    0.0010
 Zerner damping         CNVZerner       .... off
 Static damping         CNVDamp         .... on
   Fraction old density DampFac         ....    0.7000
   Max. Damping (<1)    DampMax         ....    0.9800
   Min. Damping (>=0)   DampMin         ....    0.0000
   Turn off err/grad.   DampErr         ....    0.1000
 Fernandez-Rico         CNVRico         .... off

SCF Procedure:
 Maximum # iterations   MaxIter         ....   125
 SCF integral mode      SCFMode         .... Direct
   Integral package                     .... LIBINT
 Reset frequency        DirectResetFreq ....    20
 Integral Threshold     Thresh          ....  1.000e-10 Eh
 Primitive CutOff       TCut            ....  1.000e-11 Eh

Convergence Tolerance:
 Convergence Check Mode ConvCheckMode   .... Total+1el-Energy
 Convergence forced     ConvForced      .... 0
 Energy Change          TolE            ....  1.000e-06 Eh
 1-El. energy change                    ....  1.000e-03 Eh
 DIIS Error             TolErr          ....  1.000e-06


Diagonalization of the overlap matrix:
Smallest eigenvalue                        ... 8.497e-07
Time for diagonalization                   ...    0.081 sec
Threshold for overlap eigenvalues          ... 1.000e-08
Number of eigenvalues below threshold      ... 0
Time for construction of square roots      ...    0.059 sec
Total time needed                          ...    0.143 sec

-------------------
DFT GRID GENERATION
-------------------

General Integration Accuracy     IntAcc      ...  4.670
Radial Grid Type                 RadialGrid  ... Gauss-Chebyshev
Angular Grid (max. acc.)         AngularGrid ... Lebedev-302
Angular grid pruning method      GridPruning ... 3 (G Style)
Weight generation scheme         WeightScheme... Becke
Basis function cutoff            BFCut       ...    1.0000e-10
Integration weight cutoff        WCut        ...    1.0000e-14
Grids for H and He will be reduced by one unit

# of grid points (after initial pruning)     ... 116874 (   0.0 sec)
# of grid points (after weights+screening)   ... 103126 (   0.1 sec)
nearest neighbour list constructed           ...    0.0 sec
Grid point re-assignment to atoms done       ...    0.0 sec
Grid point division into batches done        ...    0.3 sec
Reduced shell lists constructed in    0.4 sec

Total number of grid points                  ...   103126
Total number of batches                      ...     1623
Average number of points per batch           ...       63
Average number of grid points per atom       ...     4484
Average number of shells per batch           ...   186.09 (77.54%)
Average number of basis functions per batch  ...   541.57 (81.56%)
Average number of large shells per batch     ...   151.90 (81.63%)
Average number of large basis fcns per batch ...   433.23 (80.00%)
Maximum spatial batch extension              ...   1.99,  2.06,  1.83 au
Average spatial batch extension              ...   0.05,  0.05,  0.05 au

Time for grid setup =    0.541 sec

------------------------------
INITIAL GUESS: MODEL POTENTIAL
------------------------------
Loading Hartree-Fock densities                     ... done
  calling /sw/apps/orca/orca_4_2_0_linux_x86-64_openmpi314/orca TMB01_R1_atom40.inp > TMB01_R1_atom40.out in order to generate an atomic fitting density for atom 0 (Zr with ECP) on-the-fly... 
    atom 0 (Zr), assumed electronic state with S=3: 1s2 2s2 2p6 3s2 3p6 4s2 3d10 4p6 4d2 5s2           ... done
Calculating cut-offs                               ... done
Setting up the integral package                    ... done
Initializing the effective Hamiltonian             ... done
Starting the Coulomb interaction                   ... done (   0.1 sec)
Reading the grid                                   ... done
Mapping shells                                     ... done
Starting the XC term evaluation                    ... done (   0.3 sec)
  promolecular density results
     # of electrons  =    127.994734097
     EX              =   -192.070980502
     EC              =     -5.056451629
     EX+EC           =   -197.127432131
Transforming the Hamiltonian                       ... done (   0.0 sec)
Diagonalizing the Hamiltonian                      ... done (   0.1 sec)
Back transforming the eigenvectors                 ... done (   0.0 sec)
Now organizing SCF variables                       ... done
                      ------------------
                      INITIAL GUESS DONE (   3.2 sec)
                      ------------------
--------------
SCF ITERATIONS
--------------
ITER       Energy         Delta-E        Max-DP      RMS-DP      [F,P]     Damp
               ***  Starting incremental Fock matrix formation  ***
  0   -892.4104462505   0.000000000000 2.65281512  0.02322189  0.9843528 0.7000
  1   -893.8915584554  -1.481112204952 1.36670503  0.00823458  0.3224296 0.7000
                               ***Turning on DIIS***
  2   -894.2268995319  -0.335341076538 0.76202718  0.00695907  0.1555242 0.7000
  3   -894.5160487832  -0.289149251267 0.88407295  0.00664854  0.1373157 0.7000
  4   -894.7483875510  -0.232338767777 0.68136589  0.00502035  0.1009453 0.7000
  5   -894.9117440179  -0.163356466935 1.64848270  0.01214554  0.0712083 0.0000
  6   -895.2866668841  -0.374922866213 0.04645545  0.00059112  0.0085323 0.0000
  7   -895.2878759285  -0.001209044319 0.02285355  0.00024167  0.0030882 0.0000
  8   -895.2880408118  -0.000164883382 0.01395700  0.00011747  0.0015903 0.0000
  9   -895.2880879453  -0.000047133434 0.01881495  0.00015037  0.0008025 0.0000
 10   -895.2881034728  -0.000015527582 0.00406977  0.00003907  0.0007889 0.0000
 11   -895.2881049644  -0.000001491571 0.00596561  0.00003733  0.0002826 0.0000
                 **** Energy Check signals convergence ****

               *****************************************************
               *                     SUCCESS                       *
               *           SCF CONVERGED AFTER  12 CYCLES          *
               *****************************************************


----------------
TOTAL SCF ENERGY
----------------

Total Energy       :         -895.28810524 Eh          -24362.02789 eV

Components:
Nuclear Repulsion  :          842.22570551 Eh           22918.12658 eV
Electronic Energy  :        -1737.51381075 Eh          -47280.15447 eV
One Electron Energy:        -2910.61629278 Eh          -79201.89587 eV
Two Electron Energy:         1173.10248202 Eh           31921.74141 eV

Virial components:
Potential Energy   :        -1756.19083543 Eh          -47788.38215 eV
Kinetic Energy     :          860.90273018 Eh           23426.35426 eV
Virial Ratio       :            2.03994107


DFT components:
N(Alpha)           :       50.000015864068 electrons
N(Beta)            :       50.000015864068 electrons
N(Total)           :      100.000031728137 electrons
E(X)               :      -80.447024946052 Eh       
E(C)               :       -3.509167496893 Eh       
E(XC)              :      -83.956192442946 Eh       
DFET-embed. en.    :        0.000000000000 Eh       

---------------
SCF CONVERGENCE
---------------

  Last Energy change         ...   -2.8004e-07  Tolerance :   1.0000e-06
  Last MAX-Density change    ...    8.7427e-03  Tolerance :   1.0000e-05
  Last RMS-Density change    ...    6.9222e-05  Tolerance :   1.0000e-06
  Last DIIS Error            ...    4.3514e-05  Tolerance :   1.0000e-06

             **** THE GBW FILE WAS UPDATED (TMB01_R1.gbw) ****
             **** DENSITY FILE WAS UPDATED (TMB01_R1.scfp) ****
             **** ENERGY FILE WAS UPDATED (TMB01_R1.en.tmp) ****
             **** THE GBW FILE WAS UPDATED (TMB01_R1.gbw) ****
             **** DENSITY FILE WAS UPDATED (TMB01_R1.scfp) ****
----------------
ORBITAL ENERGIES
----------------

  NO   OCC          E(Eh)            E(eV) 
   0   2.0000    -101.323432     -2757.1508 
   1   2.0000     -10.134528      -275.7745 
   2   2.0000     -10.134014      -275.7605 
   3   2.0000     -10.132583      -275.7216 
   4   2.0000     -10.132463      -275.7183 
   5   2.0000     -10.132253      -275.7126 
   6   2.0000     -10.131837      -275.7013 
   7   2.0000     -10.131298      -275.6866 
   8   2.0000     -10.130996      -275.6784 
   9   2.0000     -10.127079      -275.5718 
  10   2.0000     -10.126846      -275.5655 
  11   2.0000      -9.325911      -253.7709 
  12   2.0000      -7.068536      -192.3447 
  13   2.0000      -7.067720      -192.3224 
  14   2.0000      -7.066235      -192.2820 
  15   2.0000      -2.077752       -56.5385 
  16   2.0000      -1.228920       -33.4406 
  17   2.0000      -1.226628       -33.3782 
  18   2.0000      -1.217522       -33.1305 
  19   2.0000      -0.877951       -23.8903 
  20   2.0000      -0.867890       -23.6165 
  21   2.0000      -0.737926       -20.0800 
  22   2.0000      -0.708008       -19.2659 
  23   2.0000      -0.707101       -19.2412 
  24   2.0000      -0.706042       -19.2124 
  25   2.0000      -0.703106       -19.1325 
  26   2.0000      -0.546951       -14.8833 
  27   2.0000      -0.542366       -14.7585 
  28   2.0000      -0.539030       -14.6677 
  29   2.0000      -0.538207       -14.6453 
  30   2.0000      -0.529881       -14.4188 
  31   2.0000      -0.523319       -14.2402 
  32   2.0000      -0.411104       -11.1867 
  33   2.0000      -0.397158       -10.8072 
  34   2.0000      -0.396622       -10.7926 
  35   2.0000      -0.394672       -10.7396 
  36   2.0000      -0.393795       -10.7157 
  37   2.0000      -0.378633       -10.3031 
  38   2.0000      -0.377162       -10.2631 
  39   2.0000      -0.376607       -10.2480 
  40   2.0000      -0.374117       -10.1803 
  41   2.0000      -0.373484       -10.1630 
  42   2.0000      -0.311826        -8.4852 
  43   2.0000      -0.295352        -8.0369 
  44   2.0000      -0.286712        -7.8018 
  45   2.0000      -0.268096        -7.2953 
  46   2.0000      -0.262418        -7.1408 
  47   2.0000      -0.261266        -7.1094 
  48   2.0000      -0.244152        -6.6437 
  49   2.0000      -0.233406        -6.3513 
  50   0.0000      -0.073751        -2.0069 
  51   0.0000      -0.023808        -0.6478 
  52   0.0000      -0.015325        -0.4170 
  53   0.0000      -0.006170        -0.1679 
  54   0.0000      -0.003399        -0.0925 
  55   0.0000       0.008030         0.2185 
  56   0.0000       0.016812         0.4575 
  57   0.0000       0.019570         0.5325 
  58   0.0000       0.025844         0.7033 
  59   0.0000       0.029991         0.8161 
  60   0.0000       0.035971         0.9788 
  61   0.0000       0.039649         1.0789 
  62   0.0000       0.040031         1.0893 
  63   0.0000       0.046578         1.2675 
  64   0.0000       0.046980         1.2784 
  65   0.0000       0.051236         1.3942 
  66   0.0000       0.053441         1.4542 
  67   0.0000       0.055654         1.5144 
  68   0.0000       0.069774         1.8986 
  69   0.0000       0.073144         1.9903 
  70   0.0000       0.075289         2.0487 
  71   0.0000       0.079788         2.1712 
  72   0.0000       0.080212         2.1827 
  73   0.0000       0.085318         2.3216 
  74   0.0000       0.091355         2.4859 
  75   0.0000       0.113898         3.0993 
  76   0.0000       0.115243         3.1359 
  77   0.0000       0.120064         3.2671 
  78   0.0000       0.126339         3.4379 
  79   0.0000       0.133369         3.6292 
  80   0.0000       0.134628         3.6634 
  81   0.0000       0.141119         3.8400 
  82   0.0000       0.144727         3.9382 
  83   0.0000       0.149361         4.0643 
  84   0.0000       0.151605         4.1254 
  85   0.0000       0.164402         4.4736 
  86   0.0000       0.167431         4.5560 
  87   0.0000       0.167819         4.5666 
  88   0.0000       0.172671         4.6986 
  89   0.0000       0.174261         4.7419 
  90   0.0000       0.179231         4.8771 
  91   0.0000       0.183131         4.9833 
  92   0.0000       0.183822         5.0020 
  93   0.0000       0.190475         5.1831 
  94   0.0000       0.191224         5.2035 
  95   0.0000       0.198885         5.4119 
  96   0.0000       0.201642         5.4870 
  97   0.0000       0.208420         5.6714 
  98   0.0000       0.218322         5.9408 
  99   0.0000       0.229716         6.2509 
 100   0.0000       0.231587         6.3018 
 101   0.0000       0.235934         6.4201 
 102   0.0000       0.244891         6.6638 
 103   0.0000       0.246929         6.7193 
 104   0.0000       0.249901         6.8001 
 105   0.0000       0.251218         6.8360 
 106   0.0000       0.259176         7.0525 
 107   0.0000       0.260629         7.0921 
 108   0.0000       0.262416         7.1407 
 109   0.0000       0.264643         7.2013 
 110   0.0000       0.270571         7.3626 
 111   0.0000       0.272544         7.4163 
 112   0.0000       0.274176         7.4607 
 113   0.0000       0.277511         7.5515 
 114   0.0000       0.277918         7.5625 
 115   0.0000       0.281519         7.6605 
 116   0.0000       0.286336         7.7916 
 117   0.0000       0.288594         7.8530 
 118   0.0000       0.289368         7.8741 
 119   0.0000       0.290954         7.9173 
 120   0.0000       0.295254         8.0343 
 121   0.0000       0.297093         8.0843 
 122   0.0000       0.298812         8.1311 
 123   0.0000       0.307635         8.3712 
 124   0.0000       0.309405         8.4193 
 125   0.0000       0.311256         8.4697 
 126   0.0000       0.318146         8.6572 
 127   0.0000       0.324823         8.8389 
 128   0.0000       0.330205         8.9853 
 129   0.0000       0.335795         9.1374 
 130   0.0000       0.337249         9.1770 
 131   0.0000       0.344853         9.3839 
 132   0.0000       0.348987         9.4964 
 133   0.0000       0.355911         9.6848 
 134   0.0000       0.357392         9.7251 
 135   0.0000       0.359115         9.7720 
 136   0.0000       0.363290         9.8856 
 137   0.0000       0.364327         9.9138 
 138   0.0000       0.368491        10.0271 
 139   0.0000       0.369747        10.0613 
 140   0.0000       0.372786        10.1440 
 141   0.0000       0.376513        10.2454 
 142   0.0000       0.382082        10.3970 
 143   0.0000       0.384958        10.4752 
 144   0.0000       0.389422        10.5967 
 145   0.0000       0.391458        10.6521 
 146   0.0000       0.396622        10.7926 
 147   0.0000       0.401685        10.9304 
 148   0.0000       0.403345        10.9756 
 149   0.0000       0.406585        11.0637 
 150   0.0000       0.413747        11.2586 
 151   0.0000       0.416571        11.3355 
 152   0.0000       0.425240        11.5714 
 153   0.0000       0.431508        11.7419 
 154   0.0000       0.432641        11.7728 
 155   0.0000       0.435320        11.8457 
 156   0.0000       0.441349        12.0097 
 157   0.0000       0.442921        12.0525 
 158   0.0000       0.443676        12.0730 
 159   0.0000       0.450660        12.2631 
 160   0.0000       0.455738        12.4013 
 161   0.0000       0.460136        12.5209 
 162   0.0000       0.463824        12.6213 
 163   0.0000       0.468381        12.7453 
 164   0.0000       0.475704        12.9446 
 165   0.0000       0.485310        13.2060 
 166   0.0000       0.493309        13.4236 
 167   0.0000       0.495967        13.4959 
 168   0.0000       0.500512        13.6196 
 169   0.0000       0.502031        13.6610 
 170   0.0000       0.509136        13.8543 
 171   0.0000       0.510644        13.8953 
 172   0.0000       0.518150        14.0996 
 173   0.0000       0.528645        14.3852 
 174   0.0000       0.533565        14.5191 
 175   0.0000       0.534557        14.5460 
 176   0.0000       0.542690        14.7673 
 177   0.0000       0.543959        14.8019 
 178   0.0000       0.548375        14.9220 
 179   0.0000       0.553138        15.0516 
 180   0.0000       0.557826        15.1792 
 181   0.0000       0.570719        15.5301 
 182   0.0000       0.575085        15.6489 
 183   0.0000       0.577492        15.7144 
 184   0.0000       0.581028        15.8106 
 185   0.0000       0.587225        15.9792 
 186   0.0000       0.589314        16.0360 
 187   0.0000       0.593225        16.1425 
 188   0.0000       0.594436        16.1754 
 189   0.0000       0.600848        16.3499 
 190   0.0000       0.605032        16.4637 
 191   0.0000       0.606045        16.4913 
 192   0.0000       0.611878        16.6500 
 193   0.0000       0.617470        16.8022 
 194   0.0000       0.620171        16.8757 
 195   0.0000       0.629884        17.1400 
 196   0.0000       0.635322        17.2880 
 197   0.0000       0.636103        17.3093 
 198   0.0000       0.639330        17.3971 
 199   0.0000       0.645841        17.5742 
 200   0.0000       0.648987        17.6598 
 201   0.0000       0.655315        17.8320 
 202   0.0000       0.655645        17.8410 
 203   0.0000       0.658468        17.9178 
 204   0.0000       0.664217        18.0743 
 205   0.0000       0.666748        18.1431 
 206   0.0000       0.668498        18.1908 
 207   0.0000       0.672448        18.2982 
 208   0.0000       0.678219        18.4553 
 209   0.0000       0.679195        18.4818 
 210   0.0000       0.682415        18.5695 
 211   0.0000       0.686376        18.6772 
 212   0.0000       0.693117        18.8607 
 213   0.0000       0.698336        19.0027 
 214   0.0000       0.701539        19.0898 
 215   0.0000       0.712324        19.3833 
 216   0.0000       0.713122        19.4050 
 217   0.0000       0.723546        19.6887 
 218   0.0000       0.724440        19.7130 
 219   0.0000       0.724524        19.7153 
 220   0.0000       0.729946        19.8629 
 221   0.0000       0.734271        19.9805 
 222   0.0000       0.734921        19.9982 
 223   0.0000       0.737378        20.0651 
 224   0.0000       0.740937        20.1619 
 225   0.0000       0.742674        20.2092 
 226   0.0000       0.744287        20.2531 
 227   0.0000       0.748150        20.3582 
 228   0.0000       0.749369        20.3914 
 229   0.0000       0.755525        20.5589 
 230   0.0000       0.759529        20.6678 
 231   0.0000       0.764840        20.8124 
 232   0.0000       0.770215        20.9586 
 233   0.0000       0.777056        21.1448 
 234   0.0000       0.779221        21.2037 
 235   0.0000       0.788319        21.4513 
 236   0.0000       0.793051        21.5800 
 237   0.0000       0.796247        21.6670 
 238   0.0000       0.798415        21.7260 
 239   0.0000       0.804273        21.8854 
 240   0.0000       0.808823        22.0092 
 241   0.0000       0.821082        22.3428 
 242   0.0000       0.824588        22.4382 
 243   0.0000       0.836781        22.7700 
 244   0.0000       0.847092        23.0505 
 245   0.0000       0.854985        23.2653 
 246   0.0000       0.867299        23.6004 
 247   0.0000       0.873345        23.7649 
 248   0.0000       0.883053        24.0291 
 249   0.0000       0.892410        24.2837 
 250   0.0000       0.901912        24.5423 
 251   0.0000       0.913942        24.8696 
 252   0.0000       0.918651        24.9978 
 253   0.0000       0.926517        25.2118 
 254   0.0000       0.932320        25.3697 
 255   0.0000       0.942968        25.6595 
 256   0.0000       0.949779        25.8448 
 257   0.0000       0.958895        26.0929 
 258   0.0000       0.976011        26.5586 
 259   0.0000       0.984342        26.7853 
 260   0.0000       0.995801        27.0971 
 261   0.0000       1.001922        27.2637 
 262   0.0000       1.008660        27.4470 
 263   0.0000       1.010485        27.4967 
 264   0.0000       1.019496        27.7419 
 265   0.0000       1.037142        28.2221 
 266   0.0000       1.049188        28.5499 
 267   0.0000       1.051072        28.6011 
 268   0.0000       1.068986        29.0886 
 269   0.0000       1.075955        29.2782 
 270   0.0000       1.104454        30.0537 
 271   0.0000       1.109640        30.1948 
 272   0.0000       1.118427        30.4339 
 273   0.0000       1.125941        30.6384 
 274   0.0000       1.129821        30.7440 
 275   0.0000       1.137719        30.9589 
 276   0.0000       1.158879        31.5347 
 277   0.0000       1.165270        31.7086 
 278   0.0000       1.181518        32.1507 
 279   0.0000       1.186060        32.2743 
 280   0.0000       1.198674        32.6176 
 281   0.0000       1.210887        32.9499 
 282   0.0000       1.213402        33.0184 
 283   0.0000       1.217796        33.1379 
 284   0.0000       1.230807        33.4920 
 285   0.0000       1.245392        33.8889 
 286   0.0000       1.257316        34.2133 
 287   0.0000       1.269862        34.5547 
 288   0.0000       1.276855        34.7450 
 289   0.0000       1.287224        35.0272 
 290   0.0000       1.305666        35.5290 
 291   0.0000       1.312222        35.7074 
 292   0.0000       1.313351        35.7381 
 293   0.0000       1.325186        36.0601 
 294   0.0000       1.329292        36.1719 
 295   0.0000       1.342951        36.5435 
 296   0.0000       1.345232        36.6056 
 297   0.0000       1.355813        36.8936 
 298   0.0000       1.362972        37.0884 
 299   0.0000       1.367457        37.2104 
 300   0.0000       1.375503        37.4293 
 301   0.0000       1.379154        37.5287 
 302   0.0000       1.393682        37.9240 
 303   0.0000       1.399589        38.0848 
 304   0.0000       1.404217        38.2107 
 305   0.0000       1.412075        38.4245 
 306   0.0000       1.422709        38.7139 
 307   0.0000       1.423973        38.7483 
 308   0.0000       1.436342        39.0849 
 309   0.0000       1.439081        39.1594 
 310   0.0000       1.441202        39.2171 
 311   0.0000       1.442678        39.2573 
 312   0.0000       1.448566        39.4175 
 313   0.0000       1.459973        39.7279 
 314   0.0000       1.466313        39.9004 
 315   0.0000       1.469531        39.9880 
 316   0.0000       1.475678        40.1552 
 317   0.0000       1.483799        40.3762 
 318   0.0000       1.492360        40.6092 
 319   0.0000       1.498485        40.7758 
 320   0.0000       1.499132        40.7934 
 321   0.0000       1.507594        41.0237 
 322   0.0000       1.509315        41.0705 
 323   0.0000       1.516044        41.2536 
 324   0.0000       1.525540        41.5121 
 325   0.0000       1.526080        41.5267 
 326   0.0000       1.537887        41.8480 
 327   0.0000       1.540561        41.9208 
 328   0.0000       1.557235        42.3745 
 329   0.0000       1.574479        42.8437 
 330   0.0000       1.580471        43.0068 
 331   0.0000       1.592864        43.3440 
 332   0.0000       1.594534        43.3895 
 333   0.0000       1.623676        44.1825 
 334   0.0000       1.631646        44.3993 
 335   0.0000       1.643043        44.7095 
 336   0.0000       1.665030        45.3078 
 337   0.0000       1.666654        45.3520 
 338   0.0000       1.670569        45.4585 
 339   0.0000       1.683575        45.8124 
 340   0.0000       1.719141        46.7802 
 341   0.0000       1.753504        47.7153 
 342   0.0000       1.760806        47.9140 
 343   0.0000       1.772997        48.2457 
 344   0.0000       1.783569        48.5334 
 345   0.0000       1.817843        49.4660 
 346   0.0000       1.824007        49.6337 
 347   0.0000       1.838511        50.0284 
 348   0.0000       1.839574        50.0574 
 349   0.0000       1.843259        50.1576 
 350   0.0000       1.852475        50.4084 
 351   0.0000       1.854992        50.4769 
 352   0.0000       1.864138        50.7258 
 353   0.0000       1.866249        50.7832 
 354   0.0000       1.867658        50.8216 
 355   0.0000       1.869404        50.8691 
 356   0.0000       1.881667        51.2028 
 357   0.0000       1.886347        51.3301 
 358   0.0000       1.900846        51.7247 
 359   0.0000       1.904587        51.8265 
 360   0.0000       1.913797        52.0771 
 361   0.0000       1.918139        52.1952 
 362   0.0000       1.921305        52.2814 
 363   0.0000       1.944126        52.9024 
 364   0.0000       1.955774        53.2193 
 365   0.0000       1.973973        53.7145 
 366   0.0000       1.983374        53.9703 
 367   0.0000       1.985991        54.0416 
 368   0.0000       1.996337        54.3231 
 369   0.0000       2.006518        54.6001 
 370   0.0000       2.012707        54.7685 
 371   0.0000       2.019065        54.9415 
 372   0.0000       2.039004        55.4841 
 373   0.0000       2.044871        55.6438 
 374   0.0000       2.049794        55.7777 
 375   0.0000       2.066794        56.2403 
 376   0.0000       2.078965        56.5715 
 377   0.0000       2.090381        56.8822 
 378   0.0000       2.103269        57.2328 
 379   0.0000       2.115214        57.5579 
 380   0.0000       2.131999        58.0147 
 381   0.0000       2.142607        58.3033 
 382   0.0000       2.154361        58.6231 
 383   0.0000       2.160837        58.7994 
 384   0.0000       2.171925        59.1011 
 385   0.0000       2.180114        59.3239 
 386   0.0000       2.187827        59.5338 
 387   0.0000       2.209582        60.1258 
 388   0.0000       2.230129        60.6849 
 389   0.0000       2.235228        60.8237 
 390   0.0000       2.245895        61.1139 
 391   0.0000       2.273056        61.8530 
 392   0.0000       2.278473        62.0004 
 393   0.0000       2.334320        63.5201 
 394   0.0000       2.337162        63.5974 
 395   0.0000       2.347328        63.8740 
 396   0.0000       2.381444        64.8024 
 397   0.0000       2.393397        65.1277 
 398   0.0000       2.397076        65.2278 
 399   0.0000       2.410259        65.5865 
 400   0.0000       2.420455        65.8639 
 401   0.0000       2.436314        66.2955 
 402   0.0000       2.459896        66.9372 
 403   0.0000       2.465672        67.0943 
 404   0.0000       2.469752        67.2054 
 405   0.0000       2.484887        67.6172 
 406   0.0000       2.493467        67.8507 
 407   0.0000       2.564027        69.7707 
 408   0.0000       2.579762        70.1989 
 409   0.0000       2.591667        70.5228 
 410   0.0000       2.597200        70.6734 
 411   0.0000       2.606657        70.9308 
 412   0.0000       2.614484        71.1437 
 413   0.0000       2.635919        71.7270 
 414   0.0000       2.639010        71.8111 
 415   0.0000       2.643735        71.9397 
 416   0.0000       2.661620        72.4264 
 417   0.0000       2.665556        72.5335 
 418   0.0000       2.682462        72.9935 
 419   0.0000       2.698547        73.4312 
 420   0.0000       2.709401        73.7266 
 421   0.0000       2.722189        74.0745 
 422   0.0000       2.737436        74.4894 
 423   0.0000       2.749210        74.8098 
 424   0.0000       2.781939        75.7004 
 425   0.0000       2.804510        76.3146 
 426   0.0000       2.815140        76.6039 
 427   0.0000       2.834146        77.1210 
 428   0.0000       2.851058        77.5812 
 429   0.0000       2.861795        77.8734 
 430   0.0000       2.876028        78.2607 
 431   0.0000       2.892692        78.7141 
 432   0.0000       2.895254        78.7839 
 433   0.0000       2.896319        78.8129 
 434   0.0000       2.903547        79.0095 
 435   0.0000       2.905507        79.0629 
 436   0.0000       2.917846        79.3986 
 437   0.0000       2.923847        79.5619 
 438   0.0000       2.945002        80.1376 
 439   0.0000       2.953155        80.3594 
 440   0.0000       2.961067        80.5747 
 441   0.0000       2.978188        81.0406 
 442   0.0000       3.010237        81.9127 
 443   0.0000       3.031170        82.4823 
 444   0.0000       3.044819        82.8537 
 445   0.0000       3.072037        83.5944 
 446   0.0000       3.087400        84.0124 
 447   0.0000       3.100396        84.3661 
 448   0.0000       3.120810        84.9215 
 449   0.0000       3.131811        85.2209 
 450   0.0000       3.136437        85.3468 
 451   0.0000       3.144513        85.5666 
 452   0.0000       3.149995        85.7157 
 453   0.0000       3.164271        86.1042 
 454   0.0000       3.173875        86.3655 
 455   0.0000       3.185428        86.6799 
 456   0.0000       3.212295        87.4110 
 457   0.0000       3.224554        87.7446 
 458   0.0000       3.242378        88.2296 
 459   0.0000       3.256401        88.6112 
 460   0.0000       3.287901        89.4683 
 461   0.0000       3.316368        90.2429 
 462   0.0000       3.325719        90.4974 
 463   0.0000       3.333215        90.7014 
 464   0.0000       3.359001        91.4031 
 465   0.0000       3.364536        91.5537 
 466   0.0000       3.366791        91.6150 
 467   0.0000       3.378321        91.9288 
 468   0.0000       3.386310        92.1462 
 469   0.0000       3.390952        92.2725 
 470   0.0000       3.399562        92.5068 
 471   0.0000       3.407160        92.7135 
 472   0.0000       3.409008        92.7638 
 473   0.0000       3.421174        93.0949 
 474   0.0000       3.423751        93.1650 
 475   0.0000       3.429314        93.3164 
 476   0.0000       3.434122        93.4472 
 477   0.0000       3.442714        93.6810 
 478   0.0000       3.455954        94.0413 
 479   0.0000       3.457371        94.0799 
 480   0.0000       3.462882        94.2298 
 481   0.0000       3.466501        94.3283 
 482   0.0000       3.490184        94.9727 
 483   0.0000       3.495586        95.1197 
 484   0.0000       3.504103        95.3515 
 485   0.0000       3.516709        95.6945 
 486   0.0000       3.528428        96.0134 
 487   0.0000       3.533472        96.1507 
 488   0.0000       3.547494        96.5322 
 489   0.0000       3.555080        96.7386 
 490   0.0000       3.556050        96.7650 
 491   0.0000       3.566322        97.0446 
 492   0.0000       3.573819        97.2485 
 493   0.0000       3.580209        97.4224 
 494   0.0000       3.581506        97.4577 
 495   0.0000       3.583083        97.5006 
 496   0.0000       3.586115        97.5832 
 497   0.0000       3.590185        97.6939 
 498   0.0000       3.603692        98.0614 
 499   0.0000       3.617903        98.4481 
 500   0.0000       3.622593        98.5758 
 501   0.0000       3.630415        98.7886 
 502   0.0000       3.637812        98.9899 
 503   0.0000       3.644181        99.1632 
 504   0.0000       3.664746        99.7228 
 505   0.0000       3.675715       100.0213 
 506   0.0000       3.686593       100.3173 
 507   0.0000       3.689478       100.3958 
 508   0.0000       3.694292       100.5268 
 509   0.0000       3.701170       100.7139 
 510   0.0000       3.713675       101.0542 
 511   0.0000       3.717529       101.1591 
 512   0.0000       3.726735       101.4096 
 513   0.0000       3.730206       101.5041 
 514   0.0000       3.738215       101.7220 
 515   0.0000       3.746040       101.9349 
 516   0.0000       3.755292       102.1867 
 517   0.0000       3.777052       102.7788 
 518   0.0000       3.782337       102.9226 
 519   0.0000       3.794271       103.2474 
 520   0.0000       3.795558       103.2824 
 521   0.0000       3.803331       103.4939 
 522   0.0000       3.848957       104.7355 
 523   0.0000       3.855662       104.9179 
 524   0.0000       3.891746       105.8998 
 525   0.0000       3.922053       106.7245 
 526   0.0000       3.934770       107.0705 
 527   0.0000       3.939562       107.2009 
 528   0.0000       3.954012       107.5941 
 529   0.0000       3.961468       107.7970 
 530   0.0000       3.967565       107.9629 
 531   0.0000       3.976502       108.2061 
 532   0.0000       3.983503       108.3966 
 533   0.0000       3.990881       108.5974 
 534   0.0000       4.005861       109.0050 
 535   0.0000       4.017139       109.3119 
 536   0.0000       4.024996       109.5257 
 537   0.0000       4.028382       109.6178 
 538   0.0000       4.064771       110.6080 
 539   0.0000       4.071999       110.8047 
 540   0.0000       4.082561       111.0921 
 541   0.0000       4.096139       111.4616 
 542   0.0000       4.150849       112.9503 
 543   0.0000       4.168607       113.4336 
 544   0.0000       4.206687       114.4698 
 545   0.0000       4.211633       114.6044 
 546   0.0000       4.235153       115.2444 
 547   0.0000       4.242539       115.4454 
 548   0.0000       4.257830       115.8614 
 549   0.0000       4.265824       116.0790 
 550   0.0000       4.274574       116.3171 
 551   0.0000       4.283084       116.5486 
 552   0.0000       4.285875       116.6246 
 553   0.0000       4.290288       116.7447 
 554   0.0000       4.297002       116.9274 
 555   0.0000       4.303718       117.1101 
 556   0.0000       4.305214       117.1508 
 557   0.0000       4.317936       117.4970 
 558   0.0000       4.327181       117.7486 
 559   0.0000       4.329262       117.8052 
 560   0.0000       4.342676       118.1702 
 561   0.0000       4.345425       118.2450 
 562   0.0000       4.354419       118.4898 
 563   0.0000       4.363466       118.7359 
 564   0.0000       4.365215       118.7835 
 565   0.0000       4.372727       118.9879 
 566   0.0000       4.392745       119.5327 
 567   0.0000       4.393737       119.5597 
 568   0.0000       4.413214       120.0897 
 569   0.0000       4.436784       120.7310 
 570   0.0000       4.447973       121.0355 
 571   0.0000       4.472034       121.6902 
 572   0.0000       4.486432       122.0820 
 573   0.0000       4.497560       122.3848 
 574   0.0000       4.498767       122.4177 
 575   0.0000       4.509858       122.7195 
 576   0.0000       4.516812       122.9087 
 577   0.0000       4.530980       123.2942 
 578   0.0000       4.538088       123.4876 
 579   0.0000       4.573765       124.4585 
 580   0.0000       4.587067       124.8204 
 581   0.0000       4.600668       125.1906 
 582   0.0000       4.607385       125.3733 
 583   0.0000       4.611149       125.4758 
 584   0.0000       4.629091       125.9640 
 585   0.0000       4.642195       126.3206 
 586   0.0000       4.654294       126.6498 
 587   0.0000       4.725502       128.5875 
 588   0.0000       4.760829       129.5488 
 589   0.0000       4.797490       130.5464 
 590   0.0000       4.812052       130.9426 
 591   0.0000       4.841835       131.7530 
 592   0.0000       4.900347       133.3452 
 593   0.0000       4.914593       133.7329 
 594   0.0000       4.920865       133.9035 
 595   0.0000       4.929856       134.1482 
 596   0.0000       4.936373       134.3255 
 597   0.0000       4.952124       134.7542 
 598   0.0000       4.956649       134.8773 
 599   0.0000       4.966288       135.1396 
 600   0.0000       4.971165       135.2723 
 601   0.0000       4.984734       135.6415 
 602   0.0000       4.985669       135.6670 
 603   0.0000       4.996675       135.9664 
 604   0.0000       5.013915       136.4356 
 605   0.0000       5.018115       136.5498 
 606   0.0000       5.048543       137.3778 
 607   0.0000       5.056734       137.6007 
 608   0.0000       5.084534       138.3572 
 609   0.0000       5.314674       144.6196 
 610   0.0000       5.317944       144.7086 
 611   0.0000       5.338293       145.2623 
 612   0.0000       5.344065       145.4194 
 613   0.0000       5.362863       145.9309 
 614   0.0000       5.372413       146.1908 
 615   0.0000       5.385958       146.5594 
 616   0.0000       5.386298       146.5686 
 617   0.0000       5.438071       147.9774 
 618   0.0000       5.448056       148.2491 
 619   0.0000       5.453288       148.3915 
 620   0.0000       5.457806       148.5145 
 621   0.0000       5.472138       148.9045 
 622   0.0000       5.487776       149.3300 
 623   0.0000       5.490251       149.3973 
 624   0.0000       5.492797       149.4666 
 625   0.0000       5.493831       149.4947 
 626   0.0000       5.527668       150.4155 
 627   0.0000       5.573248       151.6558 
 628   0.0000       5.621896       152.9796 
 629   0.0000       5.853542       159.2830 
 630   0.0000       5.864591       159.5836 
 631   0.0000       5.872249       159.7920 
 632   0.0000       5.894603       160.4003 
 633   0.0000       6.076788       165.3578 
 634   0.0000       6.083909       165.5516 
 635   0.0000       6.089716       165.7096 
 636   0.0000       6.102594       166.0600 
 637   0.0000       6.105176       166.1303 
 638   0.0000       6.110362       166.2714 
 639   0.0000       6.125618       166.6865 
 640   0.0000       6.126565       166.7123 
 641   0.0000       6.733991       183.2412 
 642   0.0000       6.740707       183.4240 
 643   0.0000       8.209254       223.3851 
 644   0.0000       8.219203       223.6559 
 645   0.0000       8.276010       225.2017 
 646   0.0000       8.345946       227.1047 
 647   0.0000       8.363501       227.5824 
 648   0.0000      11.035686       300.2963 
 649   0.0000      11.123420       302.6837 
 650   0.0000      11.374098       309.5049 
 651   0.0000      21.292292       579.3927 
 652   0.0000      23.241151       632.4239 
 653   0.0000      23.284080       633.5920 
 654   0.0000      23.474150       638.7641 
 655   0.0000      23.482437       638.9896 
 656   0.0000      23.495502       639.3451 
 657   0.0000      23.509863       639.7359 
 658   0.0000      23.830876       648.4711 
 659   0.0000      23.846098       648.8853 
 660   0.0000      23.873716       649.6369 
 661   0.0000      23.896063       650.2449 
 662   0.0000      26.398825       718.3485 
 663   0.0000      72.924263      1984.3701 

                    ********************************
                    * MULLIKEN POPULATION ANALYSIS *
                    ********************************

-----------------------
MULLIKEN ATOMIC CHARGES
-----------------------
   0 Zr:   -0.048314
   1 C :    0.168382
   2 C :    0.187647
   3 C :    0.087546
   4 H :    0.000851
   5 C :   -0.058378
   6 H :   -0.023320
   7 C :    0.192808
   8 H :   -0.059021
   9 H :   -0.068567
  10 C :    0.246659
  11 C :    0.121345
  12 C :   -0.077144
  13 H :   -0.023567
  14 C :    0.066285
  15 H :   -0.022489
  16 C :    0.179158
  17 H :   -0.045227
  18 H :   -0.050880
  19 Cl:   -0.574123
  20 H :   -0.190346
  21 H :   -0.013634
  22 H :    0.004328
Sum of atomic charges:    0.0000000

--------------------------------
MULLIKEN REDUCED ORBITAL CHARGES
--------------------------------
  0 Zrs       :     2.627855  s :     2.627855
      pz      :     2.230116  p :     7.078151
      px      :     2.610155
      py      :     2.237881
      dz2     :     0.626645  d :     2.049831
      dxz     :     0.498188
      dyz     :     0.201167
      dx2y2   :     0.404334
      dxy     :     0.319496
      f0      :     0.035697  f :     0.251487
      f+1     :     0.023206
      f-1     :     0.018119
      f+2     :     0.036927
      f-2     :     0.022407
      f+3     :     0.079055
      f-3     :     0.036075
      g0      :     0.001999  g :     0.040990
      g+1     :     0.004193
      g-1     :     0.003172
      g+2     :     0.003914
      g-2     :     0.002516
      g+3     :     0.004478
      g-3     :     0.005115
      g+4     :     0.008955
      g-4     :     0.006648
  1 C s       :     3.269933  s :     3.269933
      pz      :     0.761045  p :     2.459681
      px      :     0.886096
      py      :     0.812540
      dz2     :     0.043459  d :     0.094035
      dxz     :    -0.029495
      dyz     :     0.021948
      dx2y2   :     0.029919
      dxy     :     0.028204
      f0      :     0.001185  f :     0.007970
      f+1     :     0.000702
      f-1     :     0.002079
      f+2     :     0.001297
      f-2     :     0.001161
      f+3     :     0.000779
      f-3     :     0.000767
  2 C s       :     3.191689  s :     3.191689
      pz      :     0.735530  p :     2.544696
      px      :     0.880971
      py      :     0.928196
      dz2     :     0.071683  d :     0.068207
      dxz     :     0.036894
      dyz     :    -0.028688
      dx2y2   :    -0.015713
      dxy     :     0.004031
      f0      :     0.001429  f :     0.007761
      f+1     :     0.000989
      f-1     :     0.001356
      f+2     :     0.001109
      f-2     :     0.001265
      f+3     :     0.000793
      f-3     :     0.000821
  3 C s       :     3.237738  s :     3.237738
      pz      :     0.844076  p :     2.577082
      px      :     0.957228
      py      :     0.775778
      dz2     :     0.028025  d :     0.089826
      dxz     :     0.014094
      dyz     :     0.050973
      dx2y2   :     0.007338
      dxy     :    -0.010605
      f0      :     0.001162  f :     0.007807
      f+1     :     0.000870
      f-1     :     0.002172
      f+2     :     0.000961
      f-2     :     0.000899
      f+3     :     0.000915
      f-3     :     0.000829
  4 H s       :     0.940714  s :     0.940714
      pz      :    -0.001808  p :     0.056791
      px      :     0.013816
      py      :     0.044783
      dz2     :     0.000158  d :     0.001645
      dxz     :     0.000087
      dyz     :     0.000557
      dx2y2   :     0.000420
      dxy     :     0.000423
  5 C s       :     3.328443  s :     3.328443
      pz      :     0.850026  p :     2.619939
      px      :     0.902652
      py      :     0.867261
      dz2     :    -0.005528  d :     0.102212
      dxz     :     0.035592
      dyz     :     0.050090
      dx2y2   :     0.005194
      dxy     :     0.016863
      f0      :     0.001675  f :     0.007785
      f+1     :     0.001348
      f-1     :     0.001080
      f+2     :     0.000948
      f-2     :     0.000983
      f+3     :     0.000760
      f-3     :     0.000991
  6 H s       :     0.934117  s :     0.934117
      pz      :     0.007953  p :     0.087627
      px      :     0.066228
      py      :     0.013446
      dz2     :     0.000290  d :     0.001576
      dxz     :     0.000169
      dyz     :     0.000346
      dx2y2   :     0.000360
      dxy     :     0.000412
  7 C s       :     3.215952  s :     3.215952
      pz      :     0.833707  p :     2.511811
      px      :     0.893944
      py      :     0.784160
      dz2     :    -0.012202  d :     0.071576
      dxz     :     0.008533
      dyz     :     0.087350
      dx2y2   :     0.005684
      dxy     :    -0.017790
      f0      :     0.001457  f :     0.007852
      f+1     :     0.001299
      f-1     :     0.001661
      f+2     :     0.000830
      f-2     :     0.000718
      f+3     :     0.000583
      f-3     :     0.001304
  8 H s       :     0.978374  s :     0.978374
      pz      :     0.034406  p :     0.079025
      px      :     0.030049
      py      :     0.014569
      dz2     :     0.000548  d :     0.001622
      dxz     :     0.000332
      dyz     :     0.000391
      dx2y2   :     0.000176
      dxy     :     0.000176
  9 H s       :     0.986433  s :     0.986433
      pz      :     0.020217  p :     0.080568
      px      :     0.046176
      py      :     0.014175
      dz2     :     0.000567  d :     0.001565
      dxz     :     0.000359
      dyz     :     0.000153
      dx2y2   :     0.000215
      dxy     :     0.000272
 10 C s       :     3.180548  s :     3.180548
      pz      :     0.714205  p :     2.510090
      px      :     0.877053
      py      :     0.918832
      dz2     :     0.080394  d :     0.054948
      dxz     :     0.067849
      dyz     :    -0.080425
      dx2y2   :    -0.023199
      dxy     :     0.010330
      f0      :     0.001586  f :     0.007755
      f+1     :     0.000836
      f-1     :     0.001139
      f+2     :     0.001203
      f-2     :     0.001453
      f+3     :     0.000825
      f-3     :     0.000713
 11 C s       :     3.293070  s :     3.293070
      pz      :     0.749846  p :     2.487038
      px      :     0.930743
      py      :     0.806449
      dz2     :     0.038494  d :     0.090596
      dxz     :    -0.040523
      dyz     :     0.040309
      dx2y2   :     0.025381
      dxy     :     0.026934
      f0      :     0.001352  f :     0.007951
      f+1     :     0.000700
      f-1     :     0.001897
      f+2     :     0.001388
      f-2     :     0.001036
      f+3     :     0.000809
      f-3     :     0.000769
 12 C s       :     3.372594  s :     3.372594
      pz      :     0.855364  p :     2.597201
      px      :     0.929139
      py      :     0.812698
      dz2     :    -0.013199  d :     0.099566
      dxz     :     0.016815
      dyz     :     0.030452
      dx2y2   :     0.035983
      dxy     :     0.029514
      f0      :     0.001663  f :     0.007783
      f+1     :     0.001149
      f-1     :     0.001137
      f+2     :     0.000989
      f-2     :     0.001200
      f+3     :     0.000659
      f-3     :     0.000987
 13 H s       :     0.956399  s :     0.956399
      pz      :     0.022709  p :     0.065607
      px      :     0.047720
      py      :    -0.004822
      dz2     :     0.000285  d :     0.001561
      dxz     :     0.000549
      dyz     :     0.000599
      dx2y2   :     0.000064
      dxy     :     0.000064
 14 C s       :     3.225609  s :     3.225609
      pz      :     0.868886  p :     2.604774
      px      :     0.955498
      py      :     0.780390
      dz2     :     0.026230  d :     0.095518
      dxz     :     0.020405
      dyz     :     0.056881
      dx2y2   :     0.001888
      dxy     :    -0.009887
      f0      :     0.001095  f :     0.007814
      f+1     :     0.001041
      f-1     :     0.002263
      f+2     :     0.000820
      f-2     :     0.000769
      f+3     :     0.000883
      f-3     :     0.000943
 15 H s       :     0.954079  s :     0.954079
      pz      :     0.033775  p :     0.066795
      px      :     0.029251
      py      :     0.003769
      dz2     :     0.000493  d :     0.001615
      dxz     :     0.000382
      dyz     :     0.000486
      dx2y2   :     0.000118
      dxy     :     0.000135
 16 C s       :     3.247763  s :     3.247763
      pz      :     0.854195  p :     2.498525
      px      :     0.890197
      py      :     0.754133
      dz2     :    -0.004546  d :     0.066681
      dxz     :     0.009396
      dyz     :     0.078510
      dx2y2   :    -0.003063
      dxy     :    -0.013616
      f0      :     0.001219  f :     0.007873
      f+1     :     0.001424
      f-1     :     0.001928
      f+2     :     0.000691
      f-2     :     0.000666
      f+3     :     0.000609
      f-3     :     0.001336
 17 H s       :     0.951870  s :     0.951870
      pz      :     0.012224  p :     0.091785
      px      :     0.067322
      py      :     0.012238
      dz2     :     0.000397  d :     0.001572
      dxz     :     0.000204
      dyz     :     0.000240
      dx2y2   :     0.000362
      dxy     :     0.000369
 18 H s       :     0.975864  s :     0.975864
      pz      :     0.014240  p :     0.073448
      px      :     0.044482
      py      :     0.014725
      dz2     :     0.000537  d :     0.001567
      dxz     :     0.000294
      dyz     :     0.000166
      dx2y2   :     0.000233
      dxy     :     0.000336
 19 Cls       :     6.058451  s :     6.058451
      pz      :     3.860341  p :    11.491144
      px      :     3.945673
      py      :     3.685129
      dz2     :     0.002118  d :     0.023296
      dxz     :     0.000866
      dyz     :     0.005880
      dx2y2   :     0.006886
      dxy     :     0.007545
      f0      :     0.000095  f :     0.001233
      f+1     :     0.000019
      f-1     :     0.000217
      f+2     :     0.000173
      f-2     :     0.000038
      f+3     :     0.000252
      f-3     :     0.000440
 20 H s       :     1.207729  s :     1.207729
      pz      :     0.006673  p :    -0.018275
      px      :    -0.023473
      py      :    -0.001475
      dz2     :     0.000521  d :     0.000891
      dxz     :     0.000187
      dyz     :     0.000121
      dx2y2   :     0.000031
      dxy     :     0.000031
 21 H s       :     0.955929  s :     0.955929
      pz      :     0.021069  p :     0.056145
      px      :     0.040115
      py      :    -0.005039
      dz2     :     0.000248  d :     0.001560
      dxz     :     0.000562
      dyz     :     0.000656
      dx2y2   :     0.000048
      dxy     :     0.000045
 22 H s       :     0.937116  s :     0.937116
      pz      :    -0.003855  p :     0.056908
      px      :     0.016062
      py      :     0.044701
      dz2     :     0.000087  d :     0.001649
      dxz     :     0.000093
      dyz     :     0.000615
      dx2y2   :     0.000450
      dxy     :     0.000405


                     *******************************
                     * LOEWDIN POPULATION ANALYSIS *
                     *******************************

----------------------
LOEWDIN ATOMIC CHARGES
----------------------
   0 Zr:    0.367408
   1 C :   -0.063796
   2 C :   -0.052545
   3 C :   -0.069825
   4 H :    0.003908
   5 C :   -0.048051
   6 H :    0.004480
   7 C :   -0.057360
   8 H :    0.004501
   9 H :    0.005046
  10 C :   -0.052012
  11 C :   -0.062300
  12 C :   -0.049264
  13 H :   -0.001557
  14 C :   -0.065986
  15 H :    0.003789
  16 C :   -0.062477
  17 H :    0.006752
  18 H :    0.002837
  19 Cl:    0.202037
  20 H :   -0.017410
  21 H :   -0.002014
  22 H :    0.003840

-------------------------------
LOEWDIN REDUCED ORBITAL CHARGES
-------------------------------
  0 Zrs       :     1.805602  s :     1.805602
      pz      :     2.104369  p :     6.282792
      px      :     2.042833
      py      :     2.135590
      dz2     :     0.802101  d :     2.680114
      dxz     :     0.482564
      dyz     :     0.291436
      dx2y2   :     0.610371
      dxy     :     0.493642
      f0      :     0.099217  f :     0.633446
      f+1     :     0.054016
      f-1     :     0.051730
      f+2     :     0.091259
      f-2     :     0.052204
      f+3     :     0.172445
      f-3     :     0.112576
      g0      :     0.023965  g :     0.230637
      g+1     :     0.020893
      g-1     :     0.016781
      g+2     :     0.020750
      g-2     :     0.012105
      g+3     :     0.023149
      g-3     :     0.026907
      g+4     :     0.050744
      g-4     :     0.035343
  1 C s       :     2.639464  s :     2.639464
      pz      :     0.921925  p :     2.576649
      px      :     0.767895
      py      :     0.886829
      dz2     :     0.204344  d :     0.799165
      dxz     :     0.110053
      dyz     :     0.173312
      dx2y2   :     0.153849
      dxy     :     0.157607
      f0      :     0.005977  f :     0.048518
      f+1     :     0.003540
      f-1     :     0.013813
      f+2     :     0.009151
      f-2     :     0.008493
      f+3     :     0.004508
      f-3     :     0.003036
  2 C s       :     2.632337  s :     2.632337
      pz      :     0.902306  p :     2.589075
      px      :     0.796660
      py      :     0.890109
      dz2     :     0.216966  d :     0.783291
      dxz     :     0.156259
      dyz     :     0.184042
      dx2y2   :     0.113767
      dxy     :     0.112257
      f0      :     0.009097  f :     0.047841
      f+1     :     0.005409
      f-1     :     0.010157
      f+2     :     0.007707
      f-2     :     0.008708
      f+3     :     0.003803
      f-3     :     0.002960
  3 C s       :     2.637083  s :     2.637083
      pz      :     0.906033  p :     2.593591
      px      :     0.778806
      py      :     0.908753
      dz2     :     0.199628  d :     0.791364
      dxz     :     0.145662
      dyz     :     0.211063
      dx2y2   :     0.115821
      dxy     :     0.119191
      f0      :     0.008198  f :     0.047786
      f+1     :     0.005257
      f-1     :     0.014133
      f+2     :     0.006363
      f-2     :     0.005642
      f+3     :     0.004475
      f-3     :     0.003720
  4 H s       :     0.700991  s :     0.700991
      pz      :     0.063675  p :     0.265849
      px      :     0.089335
      py      :     0.112839
      dz2     :     0.003421  d :     0.029252
      dxz     :     0.001286
      dyz     :     0.007787
      dx2y2   :     0.008254
      dxy     :     0.008504
  5 C s       :     2.632132  s :     2.632132
      pz      :     0.906081  p :     2.584596
      px      :     0.788826
      py      :     0.889689
      dz2     :     0.164911  d :     0.783038
      dxz     :     0.129253
      dyz     :     0.224396
      dx2y2   :     0.124425
      dxy     :     0.140053
      f0      :     0.011545  f :     0.048286
      f+1     :     0.007525
      f-1     :     0.007701
      f+2     :     0.005684
      f-2     :     0.005811
      f+3     :     0.004851
      f-3     :     0.005168
  6 H s       :     0.700403  s :     0.700403
      pz      :     0.069260  p :     0.265964
      px      :     0.087691
      py      :     0.109013
      dz2     :     0.004173  d :     0.029152
      dxz     :     0.002417
      dyz     :     0.007569
      dx2y2   :     0.007554
      dxy     :     0.007440
  7 C s       :     2.636380  s :     2.636380
      pz      :     0.909812  p :     2.584908
      px      :     0.773067
      py      :     0.902029
      dz2     :     0.156542  d :     0.787663
      dxz     :     0.134260
      dyz     :     0.246301
      dx2y2   :     0.132316
      dxy     :     0.118244
      f0      :     0.010922  f :     0.048410
      f+1     :     0.007859
      f-1     :     0.010255
      f+2     :     0.004188
      f-2     :     0.004209
      f+3     :     0.004513
      f-3     :     0.006464
  8 H s       :     0.701627  s :     0.701627
      pz      :     0.103215  p :     0.264758
      px      :     0.087589
      py      :     0.073953
      dz2     :     0.009039  d :     0.029114
      dxz     :     0.007160
      dyz     :     0.007966
      dx2y2   :     0.002407
      dxy     :     0.002542
  9 H s       :     0.701274  s :     0.701274
      pz      :     0.094953  p :     0.264723
      px      :     0.077530
      py      :     0.092240
      dz2     :     0.007572  d :     0.028956
      dxz     :     0.004854
      dyz     :     0.008767
      dx2y2   :     0.003959
      dxy     :     0.003805
 10 C s       :     2.632010  s :     2.632010
      pz      :     0.901339  p :     2.587738
      px      :     0.797513
      py      :     0.888887
      dz2     :     0.225072  d :     0.784408
      dxz     :     0.159083
      dyz     :     0.174438
      dx2y2   :     0.112303
      dxy     :     0.113513
      f0      :     0.009804  f :     0.047856
      f+1     :     0.004458
      f-1     :     0.008872
      f+2     :     0.008698
      f-2     :     0.009986
      f+3     :     0.003685
      f-3     :     0.002354
 11 C s       :     2.639396  s :     2.639396
      pz      :     0.921521  p :     2.576835
      px      :     0.769060
      py      :     0.886254
      dz2     :     0.198025  d :     0.797596
      dxz     :     0.108065
      dyz     :     0.185714
      dx2y2   :     0.146684
      dxy     :     0.159109
      f0      :     0.007309  f :     0.048474
      f+1     :     0.003986
      f-1     :     0.012310
      f+2     :     0.009348
      f-2     :     0.007652
      f+3     :     0.004773
      f-3     :     0.003095
 12 C s       :     2.632229  s :     2.632229
      pz      :     0.906056  p :     2.587891
      px      :     0.793281
      py      :     0.888555
      dz2     :     0.176607  d :     0.780985
      dxz     :     0.122296
      dyz     :     0.206046
      dx2y2   :     0.132709
      dxy     :     0.143326
      f0      :     0.010670  f :     0.048159
      f+1     :     0.006209
      f-1     :     0.008257
      f+2     :     0.006275
      f-2     :     0.007515
      f+3     :     0.004371
      f-3     :     0.004862
 13 H s       :     0.703350  s :     0.703350
      pz      :     0.118787  p :     0.269171
      px      :     0.083071
      py      :     0.067313
      dz2     :     0.011285  d :     0.029036
      dxz     :     0.007902
      dyz     :     0.008600
      dx2y2   :     0.000605
      dxy     :     0.000643
 14 C s       :     2.637332  s :     2.637332
      pz      :     0.909469  p :     2.592584
      px      :     0.778254
      py      :     0.904861
      dz2     :     0.184635  d :     0.788298
      dxz     :     0.145180
      dyz     :     0.223749
      dx2y2   :     0.116325
      dxy     :     0.118409
      f0      :     0.008216  f :     0.047771
      f+1     :     0.006398
      f-1     :     0.014466
      f+2     :     0.005203
      f-2     :     0.004248
      f+3     :     0.004785
      f-3     :     0.004455
 15 H s       :     0.702150  s :     0.702150
      pz      :     0.108618  p :     0.264921
      px      :     0.086678
      py      :     0.069626
      dz2     :     0.009837  d :     0.029140
      dxz     :     0.007864
      dyz     :     0.008061
      dx2y2   :     0.001637
      dxy     :     0.001740
 16 C s       :     2.636867  s :     2.636867
      pz      :     0.910016  p :     2.584051
      px      :     0.771373
      py      :     0.902661
      dz2     :     0.158322  d :     0.793055
      dxz     :     0.144186
      dyz     :     0.246123
      dx2y2   :     0.130413
      dxy     :     0.114012
      f0      :     0.009710  f :     0.048504
      f+1     :     0.008420
      f-1     :     0.012028
      f+2     :     0.003303
      f-2     :     0.003916
      f+3     :     0.004530
      f-3     :     0.006597
 17 H s       :     0.700874  s :     0.700874
      pz      :     0.074503  p :     0.263278
      px      :     0.085919
      py      :     0.102857
      dz2     :     0.004872  d :     0.029096
      dxz     :     0.003207
      dyz     :     0.007595
      dx2y2   :     0.006785
      dxy     :     0.006636
 18 H s       :     0.700783  s :     0.700783
      pz      :     0.088751  p :     0.267399
      px      :     0.079216
      py      :     0.099432
      dz2     :     0.006648  d :     0.028981
      dxz     :     0.003997
      dyz     :     0.008703
      dx2y2   :     0.004913
      dxy     :     0.004720
 19 Cls       :     5.608079  s :     5.608079
      pz      :     3.696720  p :    11.061769
      px      :     3.724788
      py      :     3.640261
      dz2     :     0.018531  d :     0.126323
      dxz     :     0.006227
      dyz     :     0.014994
      dx2y2   :     0.041682
      dxy     :     0.044889
      f0      :     0.000078  f :     0.001792
      f+1     :     0.000036
      f-1     :     0.000363
      f+2     :     0.000139
      f-2     :     0.000046
      f+3     :     0.000410
      f-3     :     0.000721
 20 H s       :     0.844679  s :     0.844679
      pz      :     0.082881  p :     0.166513
      px      :     0.054645
      py      :     0.028987
      dz2     :     0.004327  d :     0.006218
      dxz     :     0.001054
      dyz     :     0.000675
      dx2y2   :     0.000101
      dxy     :     0.000061
 21 H s       :     0.703211  s :     0.703211
      pz      :     0.120630  p :     0.269755
      px      :     0.085004
      py      :     0.064121
      dz2     :     0.011598  d :     0.029049
      dxz     :     0.008230
      dyz     :     0.008451
      dx2y2   :     0.000378
      dxy     :     0.000392
 22 H s       :     0.700539  s :     0.700539
      pz      :     0.061494  p :     0.266352
      px      :     0.090884
      py      :     0.113975
      dz2     :     0.003106  d :     0.029269
      dxz     :     0.001108
      dyz     :     0.007613
      dx2y2   :     0.008606
      dxy     :     0.008836


                      *****************************
                      * MAYER POPULATION ANALYSIS *
                      *****************************

  NA   - Mulliken gross atomic population
  ZA   - Total nuclear charge
  QA   - Mulliken gross atomic charge
  VA   - Mayer's total valence
  BVA  - Mayer's bonded valence
  FA   - Mayer's free valence

  ATOM       NA         ZA         QA         VA         BVA        FA
  0 Zr    12.0483    12.0000    -0.0483     5.9565     5.9565     0.0000
  1 C      5.8316     6.0000     0.1684     3.4226     3.4226     0.0000
  2 C      5.8124     6.0000     0.1876     3.3303     3.3303    -0.0000
  3 C      5.9125     6.0000     0.0875     3.3885     3.3885     0.0000
  4 H      0.9991     1.0000     0.0009     1.0736     1.0736     0.0000
  5 C      6.0584     6.0000    -0.0584     3.5312     3.5312     0.0000
  6 H      1.0233     1.0000    -0.0233     1.1976     1.1976     0.0000
  7 C      5.8072     6.0000     0.1928     3.3985     3.3985     0.0000
  8 H      1.0590     1.0000    -0.0590     1.1575     1.1575     0.0000
  9 H      1.0686     1.0000    -0.0686     1.1866     1.1866     0.0000
 10 C      5.7533     6.0000     0.2467     3.1937     3.1937     0.0000
 11 C      5.8787     6.0000     0.1213     3.4745     3.4745     0.0000
 12 C      6.0771     6.0000    -0.0771     3.4561     3.4561     0.0000
 13 H      1.0236     1.0000    -0.0236     1.1064     1.1064     0.0000
 14 C      5.9337     6.0000     0.0663     3.4797     3.4797    -0.0000
 15 H      1.0225     1.0000    -0.0225     1.1147     1.1147     0.0000
 16 C      5.8208     6.0000     0.1792     3.3841     3.3841    -0.0000
 17 H      1.0452     1.0000    -0.0452     1.2029     1.2029    -0.0000
 18 H      1.0509     1.0000    -0.0509     1.1722     1.1722    -0.0000
 19 Cl    17.5741    17.0000    -0.5741     0.7605     0.7605    -0.0000
 20 H      1.1903     1.0000    -0.1903     0.8624     0.8624     0.0000
 21 H      1.0136     1.0000    -0.0136     1.0726     1.0726     0.0000
 22 H      0.9957     1.0000     0.0043     1.0701     1.0701     0.0000

  Mayer bond orders larger than 0.100000
B(  0-Zr,  1-C ) :   0.3284 B(  0-Zr,  2-C ) :   0.3387 B(  0-Zr,  3-C ) :   0.4053 
B(  0-Zr,  5-C ) :   0.4583 B(  0-Zr,  7-C ) :   0.3340 B(  0-Zr, 10-C ) :   0.2838 
B(  0-Zr, 11-C ) :   0.3117 B(  0-Zr, 12-C ) :   0.5096 B(  0-Zr, 14-C ) :   0.4064 
B(  0-Zr, 16-C ) :   0.3457 B(  0-Zr, 19-Cl) :   0.7102 B(  0-Zr, 20-H ) :   0.9149 
B(  1-C ,  2-C ) :   1.0954 B(  1-C ,  3-C ) :   1.0690 B(  1-C , 21-H ) :   1.0502 
B(  2-C ,  4-H ) :   1.0651 B(  2-C ,  5-C ) :   1.0061 B(  3-C ,  6-H ) :   1.0382 
B(  3-C ,  7-C ) :   1.1512 B(  5-C ,  7-C ) :   1.0441 B(  5-C ,  8-H ) :   1.1606 
B(  5-C , 12-C ) :   0.1252 B(  7-C ,  9-H ) :   1.0588 B( 10-C , 11-C ) :   1.0690 
B( 10-C , 12-C ) :   0.9941 B( 10-C , 22-H ) :   1.0798 B( 11-C , 13-H ) :   1.0739 
B( 11-C , 14-C ) :   1.1089 B( 12-C , 15-H ) :   1.1379 B( 12-C , 16-C ) :   0.9962 
B( 14-C , 16-C ) :   1.1755 B( 14-C , 17-H ) :   1.0425 B( 16-C , 18-H ) :   1.0648 


-------
TIMINGS
-------

Total SCF time: 0 days 0 hours 4 min 28 sec 

Total time                  ....     268.745 sec
Sum of individual times     ....     268.063 sec  ( 99.7%)

Fock matrix formation       ....     262.627 sec  ( 97.7%)
  XC integration            ....       9.002 sec  (  3.4% of F)
    Basis function eval.    ....       0.761 sec  (  8.5% of XC)
    Density eval.           ....       2.837 sec  ( 31.5% of XC)
    XC-Functional eval.     ....       0.097 sec  (  1.1% of XC)
    XC-Potential eval.      ....       4.798 sec  ( 53.3% of XC)
Diagonalization             ....       1.306 sec  (  0.5%)
Density matrix formation    ....       0.072 sec  (  0.0%)
Population analysis         ....       0.082 sec  (  0.0%)
Initial guess               ....       2.612 sec  (  1.0%)
Orbital Transformation      ....       0.000 sec  (  0.0%)
Orbital Orthonormalization  ....       0.000 sec  (  0.0%)
DIIS solution               ....       0.822 sec  (  0.3%)
Grid generation             ....       0.541 sec  (  0.2%)


-------------------------------------------------------------------------------
                          DFT DISPERSION CORRECTION                            
                                                                               
                              DFTD3 V3.1  Rev 1                                
                          USING Becke-Johnson damping                          
-------------------------------------------------------------------------------
The TPSSH functional is recognized
Active option DFTDOPT                   ...         4   

molecular C6(AA) [au] = 8519.288746 


            DFT-D V3
 parameters
 s6 scaling factor         :     1.0000 
 a1 scaling factor         :     0.4529 
 s8 scaling factor         :     2.2382 
 a2 scaling factor         :     4.6550 
 ad hoc parameters k1-k3   :    16.0000     1.3333    -4.0000 

 Edisp/kcal,au: -23.995610847527  -0.038239435865 
 E6   /kcal   : -10.143344110 
 E8   /kcal   : -13.852266737 
 % E8         :  57.728335507 

-------------------------   ----------------
Dispersion correction           -0.038239436
-------------------------   ----------------


-------------------------   --------------------
FINAL SINGLE POINT ENERGY      -895.326344680322
-------------------------   --------------------


                            ***************************************
                            *     ORCA property calculations      *
                            ***************************************

                                    ---------------------
                                    Active property flags
                                    ---------------------
   (+) Dipole Moment


------------------------------------------------------------------------------
                       ORCA ELECTRIC PROPERTIES CALCULATION
------------------------------------------------------------------------------

Dipole Moment Calculation                       ... on
Quadrupole Moment Calculation                   ... off
Polarizability Calculation                      ... off
GBWName                                         ... TMB01_R1.gbw
Electron density file                           ... TMB01_R1.scfp
The origin for moment calculation is the CENTER OF MASS  = ( 0.000249,  0.084418 -0.012618)

-------------
DIPOLE MOMENT
-------------
                                X             Y             Z
Electronic contribution:     -0.01635      13.11846     -12.56281
Nuclear contribution   :      0.01059     -14.41688      13.08524
                        -----------------------------------------
Total Dipole Moment    :     -0.00576      -1.29841       0.52243
                        -----------------------------------------
Magnitude (a.u.)       :      1.39959
Magnitude (Debye)      :      3.55747



--------------------
Rotational spectrum 
--------------------
 
Rotational constants in cm-1:     0.033538     0.025044     0.018059 
Rotational constants in MHz :  1005.445647   750.792016   541.402542 

 Dipole components along the rotational axes: 
x,y,z [a.u.] :    -0.006259    -1.299627     0.519399 
x,y,z [Debye]:    -0.015908    -3.303389     1.320207 

 

Timings for individual modules:

Sum of individual times         ...      271.967 sec (=   4.533 min)
GTO integral calculation        ...        2.849 sec (=   0.047 min)   1.0 %
SCF iterations                  ...      269.119 sec (=   4.485 min)  99.0 %
                             ****ORCA TERMINATED NORMALLY****
TOTAL RUN TIME: 0 days 0 hours 4 minutes 32 seconds 606 msec
