
                                 *****************
                                 * O   R   C   A *
                                 *****************

           --- An Ab Initio, DFT and Semiempirical electronic structure package ---

                  #######################################################
                  #                        -***-                        #
                  #          Department of theory and spectroscopy      #
                  #               Directorship: Frank Neese             #
                  #        Max Planck Institute fuer Kohlenforschung    #
                  #                Kaiser Wilhelm Platz 1               #
                  #                 D-45470 Muelheim/Ruhr               #
                  #                      Germany                        #
                  #                                                     #
                  #                  All rights reserved                #
                  #                        -***-                        #
                  #######################################################


                         Program Version 4.2.0 -  RELEASE  -


 With contributions from (in alphabetic order):
   Daniel Aravena         : Magnetic Suceptibility
   Michael Atanasov       : Ab Initio Ligand Field Theory (pilot matlab implementation)
   Alexander A. Auer      : GIAO ZORA, VPT2
   Ute Becker             : Parallelization
   Giovanni Bistoni       : ED, misc. LED, open-shell LED, HFLED
   Martin Brehm           : Molecular dynamics
   Dmytro Bykov           : SCF Hessian
   Vijay G. Chilkuri      : MRCI spin determinant printing, contributions to CSF-ICE
   Dipayan Datta          : RHF DLPNO-CCSD density
   Achintya Kumar Dutta   : EOM-CC, STEOM-CC
   Dmitry Ganyushin       : Spin-Orbit,Spin-Spin,Magnetic field MRCI
   Miquel Garcia          : C-PCM Hessian, Gaussian charge scheme
   Yang Guo               : DLPNO-NEVPT2, CIM, IAO-localization
   Andreas Hansen         : Spin unrestricted coupled pair/coupled cluster methods
   Benjamin Helmich-Paris : CASSCF linear response (MC-RPA)
   Lee Huntington         : MR-EOM, pCC
   Robert Izsak           : Overlap fitted RIJCOSX, COSX-SCS-MP3, EOM
   Christian Kollmar      : KDIIS, OOCD, Brueckner-CCSD(T), CCSD density
   Simone Kossmann        : Meta GGA functionals, TD-DFT gradient, OOMP2, MP2 Hessian
   Martin Krupicka        : AUTO-CI
   Lucas Lang             : DCDCAS
   Dagmar Lenk            : GEPOL surface, SMD
   Dimitrios Liakos       : Extrapolation schemes; Compound Job, initial MDCI parallelization
   Dimitrios Manganas     : Further ROCIS development; embedding schemes
   Dimitrios Pantazis     : SARC Basis sets
   Taras Petrenko         : DFT Hessian,TD-DFT gradient, ASA, ECA, R-Raman, ABS, FL, XAS/XES, NRVS
   Peter Pinski           : DLPNO-MP2, DLPNO-MP2 Gradient
   Christoph Reimann      : Effective Core Potentials
   Marius Retegan         : Local ZFS, SOC
   Christoph Riplinger    : Optimizer, TS searches, QM/MM, DLPNO-CCSD(T), (RO)-DLPNO pert. Triples
   Tobias Risthaus        : Range-separated hybrids, TD-DFT gradient, RPA, STAB
   Michael Roemelt        : Original ROCIS implementation
   Masaaki Saitow         : Open-shell DLPNO-CCSD energy and density
   Barbara Sandhoefer     : DKH picture change effects
   Avijit Sen             : IP-ROCIS
   Kantharuban Sivalingam : CASSCF convergence, NEVPT2, FIC-MRCI
   Bernardo de Souza      : ESD, SOC TD-DFT
   Georgi Stoychev        : AutoAux, RI-MP2 NMR
   Willem Van den Heuvel  : Paramagnetic NMR
   Boris Wezisla          : Elementary symmetry handling
   Frank Wennmohs         : Technical directorship


 We gratefully acknowledge several colleagues who have allowed us to
 interface, adapt or use parts of their codes:
   Stefan Grimme, W. Hujo, H. Kruse,             : VdW corrections, initial TS optimization,
                  C. Bannwarth                     DFT functionals, gCP, sTDA/sTD-DF
   Ed Valeev, F. Pavosevic, A. Kumar             : LibInt (2-el integral package), F12 methods
   Garnet Chan, S. Sharma, J. Yang, R. Olivares  : DMRG
   Ulf Ekstrom                                   : XCFun DFT Library
   Mihaly Kallay                                 : mrcc  (arbitrary order and MRCC methods)
   Andreas Klamt, Michael Diedenhofen            : otool_cosmo (COSMO solvation model)
   Jiri Pittner, Ondrej Demel                    : Mk-CCSD
   Frank Weinhold                                : gennbo (NPA and NBO analysis)
   Christopher J. Cramer and Donald G. Truhlar   : smd solvation model
   Lars Goerigk                                  : TD-DFT with DH, B97 family of functionals
   V. Asgeirsson, H. Jonsson                     : NEB implementation
   FAccTs GmbH                                   : IRC, NEB, NEB-TS, Multilevel, MM, QM/MM, CI optimization
   S Lehtola, MJT Oliveira, MAL Marques          : LibXC Library


 Your calculation uses the libint2 library for the computation of 2-el integrals
 For citations please refer to: http://libint.valeyev.net

 Your ORCA version has been built with support for libXC version: 4.2.3
 For citations please refer to: https://tddft.org/programs/libxc/

 This ORCA versions uses:
   CBLAS   interface :  Fast vector & matrix operations
   LAPACKE interface :  Fast linear algebra routines
   SCALAPACK package :  Parallel linear algebra routines


Your calculation utilizes the atom-pairwise dispersion correction
with the Becke-Johnson damping scheme (D3BJ)
Cite in your paper:
S.Grimme, S.Ehrlich, L.Goerigk, J Comput Chem, (2011), 32, 1456–1465 
S.Grimme, J.Antony, S.Ehrlich and H.Krieg, J.Chem.Phys., 132, (2010), 154104 
   

----- Orbital basis set information -----
Your calculation utilizes the basis: def2-TZVPPD
   F. Weigend and R. Ahlrichs, Phys. Chem. Chem. Phys. 7, 3297 (2005).
   D. Rappoport and F. Furche, J. Chem. Phys. 133 134105 (2010).

----- AuxJK basis set information -----
Your calculation utilizes the auxiliary basis: def2/JK
   H-Ba, Hf-Rn: F. Weigend, J. Comput. Chem. 29, 167 (2008).

cite the ECPs for Re [Def2-ECP] as follows:
Ce-Yb(ecp-28): M. Dolg, H. Stoll, H.Preuss, J. Chem. Phys., 1989, 90, 1730-1734.
Y-Cd(ecp-28), Hf-Hg(ecp-46): D. Andrae,U. Haeussermann, M. Dolg, H. Stoll, H. Preuss, Theor. Chim. Acta, 1990, 77, 123-141.
In-Sb(ecp-28), Tl-Bi(ecp-46): B. Metz, H. Stoll, M. Dolg, J. Chem. Phys., 2000, 113, 2563-2569.
Te-Xe(ecp-28), Po-Rn(ecp-46): K. A. Peterson, D. Figgen, E. Goll, H. Stoll, M. Dolg, J. Chem. Phys., 2003, 119, 11113-11123.
Rb(ecp-28), Cs(ecp-46): T. Leininger, A. Nicklass, W. Kuechle, H. Stoll, M. Dolg, A. Bergner, Chem. Phys. Lett., 1996, 255, 274-280.
Sr(ecp-28), Ba(ecp-46): M. Kaupp, P. V. Schleyer, H. Stoll and H. Preuss, J. Chem. Phys., 1991, 94, 1360-1366.
La(ecp-46): M. Dolg, H. Stoll, A. Savin, H. Preuss, Theor. Chim. Acta, 1989, 75, 173-194.
Lu(ecp-28): X. Cao, M. Dolg, J. Chem. Phys., 2001, 115, 7348-7355.

ECP parameters for Re [Def2-ECP] have been obtained from:
TURBOMOLE (7.0.2)

================================================================================
                                        WARNINGS
                       Please study these warnings very carefully!
================================================================================


INFO   : the flag for use of LIBINT has been found!

================================================================================
                                       INPUT FILE
================================================================================
NAME = TMB20_T2.in
|  1> #
|  2> # TMB20_T2 TPSSh-D3BJ/Def2-TZVPPD
|  3> #
|  4> ! tpssh d3bj def2-tzvppd def2/jk grid4 nofinalgrid
|  5> 
|  6> *xyz 0 1
|  7> Re       0.995979    0.090170   -0.058185 
|  8> C        2.014396   -1.161086   -1.123855 
|  9> C        1.992692   -0.479631    1.452527 
| 10> C        2.318376    1.423242   -0.367549 
| 11> Br      -0.834689   -1.732689    0.254349 
| 12> O        3.132368    2.217573   -0.550268 
| 13> O        2.612239   -1.888693   -1.769425 
| 14> O        2.568963   -0.789175    2.393169 
| 15> C       -1.540273    1.685786    1.546594 
| 16> C       -0.263771    1.318522    1.475095 
| 17> C       -2.014636    1.773094    0.144138 
| 18> C       -2.942101    0.711821   -0.394874 
| 19> O       -2.841029    0.284728   -1.529710 
| 20> O       -3.882762    0.367872    0.447794 
| 21> C       -0.602735    1.743713   -0.435058 
| 22> O       -0.382838    0.990264   -1.561710 
| 23> H       -1.229741    0.476538   -1.736592 
| 24> C       -4.752144   -0.688497    0.013665 
| 25> H       -5.447661   -0.845693    0.832416 
| 26> H       -5.279179   -0.395656   -0.893281 
| 27> H       -4.161178   -1.583930   -0.173849 
| 28> H        0.422554    1.379477    2.313653 
| 29> H       -2.484103    2.733887   -0.106082 
| 30> H       -2.090878    1.979492    2.431124 
| 31> H       -0.128477    2.714877   -0.508669 
| 32> *
| 33> 
| 34> %maxcore 5000
| 35> 
| 36> %pal
| 37> nprocs = 24
| 38> end
| 39> 
| 40> 
| 41>                          ****END OF INPUT****
================================================================================

                       ****************************
                       * Single Point Calculation *
                       ****************************

---------------------------------
CARTESIAN COORDINATES (ANGSTROEM)
---------------------------------
  Re     0.995979    0.090170   -0.058185
  C      2.014396   -1.161086   -1.123855
  C      1.992692   -0.479631    1.452527
  C      2.318376    1.423242   -0.367549
  Br    -0.834689   -1.732689    0.254349
  O      3.132368    2.217573   -0.550268
  O      2.612239   -1.888693   -1.769425
  O      2.568963   -0.789175    2.393169
  C     -1.540273    1.685786    1.546594
  C     -0.263771    1.318522    1.475095
  C     -2.014636    1.773094    0.144138
  C     -2.942101    0.711821   -0.394874
  O     -2.841029    0.284728   -1.529710
  O     -3.882762    0.367872    0.447794
  C     -0.602735    1.743713   -0.435058
  O     -0.382838    0.990264   -1.561710
  H     -1.229741    0.476538   -1.736592
  C     -4.752144   -0.688497    0.013665
  H     -5.447661   -0.845693    0.832416
  H     -5.279179   -0.395656   -0.893281
  H     -4.161178   -1.583930   -0.173849
  H      0.422554    1.379477    2.313653
  H     -2.484103    2.733887   -0.106082
  H     -2.090878    1.979492    2.431124
  H     -0.128477    2.714877   -0.508669

----------------------------
CARTESIAN COORDINATES (A.U.)
----------------------------
  NO LB      ZA    FRAG     MASS         X           Y           Z
   0 Re   15.0000*   0   186.207    1.882128    0.170397   -0.109954
   1 C     6.0000    0    12.011    3.806657   -2.194135   -2.123778
   2 C     6.0000    0    12.011    3.765642   -0.906371    2.744878
   3 C     6.0000    0    12.011    4.381096    2.689538   -0.694567
   4 Br   35.0000    0    79.900   -1.577334   -3.274308    0.480650
   5 O     8.0000    0    15.999    5.919318    4.190606   -1.039856
   6 O     8.0000    0    15.999    4.936416   -3.569113   -3.343729
   7 O     8.0000    0    15.999    4.854637   -1.491325    4.522434
   8 C     6.0000    0    12.011   -2.910694    3.185674    2.922639
   9 C     6.0000    0    12.011   -0.498455    2.491645    2.787526
  10 C     6.0000    0    12.011   -3.807110    3.350662    0.272381
  11 C     6.0000    0    12.011   -5.559765    1.345147   -0.746204
  12 O     8.0000    0    15.999   -5.368767    0.538058   -2.890733
  13 O     8.0000    0    15.999   -7.337357    0.695177    0.846208
  14 C     6.0000    0    12.011   -1.139004    3.295140   -0.822140
  15 O     8.0000    0    15.999   -0.723459    1.871328   -2.951204
  16 H     1.0000    0     1.008   -2.323874    0.900526   -3.281683
  17 C     6.0000    0    12.011   -8.980251   -1.301071    0.025823
  18 H     1.0000    0     1.008  -10.294587   -1.598128    1.573038
  19 H     1.0000    0     1.008   -9.976203   -0.747681   -1.688056
  20 H     1.0000    0     1.008   -7.863487   -2.993194   -0.328527
  21 H     1.0000    0     1.008    0.798511    2.606834    4.372171
  22 H     1.0000    0     1.008   -4.694274    5.166298   -0.200466
  23 H     1.0000    0     1.008   -3.951187    3.740698    4.594159
  24 H     1.0000    0     1.008   -0.242786    5.130374   -0.961245
* core charge reduced due to ECP

--------------------------------
INTERNAL COORDINATES (ANGSTROEM)
--------------------------------
 Re     0   0   0     0.000000000000     0.00000000     0.00000000
 C      1   0   0     1.933511653010     0.00000000     0.00000000
 C      1   2   0     1.897461654662    88.15504259     0.00000000
 C      1   2   3     1.903029392124    89.86893178    88.55772816
 Br     1   2   3     2.602275496803    89.05000414   266.32283848
 O      4   1   2     1.151924887563   179.05328208   312.15035733
 O      2   1   3     1.141748143856   178.99047640   205.13035974
 O      3   1   2     1.145736935575   177.42364093   177.89275802
 C      1   2   3     3.399099919950   163.13847391   244.19258936
 C      9   1   2     1.330207618645    29.42367729   147.22740305
 C      9   1   2     1.483079827443    79.62084388   299.89687830
 C     11   9   1     1.508981657575   119.53599818    93.25772347
 O     12  11   9     1.216748423763   121.93573468   218.97945568
 O     12  11   9     1.308905416654   113.36312792    42.39133353
 C     11   9   1     1.526366824645    93.54516520   332.05053820
 O     15  11   9     1.373093156095   118.03787712   138.84792275
 H     16  15  11     1.005854267978   106.74259588   352.73565845
 C     14  12  11     1.435342647149   115.71952430   183.12058723
 H     18  14  12     1.085729100515   105.45501800   179.18706665
 H     18  14  12     1.089069689883   110.30986584   299.00107229
 H     18  14  12     1.089129271869   109.17784678    59.85674728
 H     10   9   1     1.085328078055   123.35328937   193.99131907
 H     11   9   1     1.098240639085   113.80843211   219.46126995
 H      9   1   2     1.082507460187   153.20950354   107.61588067
 H     15  11   9     1.083281470709   114.42453838   273.06330585

---------------------------
INTERNAL COORDINATES (A.U.)
---------------------------
 Re     0   0   0     0.000000000000     0.00000000     0.00000000
 C      1   0   0     3.653807500934     0.00000000     0.00000000
 C      1   2   0     3.585682876929    88.15504259     0.00000000
 C      1   2   3     3.596204375918    89.86893178    88.55772816
 Br     1   2   3     4.917588013971    89.05000414   266.32283848
 O      4   1   2     2.176822564341   179.05328208   312.15035733
 O      2   1   3     2.157591305800   178.99047640   205.13035974
 O      3   1   2     2.165129029755   177.42364093   177.89275802
 C      1   2   3     6.423367950538   163.13847391   244.19258936
 C      9   1   2     2.513728100494    29.42367729   147.22740305
 C      9   1   2     2.802614708611    79.62084388   299.89687830
 C     11   9   1     2.851562073927   119.53599818    93.25772347
 O     12  11   9     2.299321294792   121.93573468   218.97945568
 O     12  11   9     2.473472772682   113.36312792    42.39133353
 C     11   9   1     2.884415278483    93.54516520   332.05053820
 O     15  11   9     2.594770021380   118.03787712   138.84792275
 H     16  15  11     1.900789097114   106.74259588   352.73565845
 C     14  12  11     2.712404511450   115.71952430   183.12058723
 H     18  14  12     2.051730655603   105.45501800   179.18706665
 H     18  14  12     2.058043454634   110.30986584   299.00107229
 H     18  14  12     2.058156048269   109.17784678    59.85674728
 H     10   9   1     2.050972832979   123.35328937   193.99131907
 H     11   9   1     2.075374037013   113.80843211   219.46126995
 H      9   1   2     2.045642637681   153.20950354   107.61588067
 H     15  11   9     2.047105305591   114.42453838   273.06330585

---------------------
BASIS SET INFORMATION
---------------------
There are 5 groups of distinct atoms

 Group   1 Type Re  : 8s8p6d2f1g contracted to 6s5p3d2f1g pattern {311111/41111/411/11/1}
 Group   2 Type C   : 12s6p3d1f contracted to 6s3p3d1f pattern {621111/411/111/1}
 Group   3 Type Br  : 18s14p9d1f contracted to 7s6p5d1f pattern {8421111/641111/51111/1}
 Group   4 Type O   : 12s7p3d1f contracted to 6s4p3d1f pattern {621111/4111/111/1}
 Group   5 Type H   : 5s3p1d contracted to 3s3p1d pattern {311/111/1}

Atom   0Re   basis set group =>   1
Atom   1C    basis set group =>   2
Atom   2C    basis set group =>   2
Atom   3C    basis set group =>   2
Atom   4Br   basis set group =>   3
Atom   5O    basis set group =>   4
Atom   6O    basis set group =>   4
Atom   7O    basis set group =>   4
Atom   8C    basis set group =>   2
Atom   9C    basis set group =>   2
Atom  10C    basis set group =>   2
Atom  11C    basis set group =>   2
Atom  12O    basis set group =>   4
Atom  13O    basis set group =>   4
Atom  14C    basis set group =>   2
Atom  15O    basis set group =>   4
Atom  16H    basis set group =>   5
Atom  17C    basis set group =>   2
Atom  18H    basis set group =>   5
Atom  19H    basis set group =>   5
Atom  20H    basis set group =>   5
Atom  21H    basis set group =>   5
Atom  22H    basis set group =>   5
Atom  23H    basis set group =>   5
Atom  24H    basis set group =>   5
----------------------------------
AUXILIARY/JK BASIS SET INFORMATION
----------------------------------
There are 5 groups of distinct atoms

 Group   1 Type Re  : 13s12p11d9f5g3h2i contracted to 11s9p9d7f4g3h2i pattern {31111111111/411111111/311111111/3111111/2111/111/11}
 Group   2 Type C   : 14s10p6d2f1g contracted to 10s8p5d1f1g pattern {5111111111/31111111/21111/2/1}
 Group   3 Type Br  : 20s14p13d10f7g3h contracted to 17s13p12d9f6g3h pattern {41111111111111111/2111111111111/211111111111/211111111/211111/111}
 Group   4 Type O   : 14s10p6d2f1g contracted to 10s8p4d2f1g pattern {5111111111/31111111/3111/11/1}
 Group   5 Type H   : 4s2p2d contracted to 2s2p2d pattern {31/11/11}

Atom   0Re   basis set group =>   1
Atom   1C    basis set group =>   2
Atom   2C    basis set group =>   2
Atom   3C    basis set group =>   2
Atom   4Br   basis set group =>   3
Atom   5O    basis set group =>   4
Atom   6O    basis set group =>   4
Atom   7O    basis set group =>   4
Atom   8C    basis set group =>   2
Atom   9C    basis set group =>   2
Atom  10C    basis set group =>   2
Atom  11C    basis set group =>   2
Atom  12O    basis set group =>   4
Atom  13O    basis set group =>   4
Atom  14C    basis set group =>   2
Atom  15O    basis set group =>   4
Atom  16H    basis set group =>   5
Atom  17C    basis set group =>   2
Atom  18H    basis set group =>   5
Atom  19H    basis set group =>   5
Atom  20H    basis set group =>   5
Atom  21H    basis set group =>   5
Atom  22H    basis set group =>   5
Atom  23H    basis set group =>   5
Atom  24H    basis set group =>   5
-------------------------
ECP PARAMETER INFORMATION
-------------------------

 Group 1, Type Re ECP Def2-ECP (replacing 60 core electrons, lmax=3)

Atom   0Re   ECP group =>   1



           ************************************************************
           *        Program running with 24 parallel MPI-processes    *
           *              working on a common directory               *
           ************************************************************
------------------------------------------------------------------------------
                           ORCA GTO INTEGRAL CALCULATION
------------------------------------------------------------------------------

                         BASIS SET STATISTICS AND STARTUP INFO

 # of primitive gaussian shells          ...  475
 # of primitive gaussian functions       ... 1147
 # of contracted shells                  ...  293
 # of contracted basis functions         ...  825
 Highest angular momentum                ...    4
 Maximum contraction depth               ...    8
 Integral package used                   ... LIBINT
 Integral threshhold            Thresh   ...  1.000e-10
 Primitive cut-off              TCut     ...  1.000e-11


------------------------------ INTEGRAL EVALUATION ----------------------------


 * One electron integrals 

   ECP integrals                         ... done
 Pre-screening matrix                    ... done
 Shell pair data                         ... done (   0.010 sec)



           ************************************************************
           *        Program running with 24 parallel MPI-processes    *
           *              working on a common directory               *
           ************************************************************
-------------------------------------------------------------------------------
                                 ORCA SCF
-------------------------------------------------------------------------------

------------
SCF SETTINGS
------------
Hamiltonian:
 Density Functional     Method          .... DFT(GTOs)
 Exchange Functional    Exchange        .... TPSS
 Correlation Functional Correlation     .... TPSS
 LDA part of GGA corr.  LDAOpt          .... PW91-LDA
 Gradients option       PostSCFGGA      .... off
 Hybrid DFT is turned on
   Fraction HF Exchange ScalHFX         ....  0.100000
   Scaling of DF-GGA-X  ScalDFX         ....  0.900000
   Scaling of DF-GGA-C  ScalDFC         ....  1.000000
   Scaling of DF-LDA-C  ScalLDAC        ....  1.000000
   Perturbative correction              ....  0.000000
   Density functional embedding theory  .... OFF
   NL short-range parameter             ....  5.200000


General Settings:
 Integral files         IntName         .... TMB20_T2
 Hartree-Fock type      HFTyp           .... RHF
 Total Charge           Charge          ....    0
 Multiplicity           Mult            ....    1
 Number of Electrons    NEL             ....  160
 Basis Dimension        Dim             ....  825
 Nuclear Repulsion      ENuc            ....   1852.1384979929 Eh

Convergence Acceleration:
 DIIS                   CNVDIIS         .... on
   Start iteration      DIISMaxIt       ....    12
   Startup error        DIISStart       ....  0.200000
   # of expansion vecs  DIISMaxEq       ....     5
   Bias factor          DIISBfac        ....   1.050
   Max. coefficient     DIISMaxC        ....  10.000
 Newton-Raphson         CNVNR           .... off
 SOSCF                  CNVSOSCF        .... off
 Level Shifting         CNVShift        .... on
   Level shift para.    LevelShift      ....    0.2500
   Turn off err/grad.   ShiftErr        ....    0.0010
 Zerner damping         CNVZerner       .... off
 Static damping         CNVDamp         .... on
   Fraction old density DampFac         ....    0.7000
   Max. Damping (<1)    DampMax         ....    0.9800
   Min. Damping (>=0)   DampMin         ....    0.0000
   Turn off err/grad.   DampErr         ....    0.1000
 Fernandez-Rico         CNVRico         .... off

SCF Procedure:
 Maximum # iterations   MaxIter         ....   125
 SCF integral mode      SCFMode         .... Direct
   Integral package                     .... LIBINT
 Reset frequency        DirectResetFreq ....    20
 Integral Threshold     Thresh          ....  1.000e-10 Eh
 Primitive CutOff       TCut            ....  1.000e-11 Eh

Convergence Tolerance:
 Convergence Check Mode ConvCheckMode   .... Total+1el-Energy
 Convergence forced     ConvForced      .... 0
 Energy Change          TolE            ....  1.000e-06 Eh
 1-El. energy change                    ....  1.000e-03 Eh
 DIIS Error             TolErr          ....  1.000e-06


Diagonalization of the overlap matrix:
Smallest eigenvalue                        ... 6.842e-07
Time for diagonalization                   ...    0.131 sec
Threshold for overlap eigenvalues          ... 1.000e-08
Number of eigenvalues below threshold      ... 0
Time for construction of square roots      ...    0.091 sec
Total time needed                          ...    0.227 sec

-------------------
DFT GRID GENERATION
-------------------

General Integration Accuracy     IntAcc      ...  4.670
Radial Grid Type                 RadialGrid  ... Gauss-Chebyshev
Angular Grid (max. acc.)         AngularGrid ... Lebedev-302
Angular grid pruning method      GridPruning ... 3 (G Style)
Weight generation scheme         WeightScheme... Becke
Basis function cutoff            BFCut       ...    1.0000e-10
Integration weight cutoff        WCut        ...    1.0000e-14
Grids for H and He will be reduced by one unit

# of grid points (after initial pruning)     ... 141600 (   0.0 sec)
# of grid points (after weights+screening)   ... 126969 (   0.1 sec)
nearest neighbour list constructed           ...    0.0 sec
Grid point re-assignment to atoms done       ...    0.0 sec
Grid point division into batches done        ...    0.5 sec
Reduced shell lists constructed in    0.6 sec

Total number of grid points                  ...   126969
Total number of batches                      ...     1996
Average number of points per batch           ...       63
Average number of grid points per atom       ...     5079
Average number of shells per batch           ...   189.26 (64.59%)
Average number of basis functions per batch  ...   549.56 (66.61%)
Average number of large shells per batch     ...   150.52 (79.53%)
Average number of large basis fcns per batch ...   436.68 (79.46%)
Maximum spatial batch extension              ...   1.86,  1.83,  1.82 au
Average spatial batch extension              ...   0.04,  0.04,  0.04 au

Time for grid setup =    0.749 sec

------------------------------
INITIAL GUESS: MODEL POTENTIAL
------------------------------
Loading Hartree-Fock densities                     ... done
  calling /sw/apps/orca/orca_4_2_0_linux_x86-64_openmpi314/orca TMB20_T2_atom75.inp > TMB20_T2_atom75.out in order to generate an atomic fitting density for atom 0 (Re with ECP) on-the-fly... 
    atom 0 (Re), assumed electronic state with S=6: 1s2 2s2 2p6 3s2 3p6 4s2 3d10 4p6 5s2 4d10 5p6 6s2 4f14 5d5           ... done
Calculating cut-offs                               ... done
Setting up the integral package                    ... done
Initializing the effective Hamiltonian             ... done
Starting the Coulomb interaction                   ... done (   0.1 sec)
Reading the grid                                   ... done
Mapping shells                                     ... done
Starting the XC term evaluation                    ... done (   0.4 sec)
  promolecular density results
     # of electrons  =    219.998107558
     EX              =   -519.460549234
     EC              =     -9.978504199
     EX+EC           =   -529.439053432
Transforming the Hamiltonian                       ... done (   0.1 sec)
Diagonalizing the Hamiltonian                      ... done (   0.1 sec)
Back transforming the eigenvectors                 ... done (   0.0 sec)
Now organizing SCF variables                       ... done
                      ------------------
                      INITIAL GUESS DONE (   3.0 sec)
                      ------------------
--------------
SCF ITERATIONS
--------------
ITER       Energy         Delta-E        Max-DP      RMS-DP      [F,P]     Damp
               ***  Starting incremental Fock matrix formation  ***
  0  -3451.4505617970   0.000000000000 0.67793792  0.00317608  0.3919086 0.7000
  1  -3451.6780734322  -0.227511635152 0.33734288  0.00221024  0.2818647 0.7000
                               ***Turning on DIIS***
  2  -3451.7425448775  -0.064471445299 0.57038412  0.00167076  0.1971467 0.7000
  3  -3451.7994760080  -0.056931130550 0.44776659  0.00115247  0.1344528 0.7000
  4  -3451.8374519146  -0.037975906593 0.82713492  0.00249080  0.0933716 0.0000
  5  -3451.9229633191  -0.085511404484 0.04868676  0.00016712  0.0055486 0.0000
  6  -3451.9231574242  -0.000194105112 0.02447781  0.00007560  0.0047140 0.0000
  7  -3451.9233145283  -0.000157104067 0.04183153  0.00009431  0.0005085 0.0000
  8  -3451.9233195835  -0.000005055229 0.01957239  0.00004736  0.0005016 0.0000
  9  -3451.9233209893  -0.000001405751 0.02298859  0.00004646  0.0004679 0.0000
 10  -3451.9233215830  -0.000000593724 0.02324573  0.00004846  0.0001459 0.0000
                 **** Energy Check signals convergence ****

               *****************************************************
               *                     SUCCESS                       *
               *           SCF CONVERGED AFTER  11 CYCLES          *
               *****************************************************


----------------
TOTAL SCF ENERGY
----------------

Total Energy       :        -3451.92332164 Eh          -93931.60897 eV

Components:
Nuclear Repulsion  :         1852.13849799 Eh           50399.25078 eV
Electronic Energy  :        -5304.06181963 Eh         -144330.85975 eV
One Electron Energy:        -8496.30527553 Eh         -231196.22034 eV
Two Electron Energy:         3192.24345590 Eh           86865.36058 eV

Virial components:
Potential Energy   :        -6845.44965814 Eh         -186274.15519 eV
Kinetic Energy     :         3393.52633650 Eh           92342.54622 eV
Virial Ratio       :            2.01720835


DFT components:
N(Alpha)           :       79.999874752678 electrons
N(Beta)            :       79.999874752678 electrons
N(Total)           :      159.999749505356 electrons
E(X)               :     -177.501997998493 Eh       
E(C)               :       -6.093354791085 Eh       
E(XC)              :     -183.595352789578 Eh       
DFET-embed. en.    :        0.000000000000 Eh       

---------------
SCF CONVERGENCE
---------------

  Last Energy change         ...   -5.3335e-08  Tolerance :   1.0000e-06
  Last MAX-Density change    ...    4.8038e-02  Tolerance :   1.0000e-05
  Last RMS-Density change    ...    8.5527e-05  Tolerance :   1.0000e-06
  Last DIIS Error            ...    4.5246e-05  Tolerance :   1.0000e-06

             **** THE GBW FILE WAS UPDATED (TMB20_T2.gbw) ****
             **** DENSITY FILE WAS UPDATED (TMB20_T2.scfp) ****
             **** ENERGY FILE WAS UPDATED (TMB20_T2.en.tmp) ****
             **** THE GBW FILE WAS UPDATED (TMB20_T2.gbw) ****
             **** DENSITY FILE WAS UPDATED (TMB20_T2.scfp) ****
----------------
ORBITAL ENERGIES
----------------

  NO   OCC          E(Eh)            E(eV) 
   0   2.0000    -482.501729    -13129.5395 
   1   2.0000     -62.215458     -1692.9687 
   2   2.0000     -56.000219     -1523.8434 
   3   2.0000     -55.998704     -1523.8022 
   4   2.0000     -55.998574     -1523.7987 
   5   2.0000     -19.150195      -521.1033 
   6   2.0000     -19.139257      -520.8057 
   7   2.0000     -19.125103      -520.4205 
   8   2.0000     -19.120344      -520.2910 
   9   2.0000     -19.110085      -520.0118 
  10   2.0000     -19.085957      -519.3553 
  11   2.0000     -10.281895      -279.7846 
  12   2.0000     -10.264435      -279.3095 
  13   2.0000     -10.221742      -278.1477 
  14   2.0000     -10.218977      -278.0725 
  15   2.0000     -10.210200      -277.8337 
  16   2.0000     -10.190021      -277.2846 
  17   2.0000     -10.184797      -277.1424 
  18   2.0000     -10.165619      -276.6206 
  19   2.0000     -10.153735      -276.2972 
  20   2.0000      -8.561144      -232.9606 
  21   2.0000      -6.378468      -173.5669 
  22   2.0000      -6.373757      -173.4388 
  23   2.0000      -6.373380      -173.4285 
  24   2.0000      -3.173104       -86.3445 
  25   2.0000      -2.502798       -68.1046 
  26   2.0000      -2.501435       -68.0675 
  27   2.0000      -2.501137       -68.0594 
  28   2.0000      -2.497564       -67.9622 
  29   2.0000      -2.497553       -67.9619 
  30   2.0000      -1.750004       -47.6200 
  31   2.0000      -1.740748       -47.3682 
  32   2.0000      -1.739342       -47.3299 
  33   2.0000      -1.134647       -30.8753 
  34   2.0000      -1.108200       -30.1557 
  35   2.0000      -1.105240       -30.0751 
  36   2.0000      -1.102882       -30.0109 
  37   2.0000      -1.091504       -29.7013 
  38   2.0000      -1.041571       -28.3426 
  39   2.0000      -0.871736       -23.7211 
  40   2.0000      -0.760789       -20.7021 
  41   2.0000      -0.717963       -19.5368 
  42   2.0000      -0.691040       -18.8042 
  43   2.0000      -0.689092       -18.7511 
  44   2.0000      -0.602746       -16.4015 
  45   2.0000      -0.587496       -15.9866 
  46   2.0000      -0.569785       -15.5046 
  47   2.0000      -0.554382       -15.0855 
  48   2.0000      -0.547453       -14.8970 
  49   2.0000      -0.545497       -14.8437 
  50   2.0000      -0.540465       -14.7068 
  51   2.0000      -0.511542       -13.9198 
  52   2.0000      -0.504912       -13.7394 
  53   2.0000      -0.496312       -13.5053 
  54   2.0000      -0.485248       -13.2043 
  55   2.0000      -0.464893       -12.6504 
  56   2.0000      -0.453340       -12.3360 
  57   2.0000      -0.449600       -12.2342 
  58   2.0000      -0.448736       -12.2107 
  59   2.0000      -0.440881       -11.9970 
  60   2.0000      -0.439448       -11.9580 
  61   2.0000      -0.431722       -11.7478 
  62   2.0000      -0.429985       -11.7005 
  63   2.0000      -0.428991       -11.6734 
  64   2.0000      -0.421117       -11.4592 
  65   2.0000      -0.418031       -11.3752 
  66   2.0000      -0.415511       -11.3066 
  67   2.0000      -0.394510       -10.7352 
  68   2.0000      -0.382010       -10.3950 
  69   2.0000      -0.375322       -10.2130 
  70   2.0000      -0.332986        -9.0610 
  71   2.0000      -0.328389        -8.9359 
  72   2.0000      -0.322032        -8.7629 
  73   2.0000      -0.302191        -8.2230 
  74   2.0000      -0.285364        -7.7652 
  75   2.0000      -0.270439        -7.3590 
  76   2.0000      -0.258120        -7.0238 
  77   2.0000      -0.243973        -6.6388 
  78   2.0000      -0.222374        -6.0511 
  79   2.0000      -0.218169        -5.9367 
  80   0.0000      -0.097001        -2.6395 
  81   0.0000      -0.055150        -1.5007 
  82   0.0000      -0.054927        -1.4946 
  83   0.0000      -0.045112        -1.2276 
  84   0.0000      -0.037193        -1.0121 
  85   0.0000      -0.016128        -0.4389 
  86   0.0000      -0.015504        -0.4219 
  87   0.0000      -0.002772        -0.0754 
  88   0.0000       0.000515         0.0140 
  89   0.0000       0.005384         0.1465 
  90   0.0000       0.009885         0.2690 
  91   0.0000       0.013152         0.3579 
  92   0.0000       0.019116         0.5202 
  93   0.0000       0.026794         0.7291 
  94   0.0000       0.027726         0.7545 
  95   0.0000       0.030372         0.8265 
  96   0.0000       0.038238         1.0405 
  97   0.0000       0.041429         1.1274 
  98   0.0000       0.048635         1.3234 
  99   0.0000       0.050937         1.3861 
 100   0.0000       0.056974         1.5503 
 101   0.0000       0.059328         1.6144 
 102   0.0000       0.061559         1.6751 
 103   0.0000       0.066628         1.8130 
 104   0.0000       0.068131         1.8540 
 105   0.0000       0.074341         2.0229 
 106   0.0000       0.080810         2.1989 
 107   0.0000       0.082813         2.2534 
 108   0.0000       0.090451         2.4613 
 109   0.0000       0.091235         2.4826 
 110   0.0000       0.098492         2.6801 
 111   0.0000       0.099063         2.6956 
 112   0.0000       0.101133         2.7520 
 113   0.0000       0.103528         2.8171 
 114   0.0000       0.106414         2.8957 
 115   0.0000       0.118672         3.2292 
 116   0.0000       0.122672         3.3381 
 117   0.0000       0.127749         3.4762 
 118   0.0000       0.128542         3.4978 
 119   0.0000       0.132497         3.6054 
 120   0.0000       0.136742         3.7210 
 121   0.0000       0.139165         3.7869 
 122   0.0000       0.143381         3.9016 
 123   0.0000       0.148493         4.0407 
 124   0.0000       0.153876         4.1872 
 125   0.0000       0.160191         4.3590 
 126   0.0000       0.160710         4.3731 
 127   0.0000       0.165013         4.4902 
 128   0.0000       0.166331         4.5261 
 129   0.0000       0.171616         4.6699 
 130   0.0000       0.174596         4.7510 
 131   0.0000       0.179860         4.8942 
 132   0.0000       0.182848         4.9755 
 133   0.0000       0.184643         5.0244 
 134   0.0000       0.189155         5.1472 
 135   0.0000       0.192843         5.2475 
 136   0.0000       0.196166         5.3379 
 137   0.0000       0.198333         5.3969 
 138   0.0000       0.202178         5.5015 
 139   0.0000       0.209232         5.6935 
 140   0.0000       0.209892         5.7115 
 141   0.0000       0.213843         5.8190 
 142   0.0000       0.220338         5.9957 
 143   0.0000       0.224454         6.1077 
 144   0.0000       0.226219         6.1557 
 145   0.0000       0.231718         6.3054 
 146   0.0000       0.232486         6.3263 
 147   0.0000       0.237611         6.4657 
 148   0.0000       0.240664         6.5488 
 149   0.0000       0.242616         6.6019 
 150   0.0000       0.248379         6.7587 
 151   0.0000       0.250095         6.8054 
 152   0.0000       0.250825         6.8253 
 153   0.0000       0.253935         6.9099 
 154   0.0000       0.259233         7.0541 
 155   0.0000       0.261367         7.1122 
 156   0.0000       0.265697         7.2300 
 157   0.0000       0.268071         7.2946 
 158   0.0000       0.269253         7.3268 
 159   0.0000       0.273277         7.4362 
 160   0.0000       0.279383         7.6024 
 161   0.0000       0.280622         7.6361 
 162   0.0000       0.283092         7.7033 
 163   0.0000       0.288811         7.8589 
 164   0.0000       0.290971         7.9177 
 165   0.0000       0.293204         7.9785 
 166   0.0000       0.299521         8.1504 
 167   0.0000       0.303517         8.2591 
 168   0.0000       0.305596         8.3157 
 169   0.0000       0.308303         8.3894 
 170   0.0000       0.312466         8.5026 
 171   0.0000       0.316394         8.6095 
 172   0.0000       0.321443         8.7469 
 173   0.0000       0.323535         8.8038 
 174   0.0000       0.328389         8.9359 
 175   0.0000       0.330793         9.0013 
 176   0.0000       0.334285         9.0964 
 177   0.0000       0.337245         9.1769 
 178   0.0000       0.342699         9.3253 
 179   0.0000       0.346707         9.4344 
 180   0.0000       0.348536         9.4842 
 181   0.0000       0.349734         9.5168 
 182   0.0000       0.353487         9.6189 
 183   0.0000       0.358595         9.7579 
 184   0.0000       0.361522         9.8375 
 185   0.0000       0.365116         9.9353 
 186   0.0000       0.366248         9.9661 
 187   0.0000       0.372475        10.1356 
 188   0.0000       0.375404        10.2153 
 189   0.0000       0.379395        10.3239 
 190   0.0000       0.382331        10.4038 
 191   0.0000       0.389297        10.5933 
 192   0.0000       0.390381        10.6228 
 193   0.0000       0.392383        10.6773 
 194   0.0000       0.396610        10.7923 
 195   0.0000       0.400792        10.9061 
 196   0.0000       0.401264        10.9189 
 197   0.0000       0.404735        11.0134 
 198   0.0000       0.412825        11.2335 
 199   0.0000       0.414867        11.2891 
 200   0.0000       0.425325        11.5737 
 201   0.0000       0.429260        11.6808 
 202   0.0000       0.431222        11.7341 
 203   0.0000       0.435047        11.8382 
 204   0.0000       0.441696        12.0192 
 205   0.0000       0.444615        12.0986 
 206   0.0000       0.447581        12.1793 
 207   0.0000       0.451052        12.2738 
 208   0.0000       0.455922        12.4063 
 209   0.0000       0.458569        12.4783 
 210   0.0000       0.462829        12.5942 
 211   0.0000       0.468455        12.7473 
 212   0.0000       0.470805        12.8113 
 213   0.0000       0.472712        12.8631 
 214   0.0000       0.477282        12.9875 
 215   0.0000       0.479633        13.0515 
 216   0.0000       0.487292        13.2599 
 217   0.0000       0.496169        13.5014 
 218   0.0000       0.496577        13.5125 
 219   0.0000       0.500460        13.6182 
 220   0.0000       0.504797        13.7362 
 221   0.0000       0.505275        13.7492 
 222   0.0000       0.516044        14.0423 
 223   0.0000       0.516770        14.0620 
 224   0.0000       0.523104        14.2344 
 225   0.0000       0.525578        14.3017 
 226   0.0000       0.532940        14.5020 
 227   0.0000       0.536677        14.6037 
 228   0.0000       0.540885        14.7182 
 229   0.0000       0.544581        14.8188 
 230   0.0000       0.550021        14.9668 
 231   0.0000       0.554477        15.0881 
 232   0.0000       0.559234        15.2175 
 233   0.0000       0.564961        15.3734 
 234   0.0000       0.565465        15.3871 
 235   0.0000       0.568122        15.4594 
 236   0.0000       0.568707        15.4753 
 237   0.0000       0.570600        15.5268 
 238   0.0000       0.572940        15.5905 
 239   0.0000       0.579036        15.7564 
 240   0.0000       0.581386        15.8203 
 241   0.0000       0.587083        15.9753 
 242   0.0000       0.589838        16.0503 
 243   0.0000       0.591660        16.0999 
 244   0.0000       0.603550        16.4234 
 245   0.0000       0.605143        16.4668 
 246   0.0000       0.606879        16.5140 
 247   0.0000       0.611763        16.6469 
 248   0.0000       0.615362        16.7449 
 249   0.0000       0.621107        16.9012 
 250   0.0000       0.623189        16.9578 
 251   0.0000       0.626307        17.0427 
 252   0.0000       0.633586        17.2408 
 253   0.0000       0.635410        17.2904 
 254   0.0000       0.638452        17.3732 
 255   0.0000       0.645795        17.5730 
 256   0.0000       0.650127        17.6909 
 257   0.0000       0.652208        17.7475 
 258   0.0000       0.655689        17.8422 
 259   0.0000       0.661029        17.9875 
 260   0.0000       0.663387        18.0517 
 261   0.0000       0.669180        18.2093 
 262   0.0000       0.669770        18.2254 
 263   0.0000       0.674323        18.3493 
 264   0.0000       0.677339        18.4313 
 265   0.0000       0.681394        18.5417 
 266   0.0000       0.686034        18.6679 
 267   0.0000       0.692084        18.8326 
 268   0.0000       0.693523        18.8717 
 269   0.0000       0.697609        18.9829 
 270   0.0000       0.701659        19.0931 
 271   0.0000       0.703745        19.1499 
 272   0.0000       0.706019        19.2118 
 273   0.0000       0.710958        19.3462 
 274   0.0000       0.715311        19.4646 
 275   0.0000       0.720432        19.6039 
 276   0.0000       0.721890        19.6436 
 277   0.0000       0.731411        19.9027 
 278   0.0000       0.731860        19.9149 
 279   0.0000       0.735690        20.0191 
 280   0.0000       0.739853        20.1324 
 281   0.0000       0.741313        20.1722 
 282   0.0000       0.749288        20.3892 
 283   0.0000       0.751069        20.4376 
 284   0.0000       0.757764        20.6198 
 285   0.0000       0.760624        20.6976 
 286   0.0000       0.767077        20.8732 
 287   0.0000       0.771437        20.9919 
 288   0.0000       0.778884        21.1945 
 289   0.0000       0.780396        21.2356 
 290   0.0000       0.782258        21.2863 
 291   0.0000       0.789833        21.4924 
 292   0.0000       0.795758        21.6537 
 293   0.0000       0.799591        21.7580 
 294   0.0000       0.801592        21.8124 
 295   0.0000       0.805124        21.9085 
 296   0.0000       0.811087        22.0708 
 297   0.0000       0.816020        22.2050 
 298   0.0000       0.821437        22.3525 
 299   0.0000       0.832241        22.6464 
 300   0.0000       0.832686        22.6585 
 301   0.0000       0.835850        22.7446 
 302   0.0000       0.848028        23.0760 
 303   0.0000       0.853380        23.2216 
 304   0.0000       0.853841        23.2342 
 305   0.0000       0.862244        23.4628 
 306   0.0000       0.864250        23.5174 
 307   0.0000       0.866704        23.5842 
 308   0.0000       0.875177        23.8148 
 309   0.0000       0.875963        23.8362 
 310   0.0000       0.886066        24.1111 
 311   0.0000       0.891287        24.2532 
 312   0.0000       0.896574        24.3970 
 313   0.0000       0.897934        24.4340 
 314   0.0000       0.908350        24.7175 
 315   0.0000       0.913751        24.8644 
 316   0.0000       0.921053        25.0631 
 317   0.0000       0.931939        25.3593 
 318   0.0000       0.937498        25.5106 
 319   0.0000       0.941811        25.6280 
 320   0.0000       0.953364        25.9424 
 321   0.0000       0.955192        25.9921 
 322   0.0000       0.963585        26.2205 
 323   0.0000       0.966387        26.2967 
 324   0.0000       0.975757        26.5517 
 325   0.0000       0.977703        26.6047 
 326   0.0000       0.982629        26.7387 
 327   0.0000       0.989852        26.9352 
 328   0.0000       0.995746        27.0956 
 329   0.0000       1.009472        27.4691 
 330   0.0000       1.013395        27.5759 
 331   0.0000       1.021231        27.7891 
 332   0.0000       1.029366        28.0105 
 333   0.0000       1.034964        28.1628 
 334   0.0000       1.037348        28.2277 
 335   0.0000       1.046161        28.4675 
 336   0.0000       1.051446        28.6113 
 337   0.0000       1.054860        28.7042 
 338   0.0000       1.065539        28.9948 
 339   0.0000       1.066553        29.0224 
 340   0.0000       1.078263        29.3410 
 341   0.0000       1.081657        29.4334 
 342   0.0000       1.086934        29.5770 
 343   0.0000       1.097835        29.8736 
 344   0.0000       1.107116        30.1262 
 345   0.0000       1.116295        30.3759 
 346   0.0000       1.124836        30.6083 
 347   0.0000       1.131119        30.7793 
 348   0.0000       1.137529        30.9538 
 349   0.0000       1.150437        31.3050 
 350   0.0000       1.159106        31.5409 
 351   0.0000       1.170342        31.8466 
 352   0.0000       1.173657        31.9368 
 353   0.0000       1.181562        32.1519 
 354   0.0000       1.192404        32.4470 
 355   0.0000       1.200678        32.6721 
 356   0.0000       1.206983        32.8437 
 357   0.0000       1.208918        32.8963 
 358   0.0000       1.217233        33.1226 
 359   0.0000       1.219788        33.1921 
 360   0.0000       1.226845        33.3841 
 361   0.0000       1.232215        33.5303 
 362   0.0000       1.243501        33.8374 
 363   0.0000       1.254391        34.1337 
 364   0.0000       1.261352        34.3231 
 365   0.0000       1.272782        34.6342 
 366   0.0000       1.277466        34.7616 
 367   0.0000       1.279816        34.8256 
 368   0.0000       1.284259        34.9465 
 369   0.0000       1.291799        35.1516 
 370   0.0000       1.298958        35.3464 
 371   0.0000       1.302831        35.4518 
 372   0.0000       1.308355        35.6022 
 373   0.0000       1.320366        35.9290 
 374   0.0000       1.328197        36.1421 
 375   0.0000       1.332296        36.2536 
 376   0.0000       1.343122        36.5482 
 377   0.0000       1.348149        36.6850 
 378   0.0000       1.351946        36.7883 
 379   0.0000       1.357723        36.9455 
 380   0.0000       1.369329        37.2613 
 381   0.0000       1.375658        37.4336 
 382   0.0000       1.382972        37.6326 
 383   0.0000       1.390057        37.8254 
 384   0.0000       1.397658        38.0322 
 385   0.0000       1.406084        38.2615 
 386   0.0000       1.422941        38.7202 
 387   0.0000       1.423766        38.7426 
 388   0.0000       1.434360        39.0309 
 389   0.0000       1.442151        39.2429 
 390   0.0000       1.450969        39.4829 
 391   0.0000       1.458113        39.6773 
 392   0.0000       1.470904        40.0253 
 393   0.0000       1.475007        40.1370 
 394   0.0000       1.486465        40.4488 
 395   0.0000       1.496804        40.7301 
 396   0.0000       1.502883        40.8955 
 397   0.0000       1.518002        41.3069 
 398   0.0000       1.529121        41.6095 
 399   0.0000       1.539069        41.8802 
 400   0.0000       1.543503        42.0009 
 401   0.0000       1.564092        42.5611 
 402   0.0000       1.569092        42.6972 
 403   0.0000       1.583269        43.0829 
 404   0.0000       1.588639        43.2291 
 405   0.0000       1.599814        43.5331 
 406   0.0000       1.602608        43.6092 
 407   0.0000       1.612717        43.8843 
 408   0.0000       1.616302        43.9818 
 409   0.0000       1.627919        44.2979 
 410   0.0000       1.634346        44.4728 
 411   0.0000       1.645807        44.7847 
 412   0.0000       1.653798        45.0021 
 413   0.0000       1.667442        45.3734 
 414   0.0000       1.672482        45.5105 
 415   0.0000       1.684695        45.8429 
 416   0.0000       1.690418        45.9986 
 417   0.0000       1.702160        46.3181 
 418   0.0000       1.705363        46.4053 
 419   0.0000       1.714353        46.6499 
 420   0.0000       1.718237        46.7556 
 421   0.0000       1.731761        47.1236 
 422   0.0000       1.747679        47.5568 
 423   0.0000       1.753221        47.7076 
 424   0.0000       1.760622        47.9089 
 425   0.0000       1.770517        48.1782 
 426   0.0000       1.782852        48.5139 
 427   0.0000       1.789238        48.6876 
 428   0.0000       1.794532        48.8317 
 429   0.0000       1.798796        48.9477 
 430   0.0000       1.808251        49.2050 
 431   0.0000       1.817459        49.4556 
 432   0.0000       1.822571        49.5947 
 433   0.0000       1.832122        49.8546 
 434   0.0000       1.836172        49.9648 
 435   0.0000       1.841167        50.1007 
 436   0.0000       1.846001        50.2322 
 437   0.0000       1.852270        50.4028 
 438   0.0000       1.864041        50.7231 
 439   0.0000       1.868145        50.8348 
 440   0.0000       1.877270        51.0831 
 441   0.0000       1.884027        51.2670 
 442   0.0000       1.888917        51.4001 
 443   0.0000       1.900243        51.7082 
 444   0.0000       1.905694        51.8566 
 445   0.0000       1.921253        52.2800 
 446   0.0000       1.931647        52.5628 
 447   0.0000       1.939823        52.7853 
 448   0.0000       1.954385        53.1815 
 449   0.0000       1.957580        53.2685 
 450   0.0000       1.964055        53.4446 
 451   0.0000       1.980274        53.8860 
 452   0.0000       1.987708        54.0883 
 453   0.0000       1.995545        54.3015 
 454   0.0000       2.011114        54.7252 
 455   0.0000       2.016658        54.8760 
 456   0.0000       2.025765        55.1239 
 457   0.0000       2.042486        55.5789 
 458   0.0000       2.044814        55.6422 
 459   0.0000       2.068998        56.3003 
 460   0.0000       2.076233        56.4972 
 461   0.0000       2.080533        56.6142 
 462   0.0000       2.099602        57.1331 
 463   0.0000       2.109044        57.3900 
 464   0.0000       2.123902        57.7943 
 465   0.0000       2.129958        57.9591 
 466   0.0000       2.140317        58.2410 
 467   0.0000       2.146017        58.3961 
 468   0.0000       2.158467        58.7349 
 469   0.0000       2.169278        59.0291 
 470   0.0000       2.183490        59.4158 
 471   0.0000       2.188486        59.5517 
 472   0.0000       2.204343        59.9832 
 473   0.0000       2.213766        60.2396 
 474   0.0000       2.217928        60.3529 
 475   0.0000       2.233081        60.7652 
 476   0.0000       2.241950        61.0066 
 477   0.0000       2.247304        61.1523 
 478   0.0000       2.256214        61.3947 
 479   0.0000       2.266765        61.6818 
 480   0.0000       2.271322        61.8058 
 481   0.0000       2.289699        62.3059 
 482   0.0000       2.304241        62.7016 
 483   0.0000       2.317964        63.0750 
 484   0.0000       2.329041        63.3764 
 485   0.0000       2.349841        63.9424 
 486   0.0000       2.374610        64.6164 
 487   0.0000       2.377816        64.7037 
 488   0.0000       2.392036        65.0906 
 489   0.0000       2.398437        65.2648 
 490   0.0000       2.402866        65.3853 
 491   0.0000       2.411189        65.6118 
 492   0.0000       2.432743        66.1983 
 493   0.0000       2.446268        66.5663 
 494   0.0000       2.456821        66.8535 
 495   0.0000       2.468948        67.1835 
 496   0.0000       2.471498        67.2529 
 497   0.0000       2.503886        68.1342 
 498   0.0000       2.511581        68.3436 
 499   0.0000       2.540713        69.1363 
 500   0.0000       2.553132        69.4742 
 501   0.0000       2.559564        69.6493 
 502   0.0000       2.567587        69.8676 
 503   0.0000       2.583960        70.3131 
 504   0.0000       2.609945        71.0202 
 505   0.0000       2.619086        71.2690 
 506   0.0000       2.631153        71.5973 
 507   0.0000       2.637616        71.7732 
 508   0.0000       2.661578        72.4252 
 509   0.0000       2.683871        73.0319 
 510   0.0000       2.695386        73.3452 
 511   0.0000       2.703689        73.5711 
 512   0.0000       2.708361        73.6982 
 513   0.0000       2.715514        73.8929 
 514   0.0000       2.721652        74.0599 
 515   0.0000       2.736073        74.4523 
 516   0.0000       2.756367        75.0046 
 517   0.0000       2.760536        75.1180 
 518   0.0000       2.781655        75.6927 
 519   0.0000       2.791025        75.9476 
 520   0.0000       2.794118        76.0318 
 521   0.0000       2.810678        76.4824 
 522   0.0000       2.815600        76.6164 
 523   0.0000       2.826084        76.9017 
 524   0.0000       2.839823        77.2755 
 525   0.0000       2.851176        77.5845 
 526   0.0000       2.857498        77.7565 
 527   0.0000       2.864179        77.9383 
 528   0.0000       2.874466        78.2182 
 529   0.0000       2.880967        78.3951 
 530   0.0000       2.905008        79.0493 
 531   0.0000       2.908240        79.1372 
 532   0.0000       2.920747        79.4776 
 533   0.0000       2.923218        79.5448 
 534   0.0000       2.934759        79.8589 
 535   0.0000       2.951999        80.3280 
 536   0.0000       2.956598        80.4531 
 537   0.0000       2.967873        80.7599 
 538   0.0000       2.981133        81.1208 
 539   0.0000       2.988216        81.3135 
 540   0.0000       2.993727        81.4635 
 541   0.0000       3.003232        81.7221 
 542   0.0000       3.014318        82.0238 
 543   0.0000       3.018493        82.1374 
 544   0.0000       3.030095        82.4531 
 545   0.0000       3.048570        82.9558 
 546   0.0000       3.056927        83.1832 
 547   0.0000       3.062014        83.3216 
 548   0.0000       3.071038        83.5672 
 549   0.0000       3.076050        83.7036 
 550   0.0000       3.085339        83.9563 
 551   0.0000       3.094696        84.2110 
 552   0.0000       3.101497        84.3960 
 553   0.0000       3.112970        84.7082 
 554   0.0000       3.115530        84.7779 
 555   0.0000       3.123704        85.0003 
 556   0.0000       3.132610        85.2427 
 557   0.0000       3.136382        85.3453 
 558   0.0000       3.143408        85.5365 
 559   0.0000       3.149460        85.7012 
 560   0.0000       3.155833        85.8746 
 561   0.0000       3.173216        86.3476 
 562   0.0000       3.175287        86.4040 
 563   0.0000       3.187801        86.7445 
 564   0.0000       3.195547        86.9552 
 565   0.0000       3.213681        87.4487 
 566   0.0000       3.223554        87.7174 
 567   0.0000       3.228255        87.8453 
 568   0.0000       3.237678        88.1017 
 569   0.0000       3.249324        88.4186 
 570   0.0000       3.260185        88.7142 
 571   0.0000       3.264173        88.8227 
 572   0.0000       3.272860        89.0590 
 573   0.0000       3.279975        89.2527 
 574   0.0000       3.285616        89.4062 
 575   0.0000       3.292745        89.6001 
 576   0.0000       3.306438        89.9727 
 577   0.0000       3.321758        90.3896 
 578   0.0000       3.325777        90.4990 
 579   0.0000       3.351251        91.1922 
 580   0.0000       3.356670        91.3396 
 581   0.0000       3.360884        91.4543 
 582   0.0000       3.368286        91.6557 
 583   0.0000       3.374341        91.8205 
 584   0.0000       3.385846        92.1336 
 585   0.0000       3.392378        92.3113 
 586   0.0000       3.399414        92.5028 
 587   0.0000       3.408081        92.7386 
 588   0.0000       3.414128        92.9031 
 589   0.0000       3.416405        92.9651 
 590   0.0000       3.432715        93.4089 
 591   0.0000       3.440821        93.6295 
 592   0.0000       3.444422        93.7275 
 593   0.0000       3.462696        94.2247 
 594   0.0000       3.470750        94.4439 
 595   0.0000       3.473013        94.5055 
 596   0.0000       3.477636        94.6313 
 597   0.0000       3.483245        94.7839 
 598   0.0000       3.497617        95.1750 
 599   0.0000       3.506989        95.4300 
 600   0.0000       3.516858        95.6986 
 601   0.0000       3.524566        95.9083 
 602   0.0000       3.533264        96.1450 
 603   0.0000       3.539948        96.3269 
 604   0.0000       3.544870        96.4608 
 605   0.0000       3.551554        96.6427 
 606   0.0000       3.560892        96.8968 
 607   0.0000       3.564162        96.9858 
 608   0.0000       3.574830        97.2761 
 609   0.0000       3.581253        97.4508 
 610   0.0000       3.592401        97.7542 
 611   0.0000       3.601260        97.9953 
 612   0.0000       3.610564        98.2485 
 613   0.0000       3.614842        98.3648 
 614   0.0000       3.627993        98.7227 
 615   0.0000       3.639265        99.0294 
 616   0.0000       3.650791        99.3431 
 617   0.0000       3.665913        99.7546 
 618   0.0000       3.673611        99.9640 
 619   0.0000       3.705240       100.8247 
 620   0.0000       3.718709       101.1912 
 621   0.0000       3.735359       101.6443 
 622   0.0000       3.755603       102.1952 
 623   0.0000       3.767472       102.5181 
 624   0.0000       3.779738       102.8519 
 625   0.0000       3.791408       103.1695 
 626   0.0000       3.795585       103.2831 
 627   0.0000       3.811013       103.7029 
 628   0.0000       3.829214       104.1982 
 629   0.0000       3.834737       104.3485 
 630   0.0000       3.842877       104.5700 
 631   0.0000       3.852384       104.8287 
 632   0.0000       3.855964       104.9261 
 633   0.0000       3.899100       106.0999 
 634   0.0000       3.919395       106.6521 
 635   0.0000       3.934939       107.0751 
 636   0.0000       3.940762       107.2336 
 637   0.0000       3.952895       107.5638 
 638   0.0000       3.968771       107.9957 
 639   0.0000       3.979698       108.2931 
 640   0.0000       4.002483       108.9131 
 641   0.0000       4.025206       109.5314 
 642   0.0000       4.030838       109.6847 
 643   0.0000       4.050761       110.2268 
 644   0.0000       4.061048       110.5067 
 645   0.0000       4.067412       110.6799 
 646   0.0000       4.074341       110.8684 
 647   0.0000       4.084130       111.1348 
 648   0.0000       4.103123       111.6517 
 649   0.0000       4.118420       112.0679 
 650   0.0000       4.124048       112.2211 
 651   0.0000       4.150557       112.9424 
 652   0.0000       4.155697       113.0823 
 653   0.0000       4.164852       113.3314 
 654   0.0000       4.165879       113.3593 
 655   0.0000       4.182128       113.8015 
 656   0.0000       4.194817       114.1468 
 657   0.0000       4.204282       114.4043 
 658   0.0000       4.209823       114.5551 
 659   0.0000       4.235273       115.2476 
 660   0.0000       4.261807       115.9697 
 661   0.0000       4.267092       116.1135 
 662   0.0000       4.278514       116.4243 
 663   0.0000       4.290462       116.7494 
 664   0.0000       4.324132       117.6656 
 665   0.0000       4.326726       117.7362 
 666   0.0000       4.341480       118.1377 
 667   0.0000       4.361193       118.6741 
 668   0.0000       4.366624       118.8219 
 669   0.0000       4.376958       119.1031 
 670   0.0000       4.381628       119.2302 
 671   0.0000       4.394879       119.5907 
 672   0.0000       4.406522       119.9076 
 673   0.0000       4.425870       120.4341 
 674   0.0000       4.430241       120.5530 
 675   0.0000       4.436563       120.7250 
 676   0.0000       4.453039       121.1733 
 677   0.0000       4.471716       121.6816 
 678   0.0000       4.487544       122.1123 
 679   0.0000       4.497232       122.3759 
 680   0.0000       4.503211       122.5386 
 681   0.0000       4.509762       122.7169 
 682   0.0000       4.530505       123.2813 
 683   0.0000       4.561592       124.1272 
 684   0.0000       4.576810       124.5413 
 685   0.0000       4.596186       125.0686 
 686   0.0000       4.625829       125.8752 
 687   0.0000       4.656507       126.7100 
 688   0.0000       4.669844       127.0729 
 689   0.0000       4.682863       127.4272 
 690   0.0000       4.711513       128.2068 
 691   0.0000       4.714981       128.3012 
 692   0.0000       4.738609       128.9441 
 693   0.0000       4.745959       129.1441 
 694   0.0000       4.770798       129.8200 
 695   0.0000       4.830336       131.4401 
 696   0.0000       4.881204       132.8243 
 697   0.0000       4.892199       133.1235 
 698   0.0000       4.900972       133.3622 
 699   0.0000       4.924795       134.0105 
 700   0.0000       4.940720       134.4438 
 701   0.0000       4.960326       134.9773 
 702   0.0000       4.987193       135.7084 
 703   0.0000       5.018711       136.5661 
 704   0.0000       5.023938       136.7083 
 705   0.0000       5.038045       137.0922 
 706   0.0000       5.056052       137.5822 
 707   0.0000       5.064076       137.8005 
 708   0.0000       5.117289       139.2485 
 709   0.0000       5.137620       139.8018 
 710   0.0000       5.138440       139.8241 
 711   0.0000       5.139613       139.8560 
 712   0.0000       5.144073       139.9773 
 713   0.0000       5.145387       140.0131 
 714   0.0000       5.148764       140.1050 
 715   0.0000       5.150753       140.1591 
 716   0.0000       5.158181       140.3612 
 717   0.0000       5.178389       140.9111 
 718   0.0000       5.183655       141.0544 
 719   0.0000       5.228616       142.2779 
 720   0.0000       5.274934       143.5382 
 721   0.0000       5.282559       143.7457 
 722   0.0000       5.292755       144.0232 
 723   0.0000       5.300227       144.2265 
 724   0.0000       5.323393       144.8569 
 725   0.0000       5.353491       145.6759 
 726   0.0000       5.384035       146.5070 
 727   0.0000       5.398124       146.8904 
 728   0.0000       5.451387       148.3398 
 729   0.0000       5.458128       148.5232 
 730   0.0000       5.505496       149.8122 
 731   0.0000       5.519832       150.2023 
 732   0.0000       5.541379       150.7886 
 733   0.0000       5.558983       151.2676 
 734   0.0000       5.561560       151.3377 
 735   0.0000       5.579195       151.8176 
 736   0.0000       5.584377       151.9586 
 737   0.0000       5.602253       152.4451 
 738   0.0000       5.606297       152.5551 
 739   0.0000       5.617285       152.8541 
 740   0.0000       5.629767       153.1938 
 741   0.0000       5.641661       153.5174 
 742   0.0000       5.642314       153.5352 
 743   0.0000       5.653997       153.8531 
 744   0.0000       5.690766       154.8536 
 745   0.0000       5.707938       155.3209 
 746   0.0000       5.733786       156.0243 
 747   0.0000       5.779268       157.2619 
 748   0.0000       5.788625       157.5165 
 749   0.0000       5.824728       158.4989 
 750   0.0000       5.902081       160.6038 
 751   0.0000       5.946631       161.8160 
 752   0.0000       5.980589       162.7401 
 753   0.0000       6.032836       164.1618 
 754   0.0000       6.088821       165.6853 
 755   0.0000       6.138433       167.0352 
 756   0.0000       6.255596       170.2234 
 757   0.0000       6.305568       171.5832 
 758   0.0000       6.312905       171.7829 
 759   0.0000       6.377642       173.5445 
 760   0.0000       6.429394       174.9527 
 761   0.0000       6.441340       175.2778 
 762   0.0000       6.450402       175.5244 
 763   0.0000       6.454734       175.6423 
 764   0.0000       6.469853       176.0537 
 765   0.0000       6.472217       176.1180 
 766   0.0000       6.484859       176.4620 
 767   0.0000       6.492339       176.6655 
 768   0.0000       6.497746       176.8126 
 769   0.0000       6.508952       177.1176 
 770   0.0000       6.520534       177.4328 
 771   0.0000       6.525487       177.5675 
 772   0.0000       6.559772       178.5005 
 773   0.0000       6.628914       180.3819 
 774   0.0000       6.645504       180.8334 
 775   0.0000       6.652522       181.0243 
 776   0.0000       6.667793       181.4399 
 777   0.0000       6.695419       182.1916 
 778   0.0000       6.714364       182.7071 
 779   0.0000       6.761399       183.9870 
 780   0.0000       6.795073       184.9033 
 781   0.0000       6.842299       186.1884 
 782   0.0000       6.915076       188.1688 
 783   0.0000       6.926988       188.4929 
 784   0.0000       6.928571       188.5360 
 785   0.0000       6.935095       188.7135 
 786   0.0000       6.941590       188.8903 
 787   0.0000       6.952177       189.1783 
 788   0.0000       6.963382       189.4832 
 789   0.0000       6.976209       189.8323 
 790   0.0000       6.993044       190.2904 
 791   0.0000       7.017327       190.9512 
 792   0.0000       7.056333       192.0126 
 793   0.0000       7.094463       193.0502 
 794   0.0000       7.187918       195.5932 
 795   0.0000       7.247309       197.2093 
 796   0.0000       7.256017       197.4463 
 797   0.0000       7.259200       197.5329 
 798   0.0000       7.336146       199.6267 
 799   0.0000       7.380396       200.8308 
 800   0.0000       7.488602       203.7752 
 801   0.0000       7.575209       206.1319 
 802   0.0000       7.626464       207.5266 
 803   0.0000       7.892411       214.7634 
 804   0.0000       8.127276       221.1544 
 805   0.0000      23.141212       629.7044 
 806   0.0000      23.414592       637.1435 
 807   0.0000      23.438541       637.7951 
 808   0.0000      23.481235       638.9569 
 809   0.0000      23.521823       640.0614 
 810   0.0000      23.672540       644.1626 
 811   0.0000      23.691354       644.6745 
 812   0.0000      23.825347       648.3207 
 813   0.0000      23.876478       649.7120 
 814   0.0000      44.363069      1207.1805 
 815   0.0000      44.390313      1207.9218 
 816   0.0000      44.420438      1208.7416 
 817   0.0000      44.501454      1210.9461 
 818   0.0000      44.602858      1213.7055 
 819   0.0000      44.667139      1215.4546 
 820   0.0000      49.788107      1354.8033 
 821   0.0000      50.287712      1368.3982 
 822   0.0000      50.883440      1384.6088 
 823   0.0000      68.435385      1862.2215 
 824   0.0000     512.866019     13955.7939 

                    ********************************
                    * MULLIKEN POPULATION ANALYSIS *
                    ********************************

-----------------------
MULLIKEN ATOMIC CHARGES
-----------------------
   0 Re:   -0.330067
   1 C :    0.670930
   2 C :    0.550393
   3 C :    0.369387
   4 Br:   -0.593427
   5 O :   -0.415645
   6 O :   -0.331840
   7 O :   -0.375040
   8 C :   -0.629640
   9 C :    0.118961
  10 C :    1.504262
  11 C :    0.294617
  12 O :   -0.668801
  13 O :   -0.311538
  14 C :   -0.059036
  15 O :   -0.490976
  16 H :    0.437839
  17 C :    0.021550
  18 H :    0.050164
  19 H :    0.092169
  20 H :    0.083038
  21 H :   -0.011021
  22 H :   -0.029238
  23 H :   -0.060695
  24 H :    0.113652
Sum of atomic charges:   -0.0000000

--------------------------------
MULLIKEN REDUCED ORBITAL CHARGES
--------------------------------
  0 Res       :     2.732046  s :     2.732046
      pz      :     2.157472  p :     6.632107
      px      :     2.154696
      py      :     2.319939
      dz2     :     1.214336  d :     5.811500
      dxz     :     1.028423
      dyz     :     1.194049
      dx2y2   :     1.488509
      dxy     :     0.886184
      f0      :     0.014112  f :     0.148643
      f+1     :     0.023511
      f-1     :     0.016650
      f+2     :     0.011056
      f-2     :     0.037845
      f+3     :     0.024405
      f-3     :     0.021064
      g0      :     0.000482  g :     0.005771
      g+1     :     0.000645
      g-1     :     0.000438
      g+2     :     0.000407
      g-2     :     0.001128
      g+3     :     0.000733
      g-3     :     0.000763
      g+4     :     0.000799
      g-4     :     0.000375
  1 C s       :     3.169345  s :     3.169345
      pz      :     0.675636  p :     2.048810
      px      :     0.678168
      py      :     0.695006
      dz2     :     0.042079  d :     0.091687
      dxz     :     0.009056
      dyz     :    -0.004114
      dx2y2   :     0.036490
      dxy     :     0.008176
      f0      :     0.001567  f :     0.019228
      f+1     :     0.002359
      f-1     :     0.003392
      f+2     :     0.003509
      f-2     :     0.003221
      f+3     :     0.002339
      f-3     :     0.002842
  2 C s       :     3.213886  s :     3.213886
      pz      :     0.748181  p :     2.098053
      px      :     0.706837
      py      :     0.643035
      dz2     :     0.030325  d :     0.117648
      dxz     :     0.015060
      dyz     :     0.031070
      dx2y2   :     0.024151
      dxy     :     0.017042
      f0      :     0.004762  f :     0.020020
      f+1     :     0.003947
      f-1     :     0.002867
      f+2     :     0.003552
      f-2     :     0.003337
      f+3     :     0.000817
      f-3     :     0.000737
  3 C s       :     3.333420  s :     3.333420
      pz      :     0.664625  p :     2.143364
      px      :     0.740067
      py      :     0.738672
      dz2     :     0.005615  d :     0.134384
      dxz     :     0.030053
      dyz     :     0.039914
      dx2y2   :     0.066847
      dxy     :    -0.008045
      f0      :     0.002199  f :     0.019445
      f+1     :     0.001676
      f-1     :     0.001650
      f+2     :     0.000525
      f-2     :     0.003884
      f+3     :     0.004846
      f-3     :     0.004664
  4 Brs       :     8.103789  s :     8.103789
      pz      :     5.936023  p :    17.457831
      px      :     5.757570
      py      :     5.764238
      dz2     :     2.002820  d :    10.029161
      dxz     :     2.005887
      dyz     :     2.005314
      dx2y2   :     2.003550
      dxy     :     2.011590
      f0      :     0.000328  f :     0.002647
      f+1     :     0.000217
      f-1     :     0.000233
      f+2     :     0.000125
      f-2     :     0.000516
      f+3     :     0.000654
      f-3     :     0.000573
  5 O s       :     4.040334  s :     4.040334
      pz      :     1.511936  p :     4.325156
      px      :     1.412546
      py      :     1.400674
      dz2     :     0.003729  d :     0.048466
      dxz     :     0.010088
      dyz     :     0.008070
      dx2y2   :     0.019008
      dxy     :     0.007572
      f0      :     0.000207  f :     0.001689
      f+1     :     0.000131
      f-1     :     0.000127
      f+2     :     0.000041
      f-2     :     0.000373
      f+3     :     0.000419
      f-3     :     0.000391
  6 O s       :     4.012127  s :     4.012127
      pz      :     1.418993  p :     4.266972
      px      :     1.438525
      py      :     1.409453
      dz2     :     0.012757  d :     0.050978
      dxz     :     0.008126
      dyz     :     0.008238
      dx2y2   :     0.012893
      dxy     :     0.008965
      f0      :     0.000120  f :     0.001762
      f+1     :     0.000238
      f-1     :     0.000346
      f+2     :     0.000370
      f-2     :     0.000207
      f+3     :     0.000203
      f-3     :     0.000279
  7 O s       :     4.028614  s :     4.028614
      pz      :     1.353256  p :     4.295111
      px      :     1.456336
      py      :     1.485518
      dz2     :     0.015196  d :     0.049582
      dxz     :     0.010943
      dyz     :     0.011177
      dx2y2   :     0.006521
      dxy     :     0.005745
      f0      :     0.000475  f :     0.001733
      f+1     :     0.000267
      f-1     :     0.000244
      f+2     :     0.000333
      f-2     :     0.000284
      f+3     :     0.000072
      f-3     :     0.000057
  8 C s       :     3.740959  s :     3.740959
      pz      :     0.952187  p :     2.712753
      px      :     0.859571
      py      :     0.900995
      dz2     :     0.025302  d :     0.167958
      dxz     :     0.077926
      dyz     :     0.036607
      dx2y2   :     0.006963
      dxy     :     0.021159
      f0      :     0.001806  f :     0.007971
      f+1     :     0.001425
      f-1     :     0.000827
      f+2     :     0.001054
      f-2     :     0.000778
      f+3     :     0.001084
      f-3     :     0.000997
  9 C s       :     3.287221  s :     3.287221
      pz      :     0.834203  p :     2.491543
      px      :     0.711949
      py      :     0.945392
      dz2     :     0.001895  d :     0.096146
      dxz     :     0.041165
      dyz     :    -0.013066
      dx2y2   :     0.015568
      dxy     :     0.050582
      f0      :     0.001004  f :     0.006129
      f+1     :     0.000860
      f-1     :     0.000215
      f+2     :     0.001127
      f-2     :     0.000463
      f+3     :     0.001365
      f-3     :     0.001095
 10 C s       :     2.269389  s :     2.269389
      pz      :     0.665929  p :     1.971833
      px      :     0.693479
      py      :     0.612426
      dz2     :     0.054109  d :     0.245910
      dxz     :     0.070974
      dyz     :     0.008696
      dx2y2   :     0.040159
      dxy     :     0.071972
      f0      :     0.001377  f :     0.008606
      f+1     :     0.001623
      f-1     :     0.001176
      f+2     :     0.000978
      f-2     :     0.001264
      f+3     :     0.001094
      f-3     :     0.001093
 11 C s       :     3.425252  s :     3.425252
      pz      :     0.525903  p :     1.995786
      px      :     0.796259
      py      :     0.673624
      dz2     :     0.041991  d :     0.258494
      dxz     :     0.069618
      dyz     :     0.042021
      dx2y2   :     0.069893
      dxy     :     0.034971
      f0      :     0.004718  f :     0.025851
      f+1     :     0.006578
      f-1     :     0.003882
      f+2     :     0.003306
      f-2     :     0.003869
      f+3     :     0.001668
      f-3     :     0.001829
 12 O s       :     4.102100  s :     4.102100
      pz      :     1.288459  p :     4.538514
      px      :     1.658439
      py      :     1.591616
      dz2     :     0.008357  d :     0.026380
      dxz     :     0.001249
      dyz     :     0.010992
      dx2y2   :     0.003429
      dxy     :     0.002353
      f0      :     0.000587  f :     0.001807
      f+1     :     0.000401
      f-1     :     0.000438
      f+2     :     0.000167
      f-2     :     0.000176
      f+3     :     0.000025
      f-3     :     0.000012
 13 O s       :     3.911180  s :     3.911180
      pz      :     1.546552  p :     4.359571
      px      :     1.335220
      py      :     1.477800
      dz2     :     0.003814  d :     0.038644
      dxz     :     0.012669
      dyz     :     0.013450
      dx2y2   :     0.011864
      dxy     :    -0.003153
      f0      :     0.000198  f :     0.002143
      f+1     :     0.000372
      f-1     :     0.000126
      f+2     :     0.000308
      f-2     :     0.000413
      f+3     :     0.000378
      f-3     :     0.000348
 14 C s       :     3.362485  s :     3.362485
      pz      :     0.514145  p :     2.320806
      px      :     0.929983
      py      :     0.876679
      dz2     :     0.051014  d :     0.362004
      dxz     :     0.088947
      dyz     :    -0.027695
      dx2y2   :     0.167877
      dxy     :     0.081861
      f0      :     0.002773  f :     0.013740
      f+1     :     0.002192
      f-1     :     0.002316
      f+2     :     0.001978
      f-2     :     0.002011
      f+3     :     0.001246
      f-3     :     0.001224
 15 O s       :     3.987328  s :     3.987328
      pz      :     1.407092  p :     4.489917
      px      :     1.538098
      py      :     1.544727
      dz2     :     0.001742  d :     0.012550
      dxz     :    -0.001814
      dyz     :     0.000417
      dx2y2   :    -0.000221
      dxy     :     0.012426
      f0      :     0.000229  f :     0.001181
      f+1     :     0.000107
      f-1     :     0.000339
      f+2     :     0.000221
      f-2     :     0.000179
      f+3     :     0.000018
      f-3     :     0.000088
 16 H s       :     0.461198  s :     0.461198
      pz      :    -0.028521  p :     0.092923
      px      :     0.082590
      py      :     0.038855
      dz2     :     0.000988  d :     0.008040
      dxz     :     0.001536
      dyz     :     0.000612
      dx2y2   :     0.002461
      dxy     :     0.002443
 17 C s       :     3.101856  s :     3.101856
      pz      :     0.996518  p :     2.752537
      px      :     0.896696
      py      :     0.859324
      dz2     :     0.014479  d :     0.115363
      dxz     :     0.040348
      dyz     :     0.007477
      dx2y2   :     0.030342
      dxy     :     0.022717
      f0      :     0.000714  f :     0.008694
      f+1     :     0.001081
      f-1     :     0.001097
      f+2     :     0.000698
      f-2     :     0.001415
      f+3     :     0.001828
      f-3     :     0.001861
 18 H s       :     0.910300  s :     0.910300
      pz      :     0.019148  p :     0.037877
      px      :     0.008314
      py      :     0.010415
      dz2     :     0.000528  d :     0.001658
      dxz     :     0.000215
      dyz     :     0.000319
      dx2y2   :     0.000188
      dxy     :     0.000409
 19 H s       :     0.874312  s :     0.874312
      pz      :     0.011300  p :     0.031921
      px      :     0.011540
      py      :     0.009081
      dz2     :     0.000454  d :     0.001599
      dxz     :     0.000386
      dyz     :     0.000388
      dx2y2   :     0.000124
      dxy     :     0.000247
 20 H s       :     0.878711  s :     0.878711
      pz      :     0.001265  p :     0.036639
      px      :     0.015055
      py      :     0.020319
      dz2     :     0.000105  d :     0.001611
      dxz     :     0.000249
      dyz     :     0.000406
      dx2y2   :     0.000562
      dxy     :     0.000290
 21 H s       :     0.946929  s :     0.946929
      pz      :     0.025321  p :     0.062666
      px      :     0.006262
      py      :     0.031083
      dz2     :     0.000369  d :     0.001425
      dxz     :     0.000292
      dyz     :     0.000264
      dx2y2   :     0.000215
      dxy     :     0.000285
 22 H s       :     1.050762  s :     1.050762
      pz      :    -0.027514  p :    -0.023448
      px      :    -0.019043
      py      :     0.023110
      dz2     :     0.000218  d :     0.001923
      dxz     :     0.000178
      dyz     :     0.000512
      dx2y2   :     0.000526
      dxy     :     0.000489
 23 H s       :     1.017293  s :     1.017293
      pz      :     0.023700  p :     0.042147
      px      :     0.010165
      py      :     0.008283
      dz2     :     0.000496  d :     0.001255
      dxz     :     0.000263
      dyz     :     0.000179
      dx2y2   :     0.000158
[...]
      px      :     2.149805
      py      :     2.157575
      dz2     :     1.174078  d :     5.644509
      dxz     :     1.024114
      dyz     :     1.168888
      dx2y2   :     1.262809
      dxy     :     1.014619
      f0      :     0.034653  f :     0.388618
      f+1     :     0.064769
      f-1     :     0.044397
      f+2     :     0.027195
      f-2     :     0.096306
      f+3     :     0.064854
      f-3     :     0.056444
      g0      :     0.002166  g :     0.024649
      g+1     :     0.002735
      g-1     :     0.001827
      g+2     :     0.001692
      g-2     :     0.004908
      g+3     :     0.002970
      g-3     :     0.003040
      g+4     :     0.003703
      g-4     :     0.001608
  1 C s       :     2.895260  s :     2.895260
      pz      :     0.781852  p :     2.377280
      px      :     0.777796
      py      :     0.817631
      dz2     :     0.201907  d :     0.925018
      dxz     :     0.157761
      dyz     :     0.174925
      dx2y2   :     0.214970
      dxy     :     0.175456
      f0      :     0.007874  f :     0.089402
      f+1     :     0.010435
      f-1     :     0.014823
      f+2     :     0.015491
      f-2     :     0.017690
      f+3     :     0.010977
      f-3     :     0.012112
  2 C s       :     2.868332  s :     2.868332
      pz      :     0.925097  p :     2.380008
      px      :     0.769344
      py      :     0.685567
      dz2     :     0.281256  d :     0.986391
      dxz     :     0.231161
      dyz     :     0.228165
      dx2y2   :     0.120306
      dxy     :     0.125503
      f0      :     0.019862  f :     0.090607
      f+1     :     0.020598
      f-1     :     0.013300
      f+2     :     0.015366
      f-2     :     0.015478
      f+3     :     0.003063
      f-3     :     0.002940
  3 C s       :     2.870553  s :     2.870553
      pz      :     0.677264  p :     2.380214
      px      :     0.859046
      py      :     0.843905
      dz2     :     0.101473  d :     0.937947
      dxz     :     0.146492
      dyz     :     0.172062
      dx2y2   :     0.293816
      dxy     :     0.224104
      f0      :     0.009476  f :     0.088408
      f+1     :     0.007999
      f-1     :     0.007769
      f+2     :     0.002002
      f-2     :     0.017163
      f+3     :     0.022327
      f-3     :     0.021672
  4 Brs       :     7.629304  s :     7.629304
      pz      :     5.783459  p :    17.005917
      px      :     5.587893
      py      :     5.634565
      dz2     :     2.016424  d :    10.181212
      dxz     :     2.033920
      dyz     :     2.031537
      dx2y2   :     2.056326
      dxy     :     2.043006
      f0      :     0.000505  f :     0.004022
      f+1     :     0.000283
      f-1     :     0.000315
      f+2     :     0.000131
      f-2     :     0.000832
      f+3     :     0.001044
      f-3     :     0.000913
  5 O s       :     3.387465  s :     3.387465
      pz      :     1.369375  p :     4.293425
      px      :     1.463569
      py      :     1.460481
      dz2     :     0.026300  d :     0.205800
      dxz     :     0.028362
      dyz     :     0.026806
      dx2y2   :     0.046470
      dxy     :     0.077863
      f0      :     0.000659  f :     0.006718
      f+1     :     0.000667
      f-1     :     0.000645
      f+2     :     0.000105
      f-2     :     0.001198
      f+3     :     0.001717
      f-3     :     0.001727
  6 O s       :     3.383966  s :     3.383966
      pz      :     1.416382  p :     4.273361
      px      :     1.415546
      py      :     1.441433
      dz2     :     0.029324  d :     0.200370
      dxz     :     0.039908
      dyz     :     0.051000
      dx2y2   :     0.031678
      dxy     :     0.048460
      f0      :     0.000695  f :     0.006874
      f+1     :     0.000674
      f-1     :     0.000987
      f+2     :     0.000961
      f-2     :     0.001890
      f+3     :     0.000884
      f-3     :     0.000783
  7 O s       :     3.380178  s :     3.380178
      pz      :     1.501472  p :     4.278420
      px      :     1.412578
      py      :     1.364370
      dz2     :     0.056751  d :     0.200262
      dxz     :     0.067560
      dyz     :     0.042002
      dx2y2   :     0.017207
      dxy     :     0.016742
      f0      :     0.001247  f :     0.006845
      f+1     :     0.001997
      f-1     :     0.001011
      f+2     :     0.001053
      f-2     :     0.001171
      f+3     :     0.000177
      f-3     :     0.000190
  8 C s       :     2.648900  s :     2.648900
      pz      :     0.870830  p :     2.571604
      px      :     0.942208
      py      :     0.758566
      dz2     :     0.158243  d :     0.713469
      dxz     :     0.248773
      dyz     :     0.094270
      dx2y2   :     0.103214
      dxy     :     0.108970
      f0      :     0.012565  f :     0.048322
      f+1     :     0.009118
      f-1     :     0.005594
      f+2     :     0.005816
      f-2     :     0.004130
      f+3     :     0.005317
      f-3     :     0.005782
  9 C s       :     2.700613  s :     2.700613
      pz      :     0.794970  p :     2.540380
      px      :     0.964896
      py      :     0.780515
      dz2     :     0.138628  d :     0.698055
      dxz     :     0.213959
      dyz     :     0.076497
      dx2y2   :     0.143888
      dxy     :     0.125082
      f0      :     0.006280  f :     0.034345
      f+1     :     0.006153
      f-1     :     0.001835
      f+2     :     0.005773
      f-2     :     0.002709
      f+3     :     0.006213
      f-3     :     0.005382
 10 C s       :     2.578557  s :     2.578557
      pz      :     0.863893  p :     2.552589
      px      :     0.825163
      py      :     0.863532
      dz2     :     0.193398  d :     0.901199
      dxz     :     0.204766
      dyz     :     0.158503
      dx2y2   :     0.152219
      dxy     :     0.192312
      f0      :     0.008107  f :     0.056412
      f+1     :     0.009803
      f-1     :     0.007343
      f+2     :     0.009047
      f-2     :     0.008125
      f+3     :     0.007711
      f-3     :     0.006276
 11 C s       :     2.609123  s :     2.609123
      pz      :     0.841566  p :     2.322745
      px      :     0.740231
      py      :     0.740948
      dz2     :     0.351471  d :     1.395735
      dxz     :     0.355645
      dyz     :     0.292658
      dx2y2   :     0.191823
      dxy     :     0.204137
      f0      :     0.028058  f :     0.160107
      f+1     :     0.042742
      f-1     :     0.024667
      f+2     :     0.022879
      f-2     :     0.020455
      f+3     :     0.010146
      f-3     :     0.011160
 12 O s       :     3.278110  s :     3.278110
      pz      :     1.440225  p :     4.294062
      px      :     1.429653
      py      :     1.424184
      dz2     :     0.083721  d :     0.298169
      dxz     :     0.069838
      dyz     :     0.075195
      dx2y2   :     0.041057
      dxy     :     0.028359
      f0      :     0.001948  f :     0.006372
      f+1     :     0.001455
      f-1     :     0.001792
      f+2     :     0.000516
      f-2     :     0.000517
      f+3     :     0.000089
      f-3     :     0.000055
 13 O s       :     3.174021  s :     3.174021
      pz      :     1.495355  p :     4.245439
      px      :     1.358165
      py      :     1.391919
      dz2     :     0.088085  d :     0.520307
      dxz     :     0.113450
      dyz     :     0.079831
      dx2y2   :     0.117748
      dxy     :     0.121192
      f0      :     0.000830  f :     0.007203
      f+1     :     0.001526
      f-1     :     0.000614
      f+2     :     0.001269
      f-2     :     0.001242
      f+3     :     0.000668
      f-3     :     0.001053
 14 C s       :     2.619321  s :     2.619321
      pz      :     0.695249  p :     2.362688
      px      :     0.831460
      py      :     0.835979
      dz2     :     0.309797  d :     1.087353
      dxz     :     0.202166
      dyz     :     0.185379
      dx2y2   :     0.199662
      dxy     :     0.190348
      f0      :     0.015428  f :     0.082519
      f+1     :     0.013374
      f-1     :     0.016413
      f+2     :     0.011624
      f-2     :     0.012057
      f+3     :     0.007311
      f-3     :     0.006312
 15 O s       :     3.160220  s :     3.160220
      pz      :     1.398007  p :     4.246017
      px      :     1.428453
      py      :     1.419556
      dz2     :     0.103347  d :     0.440241
      dxz     :     0.086724
      dyz     :     0.100586
      dx2y2   :     0.081253
      dxy     :     0.068330
      f0      :     0.000973  f :     0.005480
      f+1     :     0.000894
      f-1     :     0.000984
      f+2     :     0.000887
      f-2     :     0.000769
      f+3     :     0.000344
      f-3     :     0.000630
 16 H s       :     0.518626  s :     0.518626
      pz      :     0.114902  p :     0.596649
      px      :     0.327318
      py      :     0.154428
      dz2     :     0.010761  d :     0.090789
      dxz     :     0.018832
      dyz     :     0.007345
      dx2y2   :     0.028031
      dxy     :     0.025820
 17 C s       :     2.632051  s :     2.632051
      pz      :     0.916870  p :     2.536899
      px      :     0.830263
      py      :     0.789766
      dz2     :     0.079043  d :     0.575503
      dxz     :     0.159774
      dyz     :     0.082206
      dx2y2   :     0.120759
      dxy     :     0.133721
      f0      :     0.005858  f :     0.061144
      f+1     :     0.007163
      f-1     :     0.008426
      f+2     :     0.005899
      f-2     :     0.010148
      f+3     :     0.013167
      f-3     :     0.010483
 18 H s       :     0.704874  s :     0.704874
      pz      :     0.104727  p :     0.254217
      px      :     0.088668
      py      :     0.060822
      dz2     :     0.007540  d :     0.029014
      dxz     :     0.008644
      dyz     :     0.005139
      dx2y2   :     0.003705
      dxy     :     0.003985
 19 H s       :     0.693745  s :     0.693745
      pz      :     0.118744  p :     0.264816
      px      :     0.084161
      py      :     0.061911
      dz2     :     0.009621  d :     0.028915
      dxz     :     0.008627
      dyz     :     0.005456
      dx2y2   :     0.002113
      dxy     :     0.003098
 20 H s       :     0.684636  s :     0.684636
      pz      :     0.074570  p :     0.282555
      px      :     0.102503
      py      :     0.105482
      dz2     :     0.003188  d :     0.028981
      dxz     :     0.003629
      dyz     :     0.006478
      dx2y2   :     0.007558
      dxy     :     0.008127
 21 H s       :     0.700293  s :     0.700293
      pz      :     0.118657  p :     0.306248
      px      :     0.101288
      py      :     0.086303
      dz2     :     0.008532  d :     0.029711
      dxz     :     0.008784
      dyz     :     0.005276
      dx2y2   :     0.003344
      dxy     :     0.003775
 22 H s       :     0.653281  s :     0.653281
      pz      :     0.066938  p :     0.247226
      px      :     0.074383
      py      :     0.105905
      dz2     :     0.003669  d :     0.029760
      dxz     :     0.002173
      dyz     :     0.007077
      dx2y2   :     0.008540
      dxy     :     0.008301
 23 H s       :     0.705243  s :     0.705243
      pz      :     0.100054  p :     0.251559
      px      :     0.077057
      py      :     0.074448
      dz2     :     0.008594  d :     0.028329
      dxz     :     0.007915
      dyz     :     0.006129
      dx2y2   :     0.002801
      dxy     :     0.002891
 24 H s       :     0.668105  s :     0.668105
      pz      :     0.061035  p :     0.262289
      px      :     0.084897
      py      :     0.116356
      dz2     :     0.003576  d :     0.030063
      dxz     :     0.001304
      dyz     :     0.006581
      dx2y2   :     0.009370
      dxy     :     0.009231


                      *****************************
                      * MAYER POPULATION ANALYSIS *
                      *****************************

  NA   - Mulliken gross atomic population
  ZA   - Total nuclear charge
  QA   - Mulliken gross atomic charge
  VA   - Mayer's total valence
  BVA  - Mayer's bonded valence
  FA   - Mayer's free valence

  ATOM       NA         ZA         QA         VA         BVA        FA
  0 Re    15.3301    15.0000    -0.3301     6.4068     6.4068     0.0000
  1 C      5.3291     6.0000     0.6709     3.1205     3.1205     0.0000
  2 C      5.4496     6.0000     0.5504     3.5318     3.5318     0.0000
  3 C      5.6306     6.0000     0.3694     3.3310     3.3310    -0.0000
  4 Br    35.5934    35.0000    -0.5934     0.7457     0.7457     0.0000
  5 O      8.4156     8.0000    -0.4156     2.0902     2.0902    -0.0000
  6 O      8.3318     8.0000    -0.3318     2.1922     2.1922    -0.0000
  7 O      8.3750     8.0000    -0.3750     2.1580     2.1580    -0.0000
  8 C      6.6296     6.0000    -0.6296     3.8753     3.8753    -0.0000
  9 C      5.8810     6.0000     0.1190     3.6150     3.6150    -0.0000
 10 C      4.4957     6.0000     1.5043     2.8056     2.8056    -0.0000
 11 C      5.7054     6.0000     0.2946     3.1070     3.1070    -0.0000
 12 O      8.6688     8.0000    -0.6688     1.6006     1.6006     0.0000
 13 O      8.3115     8.0000    -0.3115     1.9391     1.9391    -0.0000
 14 C      6.0590     6.0000    -0.0590     4.2477     4.2477    -0.0000
 15 O      8.4910     8.0000    -0.4910     1.8680     1.8680     0.0000
 16 H      0.5622     1.0000     0.4378     0.7197     0.7197     0.0000
 17 C      5.9785     6.0000     0.0215     3.8562     3.8562    -0.0000
 18 H      0.9498     1.0000     0.0502     1.0251     1.0251     0.0000
 19 H      0.9078     1.0000     0.0922     1.0152     1.0152    -0.0000
 20 H      0.9170     1.0000     0.0830     1.0663     1.0663    -0.0000
 21 H      1.0110     1.0000    -0.0110     1.0787     1.0787    -0.0000
 22 H      1.0292     1.0000    -0.0292     0.8381     0.8381     0.0000
 23 H      1.0607     1.0000    -0.0607     1.0354     1.0354     0.0000
 24 H      0.8863     1.0000     0.1137     0.8864     0.8864    -0.0000

  Mayer bond orders larger than 0.100000
B(  0-Re,  1-C ) :   1.2593 B(  0-Re,  2-C ) :   1.5317 B(  0-Re,  3-C ) :   1.5448 
B(  0-Re,  4-Br) :   0.2378 B(  0-Re,  5-O ) :   0.1663 B(  0-Re,  6-O ) :   0.1445 
B(  0-Re,  7-O ) :   0.1453 B(  0-Re,  9-C ) :   0.4640 B(  0-Re, 14-C ) :   0.4022 
B(  0-Re, 15-O ) :   0.4655 B(  1-C ,  2-C ) :  -0.1255 B(  1-C ,  6-O ) :   1.9910 
B(  2-C ,  4-Br) :   0.1332 B(  2-C ,  7-O ) :   1.9296 B(  2-C ,  9-C ) :   0.1571 
B(  3-C ,  5-O ) :   1.8430 B(  4-Br, 11-C ) :   0.1626 B(  4-Br, 16-H ) :  -0.1163 
B(  8-C ,  9-C ) :   1.5562 B(  8-C , 10-C ) :   0.6837 B(  8-C , 13-O ) :   0.1400 
B(  8-C , 14-C ) :   0.2394 B(  8-C , 23-H ) :   1.1944 B(  9-C , 10-C ) :   0.1013 
B(  9-C , 14-C ) :   0.2311 B(  9-C , 21-H ) :   1.0476 B(  9-C , 23-H ) :  -0.1149 
B( 10-C , 11-C ) :   0.2424 B( 10-C , 13-O ) :   0.1027 B( 10-C , 14-C ) :   0.9512 
B( 10-C , 22-H ) :   0.7003 B( 11-C , 12-O ) :   1.2045 B( 11-C , 13-O ) :   0.7480 
B( 11-C , 14-C ) :   0.5019 B( 12-O , 13-O ) :   0.1039 B( 12-O , 14-C ) :   0.1204 
B( 13-O , 17-C ) :   0.8558 B( 14-C , 15-O ) :   0.5580 B( 14-C , 24-H ) :   0.9793 
B( 15-O , 16-H ) :   0.8381 B( 15-O , 24-H ) :  -0.1172 B( 17-C , 18-H ) :   1.0353 
B( 17-C , 19-H ) :   0.9554 B( 17-C , 20-H ) :   0.9619 

-------
TIMINGS
-------

Total SCF time: 0 days 0 hours 6 min 58 sec 

Total time                  ....     418.082 sec
Sum of individual times     ....     417.079 sec  ( 99.8%)

Fock matrix formation       ....     410.107 sec  ( 98.1%)
  XC integration            ....      10.136 sec  (  2.5% of F)
    Basis function eval.    ....       0.941 sec  (  9.3% of XC)
    Density eval.           ....       3.481 sec  ( 34.3% of XC)
    XC-Functional eval.     ....       0.110 sec  (  1.1% of XC)
    XC-Potential eval.      ....       5.111 sec  ( 50.4% of XC)
Diagonalization             ....       2.465 sec  (  0.6%)
Density matrix formation    ....       0.082 sec  (  0.0%)
Population analysis         ....       0.148 sec  (  0.0%)
Initial guess               ....       2.226 sec  (  0.5%)
Orbital Transformation      ....       0.000 sec  (  0.0%)
Orbital Orthonormalization  ....       0.000 sec  (  0.0%)
DIIS solution               ....       1.302 sec  (  0.3%)
Grid generation             ....       0.749 sec  (  0.2%)


-------------------------------------------------------------------------------
                          DFT DISPERSION CORRECTION                            
                                                                               
                              DFTD3 V3.1  Rev 1                                
                          USING Becke-Johnson damping                          
-------------------------------------------------------------------------------
The TPSSH functional is recognized
Active option DFTDOPT                   ...         4   

molecular C6(AA) [au] = 11895.157999 


            DFT-D V3
 parameters
 s6 scaling factor         :     1.0000 
 a1 scaling factor         :     0.4529 
 s8 scaling factor         :     2.2382 
 a2 scaling factor         :     4.6550 
 ad hoc parameters k1-k3   :    16.0000     1.3333    -4.0000 

 Edisp/kcal,au: -29.206202435199  -0.046543041224 
 E6   /kcal   : -12.399015234 
 E8   /kcal   : -16.807187201 
 % E8         :  57.546636673 

-------------------------   ----------------
Dispersion correction           -0.046543041
-------------------------   ----------------


-------------------------   --------------------
FINAL SINGLE POINT ENERGY     -3451.969864677537
-------------------------   --------------------


                            ***************************************
                            *     ORCA property calculations      *
                            ***************************************

                                    ---------------------
                                    Active property flags
                                    ---------------------
   (+) Dipole Moment


------------------------------------------------------------------------------
                       ORCA ELECTRIC PROPERTIES CALCULATION
------------------------------------------------------------------------------

Dipole Moment Calculation                       ... on
Quadrupole Moment Calculation                   ... off
Polarizability Calculation                      ... off
GBWName                                         ... TMB20_T2.gbw
Electron density file                           ... TMB20_T2.scfp
The origin for moment calculation is the CENTER OF MASS  = ( 0.189534, -0.079925 -0.006726)

-------------
DIPOLE MOMENT
-------------
                                X             Y             Z
Electronic contribution:    141.04217      -0.74913      -7.46683
Nuclear contribution   :   -143.25315       2.56406       7.67326
                        -----------------------------------------
Total Dipole Moment    :     -2.21098       1.81493       0.20644
                        -----------------------------------------
Magnitude (a.u.)       :      2.86793
Magnitude (Debye)      :      7.28970



--------------------
Rotational spectrum 
--------------------
 
Rotational constants in cm-1:     0.017495     0.008280     0.007326 
Rotational constants in MHz :   524.496520   248.224980   219.630549 

 Dipole components along the rotational axes: 
x,y,z [a.u.] :    -2.181491     1.842091     0.269874 
x,y,z [Debye]:    -5.544910     4.682223     0.685966 

 

Timings for individual modules:

Sum of individual times         ...      422.340 sec (=   7.039 min)
GTO integral calculation        ...        3.873 sec (=   0.065 min)   0.9 %
SCF iterations                  ...      418.466 sec (=   6.974 min)  99.1 %
                             ****ORCA TERMINATED NORMALLY****
TOTAL RUN TIME: 0 days 0 hours 7 minutes 3 seconds 24 msec
