
                                 *****************
                                 * O   R   C   A *
                                 *****************

           --- An Ab Initio, DFT and Semiempirical electronic structure package ---

                  #######################################################
                  #                        -***-                        #
                  #          Department of theory and spectroscopy      #
                  #               Directorship: Frank Neese             #
                  #        Max Planck Institute fuer Kohlenforschung    #
                  #                Kaiser Wilhelm Platz 1               #
                  #                 D-45470 Muelheim/Ruhr               #
                  #                      Germany                        #
                  #                                                     #
                  #                  All rights reserved                #
                  #                        -***-                        #
                  #######################################################


                         Program Version 4.2.0 -  RELEASE  -


 With contributions from (in alphabetic order):
   Daniel Aravena         : Magnetic Suceptibility
   Michael Atanasov       : Ab Initio Ligand Field Theory (pilot matlab implementation)
   Alexander A. Auer      : GIAO ZORA, VPT2
   Ute Becker             : Parallelization
   Giovanni Bistoni       : ED, misc. LED, open-shell LED, HFLED
   Martin Brehm           : Molecular dynamics
   Dmytro Bykov           : SCF Hessian
   Vijay G. Chilkuri      : MRCI spin determinant printing, contributions to CSF-ICE
   Dipayan Datta          : RHF DLPNO-CCSD density
   Achintya Kumar Dutta   : EOM-CC, STEOM-CC
   Dmitry Ganyushin       : Spin-Orbit,Spin-Spin,Magnetic field MRCI
   Miquel Garcia          : C-PCM Hessian, Gaussian charge scheme
   Yang Guo               : DLPNO-NEVPT2, CIM, IAO-localization
   Andreas Hansen         : Spin unrestricted coupled pair/coupled cluster methods
   Benjamin Helmich-Paris : CASSCF linear response (MC-RPA)
   Lee Huntington         : MR-EOM, pCC
   Robert Izsak           : Overlap fitted RIJCOSX, COSX-SCS-MP3, EOM
   Christian Kollmar      : KDIIS, OOCD, Brueckner-CCSD(T), CCSD density
   Simone Kossmann        : Meta GGA functionals, TD-DFT gradient, OOMP2, MP2 Hessian
   Martin Krupicka        : AUTO-CI
   Lucas Lang             : DCDCAS
   Dagmar Lenk            : GEPOL surface, SMD
   Dimitrios Liakos       : Extrapolation schemes; Compound Job, initial MDCI parallelization
   Dimitrios Manganas     : Further ROCIS development; embedding schemes
   Dimitrios Pantazis     : SARC Basis sets
   Taras Petrenko         : DFT Hessian,TD-DFT gradient, ASA, ECA, R-Raman, ABS, FL, XAS/XES, NRVS
   Peter Pinski           : DLPNO-MP2, DLPNO-MP2 Gradient
   Christoph Reimann      : Effective Core Potentials
   Marius Retegan         : Local ZFS, SOC
   Christoph Riplinger    : Optimizer, TS searches, QM/MM, DLPNO-CCSD(T), (RO)-DLPNO pert. Triples
   Tobias Risthaus        : Range-separated hybrids, TD-DFT gradient, RPA, STAB
   Michael Roemelt        : Original ROCIS implementation
   Masaaki Saitow         : Open-shell DLPNO-CCSD energy and density
   Barbara Sandhoefer     : DKH picture change effects
   Avijit Sen             : IP-ROCIS
   Kantharuban Sivalingam : CASSCF convergence, NEVPT2, FIC-MRCI
   Bernardo de Souza      : ESD, SOC TD-DFT
   Georgi Stoychev        : AutoAux, RI-MP2 NMR
   Willem Van den Heuvel  : Paramagnetic NMR
   Boris Wezisla          : Elementary symmetry handling
   Frank Wennmohs         : Technical directorship


 We gratefully acknowledge several colleagues who have allowed us to
 interface, adapt or use parts of their codes:
   Stefan Grimme, W. Hujo, H. Kruse,             : VdW corrections, initial TS optimization,
                  C. Bannwarth                     DFT functionals, gCP, sTDA/sTD-DF
   Ed Valeev, F. Pavosevic, A. Kumar             : LibInt (2-el integral package), F12 methods
   Garnet Chan, S. Sharma, J. Yang, R. Olivares  : DMRG
   Ulf Ekstrom                                   : XCFun DFT Library
   Mihaly Kallay                                 : mrcc  (arbitrary order and MRCC methods)
   Andreas Klamt, Michael Diedenhofen            : otool_cosmo (COSMO solvation model)
   Jiri Pittner, Ondrej Demel                    : Mk-CCSD
   Frank Weinhold                                : gennbo (NPA and NBO analysis)
   Christopher J. Cramer and Donald G. Truhlar   : smd solvation model
   Lars Goerigk                                  : TD-DFT with DH, B97 family of functionals
   V. Asgeirsson, H. Jonsson                     : NEB implementation
   FAccTs GmbH                                   : IRC, NEB, NEB-TS, Multilevel, MM, QM/MM, CI optimization
   S Lehtola, MJT Oliveira, MAL Marques          : LibXC Library


 Your calculation uses the libint2 library for the computation of 2-el integrals
 For citations please refer to: http://libint.valeyev.net

 Your ORCA version has been built with support for libXC version: 4.2.3
 For citations please refer to: https://tddft.org/programs/libxc/

 This ORCA versions uses:
   CBLAS   interface :  Fast vector & matrix operations
   LAPACKE interface :  Fast linear algebra routines
   SCALAPACK package :  Parallel linear algebra routines


Your calculation utilizes the atom-pairwise dispersion correction
with the Becke-Johnson damping scheme (D3BJ)
Cite in your paper:
S.Grimme, S.Ehrlich, L.Goerigk, J Comput Chem, (2011), 32, 1456–1465 
S.Grimme, J.Antony, S.Ehrlich and H.Krieg, J.Chem.Phys., 132, (2010), 154104 
   

----- Orbital basis set information -----
Your calculation utilizes the basis: def2-TZVPPD
   F. Weigend and R. Ahlrichs, Phys. Chem. Chem. Phys. 7, 3297 (2005).
   D. Rappoport and F. Furche, J. Chem. Phys. 133 134105 (2010).

----- AuxJK basis set information -----
Your calculation utilizes the auxiliary basis: def2/JK
   H-Ba, Hf-Rn: F. Weigend, J. Comput. Chem. 29, 167 (2008).

cite the ECPs for Au [Def2-ECP] as follows:
Ce-Yb(ecp-28): M. Dolg, H. Stoll, H.Preuss, J. Chem. Phys., 1989, 90, 1730-1734.
Y-Cd(ecp-28), Hf-Hg(ecp-46): D. Andrae,U. Haeussermann, M. Dolg, H. Stoll, H. Preuss, Theor. Chim. Acta, 1990, 77, 123-141.
In-Sb(ecp-28), Tl-Bi(ecp-46): B. Metz, H. Stoll, M. Dolg, J. Chem. Phys., 2000, 113, 2563-2569.
Te-Xe(ecp-28), Po-Rn(ecp-46): K. A. Peterson, D. Figgen, E. Goll, H. Stoll, M. Dolg, J. Chem. Phys., 2003, 119, 11113-11123.
Rb(ecp-28), Cs(ecp-46): T. Leininger, A. Nicklass, W. Kuechle, H. Stoll, M. Dolg, A. Bergner, Chem. Phys. Lett., 1996, 255, 274-280.
Sr(ecp-28), Ba(ecp-46): M. Kaupp, P. V. Schleyer, H. Stoll and H. Preuss, J. Chem. Phys., 1991, 94, 1360-1366.
La(ecp-46): M. Dolg, H. Stoll, A. Savin, H. Preuss, Theor. Chim. Acta, 1989, 75, 173-194.
Lu(ecp-28): X. Cao, M. Dolg, J. Chem. Phys., 2001, 115, 7348-7355.

ECP parameters for Au [Def2-ECP] have been obtained from:
TURBOMOLE (7.0.2)

================================================================================
                                        WARNINGS
                       Please study these warnings very carefully!
================================================================================


INFO   : the flag for use of LIBINT has been found!

================================================================================
                                       INPUT FILE
================================================================================
NAME = TMB26_T1.in
|  1> #
|  2> # TMB26_T1 TPSSh-D3BJ/Def2-TZVPPD
|  3> #
|  4> ! tpssh d3bj def2-tzvppd def2/jk grid4 nofinalgrid
|  5> 
|  6> *xyz 0 1
|  7> C       -2.466566    1.069840    0.238308 
|  8> C       -2.451721    0.070166    1.223311 
|  9> C       -3.390268   -0.966147    1.168446 
| 10> C       -4.328348   -1.022612    0.143865 
| 11> C       -4.333048   -0.013813   -0.819144 
| 12> C       -3.403006    1.027077   -0.774806 
| 13> H       -1.851874    0.172622    2.118430 
| 14> H       -5.044959   -1.827220    0.098719 
| 15> H       -3.408268    1.764270   -1.566273 
| 16> C       -1.433505    2.123552    0.250561 
| 17> C       -1.778108    3.466931    0.185146 
| 18> C       -0.064979    1.782593    0.286078 
| 19> C       -0.802488    4.453319    0.169404 
| 20> H       -2.826505    3.739000    0.161874 
| 21> C        0.907771    2.775168    0.263672 
| 22> C        0.538977    4.108677    0.211691 
| 23> H       -1.095064    5.495288    0.125305 
| 24> H        1.951961    2.493561    0.298441 
| 25> H        1.301937    4.876538    0.199556 
| 26> C        0.257789    0.377788    0.312230 
| 27> C       -0.304042   -0.722217    0.502541 
| 28> H       -0.515543   -1.762216    0.625327 
| 29> Au       2.138195   -0.491597   -0.140080 
| 30> Cl       1.419476   -1.043843   -2.240555 
| 31> Cl       4.263347   -1.139807   -0.651257 
| 32> Cl       2.780432    0.097050    1.979491 
| 33> O       -3.309425   -1.870502    2.160546 
| 34> O       -5.195970    0.025756   -1.845512 
| 35> C       -4.244039   -2.927838    2.190952 
| 36> H       -4.158173   -3.562934    1.304307 
| 37> H       -4.005337   -3.514103    3.075014 
| 38> H       -5.267556   -2.550903    2.273203 
| 39> C       -6.143948   -1.010635   -1.979012 
| 40> H       -6.717344   -0.779100   -2.873359 
| 41> H       -5.656738   -1.981777   -2.105696 
| 42> H       -6.818943   -1.047780   -1.118843 
| 43> *
| 44> 
| 45> %maxcore 5000
| 46> 
| 47> %pal
| 48> nprocs = 24
| 49> end
| 50> 
| 51> 
| 52>                          ****END OF INPUT****
================================================================================

                       ****************************
                       * Single Point Calculation *
                       ****************************

---------------------------------
CARTESIAN COORDINATES (ANGSTROEM)
---------------------------------
  C     -2.466566    1.069840    0.238308
  C     -2.451721    0.070166    1.223311
  C     -3.390268   -0.966147    1.168446
  C     -4.328348   -1.022612    0.143865
  C     -4.333048   -0.013813   -0.819144
  C     -3.403006    1.027077   -0.774806
  H     -1.851874    0.172622    2.118430
  H     -5.044959   -1.827220    0.098719
  H     -3.408268    1.764270   -1.566273
  C     -1.433505    2.123552    0.250561
  C     -1.778108    3.466931    0.185146
  C     -0.064979    1.782593    0.286078
  C     -0.802488    4.453319    0.169404
  H     -2.826505    3.739000    0.161874
  C      0.907771    2.775168    0.263672
  C      0.538977    4.108677    0.211691
  H     -1.095064    5.495288    0.125305
  H      1.951961    2.493561    0.298441
  H      1.301937    4.876538    0.199556
  C      0.257789    0.377788    0.312230
  C     -0.304042   -0.722217    0.502541
  H     -0.515543   -1.762216    0.625327
  Au     2.138195   -0.491597   -0.140080
  Cl     1.419476   -1.043843   -2.240555
  Cl     4.263347   -1.139807   -0.651257
  Cl     2.780432    0.097050    1.979491
  O     -3.309425   -1.870502    2.160546
  O     -5.195970    0.025756   -1.845512
  C     -4.244039   -2.927838    2.190952
  H     -4.158173   -3.562934    1.304307
  H     -4.005337   -3.514103    3.075014
  H     -5.267556   -2.550903    2.273203
  C     -6.143948   -1.010635   -1.979012
  H     -6.717344   -0.779100   -2.873359
  H     -5.656738   -1.981777   -2.105696
  H     -6.818943   -1.047780   -1.118843

----------------------------
CARTESIAN COORDINATES (A.U.)
----------------------------
  NO LB      ZA    FRAG     MASS         X           Y           Z
   0 C     6.0000    0    12.011   -4.661134    2.021705    0.450337
   1 C     6.0000    0    12.011   -4.633081    0.132595    2.311723
   2 C     6.0000    0    12.011   -6.406678   -1.825753    2.208043
   3 C     6.0000    0    12.011   -8.179392   -1.932457    0.271865
   4 C     6.0000    0    12.011   -8.188274   -0.026103   -1.547958
   5 C     6.0000    0    12.011   -6.430749    1.940894   -1.464171
   6 H     1.0000    0     1.008   -3.499535    0.326208    4.003253
   7 H     1.0000    0     1.008   -9.533591   -3.452945    0.186552
   8 H     1.0000    0     1.008   -6.440693    3.333987   -2.959827
   9 C     6.0000    0    12.011   -2.708932    4.012932    0.473492
  10 C     6.0000    0    12.011   -3.360137    6.551550    0.349875
  11 C     6.0000    0    12.011   -0.122793    3.368613    0.540609
  12 C     6.0000    0    12.011   -1.516483    8.415553    0.320127
  13 H     1.0000    0     1.008   -5.341320    7.065686    0.305898
  14 C     6.0000    0    12.011    1.715439    5.244307    0.498268
  15 C     6.0000    0    12.011    1.018519    7.764274    0.400038
  16 H     1.0000    0     1.008   -2.069371   10.384589    0.236792
  17 H     1.0000    0     1.008    3.688672    4.712147    0.563972
  18 H     1.0000    0     1.008    2.460304    9.215321    0.377106
  19 C     6.0000    0    12.011    0.487151    0.713916    0.590029
  20 C     6.0000    0    12.011   -0.574556   -1.364792    0.949665
  21 H     1.0000    0     1.008   -0.974235   -3.330106    1.181697
  22 Au   19.0000*   0   196.966    4.040603   -0.928984   -0.264713
  23 Cl   17.0000    0    35.453    2.682421   -1.972577   -4.234035
  24 Cl   17.0000    0    35.453    8.056558   -2.153923   -1.230697
  25 Cl   17.0000    0    35.453    5.254255    0.183398    3.740696
  26 O     8.0000    0    15.999   -6.253907   -3.534737    4.082840
  27 O     8.0000    0    15.999   -9.818960    0.048672   -3.487512
  28 C     6.0000    0    12.011   -8.020071   -5.532812    4.140299
  29 H     1.0000    0     1.008   -7.857808   -6.732969    2.464783
  30 H     1.0000    0     1.008   -7.568990   -6.640692    5.810934
  31 H     1.0000    0     1.008   -9.954238   -4.820508    4.295731
  32 C     6.0000    0    12.011  -11.610379   -1.909823   -3.739791
  33 H     1.0000    0     1.008  -12.693941   -1.472286   -5.429862
  34 H     1.0000    0     1.008  -10.689686   -3.745016   -3.979189
  35 H     1.0000    0     1.008  -12.885935   -1.980017   -2.114307
* core charge reduced due to ECP

--------------------------------
INTERNAL COORDINATES (ANGSTROEM)
--------------------------------
 C      0   0   0     0.000000000000     0.00000000     0.00000000
 C      1   0   0     1.403495418699     0.00000000     0.00000000
 C      2   1   0     1.399223096366   119.53276541     0.00000000
 C      3   2   1     1.390305221232   120.76777659     0.56713879
 C      4   3   2     1.394662628194   118.80014319   358.93459087
 C      1   2   3     1.380271177981   120.01607272     0.04553466
 H      2   1   3     1.082382409089   121.25436088   191.05034674
 H      4   3   2     1.078407863612   120.63163333   179.44066236
 H      6   1   2     1.081619720596   121.28402772   182.47566261
 C      1   2   3     1.475694461829   119.69375609   183.30369211
 C     10   1   2     1.388415459247   121.11384380   230.91568236
 C     10   1   2     1.410807538131   120.44503768    52.96440711
 C     11  10   1     1.387459362110   120.92255539   181.32770406
 H     11  10   1     1.083374079602   118.95894645     2.27522628
 C     12  10   1     1.389945942100   120.39002405   178.37843777
 C     15  12  10     1.384542268000   120.13101964     0.26294049
 H     13  11  10     1.083164269415   119.63149452   180.44392688
 H     15  12  10     1.082055517018   119.27423663   179.58505439
 H     16  15  12     1.082527475469   119.72681922   179.69168713
 C     12  10   1     1.441644962171   116.94507399   359.86318017
 C     20  12  10     1.249753315381   139.44639220   346.60866294
 H     21  20  12     1.068366507711   164.43034754   181.85624842
 Au    20  12  10     2.120457813577   126.45525862   162.73040331
 Cl    23  20  12     2.287690510341    90.92954707   260.07627184
 Cl    23  20  12     2.279857265825   172.31347705     4.99329977
 Cl    23  20  12     2.291627124735    86.89985098    80.05931556
 O      3   2   1     1.344862805893   115.39103503   180.65748207
 O      5   4   3     1.341503393685   123.49012071   180.08533394
 C     27   3   2     1.411519490028   118.67273687   178.48125308
 H     29  27   3     1.094010628466   111.43387399    62.42051528
 H     29  27   3     1.087313623051   106.02436184   181.11673557
 H     29  27   3     1.093815464562   111.28839058   299.83453901
 C     28   5   4     1.410883001303   118.87688996   359.19689575
 H     33  28   5     1.087312275958   106.00599203   180.72169578
 H     33  28   5     1.093864344478   111.33665789   299.35132433
 H     33  28   5     1.094024090051   111.41366289    62.05808211

---------------------------
INTERNAL COORDINATES (A.U.)
---------------------------
 C      0   0   0     0.000000000000     0.00000000     0.00000000
 C      1   0   0     2.652221971555     0.00000000     0.00000000
 C      2   1   0     2.644148452388   119.53276541     0.00000000
 C      3   2   1     2.627296110690   120.76777659     0.56713879
 C      4   3   2     2.635530416502   118.80014319   358.93459087
 C      1   2   3     2.608334516929   120.01607272     0.04553466
 H      2   1   3     2.045406325353   121.25436088   191.05034674
 H      4   3   2     2.037895522894   120.63163333   179.44066236
 H      6   1   2     2.043965052975   121.28402772   182.47566261
 C      1   2   3     2.788658390202   119.69375609   183.30369211
 C     10   1   2     2.623724978079   121.11384380   230.91568236
 C     10   1   2     2.666039874738   120.44503768    52.96440711
 C     11  10   1     2.621918216334   120.92255539   181.32770406
 H     11  10   1     2.047280311037   118.95894645     2.27522628
 C     12  10   1     2.626617171525   120.39002405   178.37843777
 C     15  12  10     2.616405707358   120.13101964     0.26294049
 H     13  11  10     2.046883827244   119.63149452   180.44392688
 H     15  12  10     2.044788588863   119.27423663   179.58505439
 H     16  15  12     2.045680461082   119.72681922   179.69168713
 C     12  10   1     2.724314160850   116.94507399   359.86318017
 C     20  12  10     2.361691501031   139.44639220   346.60866294
 H     21  20  12     2.018920110227   164.43034754   181.85624842
 Au    20  12  10     4.007084546195   126.45525862   162.73040331
 Cl    23  20  12     4.323108543714    90.92954707   260.07627184
 Cl    23  20  12     4.308305856839   172.31347705     4.99329977
 Cl    23  20  12     4.330547666814    86.89985098    80.05931556
 O      3   2   1     2.541422390834   115.39103503   180.65748207
 O      5   4   3     2.535074021791   123.49012071   180.08533394
 C     27   3   2     2.667385268845   118.67273687   178.48125308
 H     29  27   3     2.067380475400   111.43387399    62.42051528
 H     29  27   3     2.054724969249   106.02436184   181.11673557
 H     29  27   3     2.067011669070   111.28839058   299.83453901
 C     28   5   4     2.666182479467   118.87688996   359.19689575
 H     33  28   5     2.054722423612   106.00599203   180.72169578
 H     33  28   5     2.067104038724   111.33665789   299.35132433
 H     33  28   5     2.067405914108   111.41366289    62.05808211

---------------------
BASIS SET INFORMATION
---------------------
There are 5 groups of distinct atoms

 Group   1 Type C   : 12s6p3d1f contracted to 6s3p3d1f pattern {621111/411/111/1}
 Group   2 Type H   : 5s3p1d contracted to 3s3p1d pattern {311/111/1}
 Group   3 Type Au  : 8s8p6d2f1g contracted to 6s5p3d2f1g pattern {311111/41111/411/11/1}
 Group   4 Type Cl  : 15s10p4d1f contracted to 6s6p4d1f pattern {732111/511111/1111/1}
 Group   5 Type O   : 12s7p3d1f contracted to 6s4p3d1f pattern {621111/4111/111/1}

Atom   0C    basis set group =>   1
Atom   1C    basis set group =>   1
Atom   2C    basis set group =>   1
Atom   3C    basis set group =>   1
Atom   4C    basis set group =>   1
Atom   5C    basis set group =>   1
Atom   6H    basis set group =>   2
Atom   7H    basis set group =>   2
Atom   8H    basis set group =>   2
Atom   9C    basis set group =>   1
Atom  10C    basis set group =>   1
Atom  11C    basis set group =>   1
Atom  12C    basis set group =>   1
Atom  13H    basis set group =>   2
Atom  14C    basis set group =>   1
Atom  15C    basis set group =>   1
Atom  16H    basis set group =>   2
Atom  17H    basis set group =>   2
Atom  18H    basis set group =>   2
Atom  19C    basis set group =>   1
Atom  20C    basis set group =>   1
Atom  21H    basis set group =>   2
Atom  22Au   basis set group =>   3
Atom  23Cl   basis set group =>   4
Atom  24Cl   basis set group =>   4
Atom  25Cl   basis set group =>   4
Atom  26O    basis set group =>   5
Atom  27O    basis set group =>   5
Atom  28C    basis set group =>   1
Atom  29H    basis set group =>   2
Atom  30H    basis set group =>   2
Atom  31H    basis set group =>   2
Atom  32C    basis set group =>   1
Atom  33H    basis set group =>   2
Atom  34H    basis set group =>   2
Atom  35H    basis set group =>   2
----------------------------------
AUXILIARY/JK BASIS SET INFORMATION
----------------------------------
There are 5 groups of distinct atoms

 Group   1 Type C   : 14s10p6d2f1g contracted to 10s8p5d1f1g pattern {5111111111/31111111/21111/2/1}
 Group   2 Type H   : 4s2p2d contracted to 2s2p2d pattern {31/11/11}
 Group   3 Type Au  : 13s12p11d9f5g3h2i contracted to 13s11p10d8f4g3h2i pattern {1111111111111/21111111111/2111111111/21111111/2111/111/11}
 Group   4 Type Cl  : 16s12p10d4f1g contracted to 13s11p9d4f1g pattern {4111111111111/21111111111/211111111/1111/1}
 Group   5 Type O   : 14s10p6d2f1g contracted to 10s8p4d2f1g pattern {5111111111/31111111/3111/11/1}

Atom   0C    basis set group =>   1
Atom   1C    basis set group =>   1
Atom   2C    basis set group =>   1
Atom   3C    basis set group =>   1
Atom   4C    basis set group =>   1
Atom   5C    basis set group =>   1
Atom   6H    basis set group =>   2
Atom   7H    basis set group =>   2
Atom   8H    basis set group =>   2
Atom   9C    basis set group =>   1
Atom  10C    basis set group =>   1
Atom  11C    basis set group =>   1
Atom  12C    basis set group =>   1
Atom  13H    basis set group =>   2
Atom  14C    basis set group =>   1
Atom  15C    basis set group =>   1
Atom  16H    basis set group =>   2
Atom  17H    basis set group =>   2
Atom  18H    basis set group =>   2
Atom  19C    basis set group =>   1
Atom  20C    basis set group =>   1
Atom  21H    basis set group =>   2
Atom  22Au   basis set group =>   3
Atom  23Cl   basis set group =>   4
Atom  24Cl   basis set group =>   4
Atom  25Cl   basis set group =>   4
Atom  26O    basis set group =>   5
Atom  27O    basis set group =>   5
Atom  28C    basis set group =>   1
Atom  29H    basis set group =>   2
Atom  30H    basis set group =>   2
Atom  31H    basis set group =>   2
Atom  32C    basis set group =>   1
Atom  33H    basis set group =>   2
Atom  34H    basis set group =>   2
Atom  35H    basis set group =>   2
-------------------------
ECP PARAMETER INFORMATION
-------------------------

 Group 1, Type Au ECP Def2-ECP (replacing 60 core electrons, lmax=3)

Atom  22Au   ECP group =>   1



           ************************************************************
           *        Program running with 24 parallel MPI-processes    *
           *              working on a common directory               *
           ************************************************************
------------------------------------------------------------------------------
                           ORCA GTO INTEGRAL CALCULATION
------------------------------------------------------------------------------

                         BASIS SET STATISTICS AND STARTUP INFO

 # of primitive gaussian shells          ...  639
 # of primitive gaussian functions       ... 1509
 # of contracted shells                  ...  402
 # of contracted basis functions         ... 1122
 Highest angular momentum                ...    4
 Maximum contraction depth               ...    7
 Integral package used                   ... LIBINT
 Integral threshhold            Thresh   ...  1.000e-10
 Primitive cut-off              TCut     ...  1.000e-11


------------------------------ INTEGRAL EVALUATION ----------------------------


 * One electron integrals 

   ECP integrals                         ... done
 Pre-screening matrix                    ... done
 Shell pair data                         ... done (   0.018 sec)



           ************************************************************
           *        Program running with 24 parallel MPI-processes    *
           *              working on a common directory               *
           ************************************************************
-------------------------------------------------------------------------------
                                 ORCA SCF
-------------------------------------------------------------------------------

------------
SCF SETTINGS
------------
Hamiltonian:
 Density Functional     Method          .... DFT(GTOs)
 Exchange Functional    Exchange        .... TPSS
 Correlation Functional Correlation     .... TPSS
 LDA part of GGA corr.  LDAOpt          .... PW91-LDA
 Gradients option       PostSCFGGA      .... off
 Hybrid DFT is turned on
   Fraction HF Exchange ScalHFX         ....  0.100000
   Scaling of DF-GGA-X  ScalDFX         ....  0.900000
   Scaling of DF-GGA-C  ScalDFC         ....  1.000000
   Scaling of DF-LDA-C  ScalLDAC        ....  1.000000
   Perturbative correction              ....  0.000000
   Density functional embedding theory  .... OFF
   NL short-range parameter             ....  5.200000


General Settings:
 Integral files         IntName         .... TMB26_T1
 Hartree-Fock type      HFTyp           .... RHF
 Total Charge           Charge          ....    0
 Multiplicity           Mult            ....    1
 Number of Electrons    NEL             ....  196
 Basis Dimension        Dim             .... 1122
 Nuclear Repulsion      ENuc            ....   2410.1440826510 Eh

Convergence Acceleration:
 DIIS                   CNVDIIS         .... on
   Start iteration      DIISMaxIt       ....    12
   Startup error        DIISStart       ....  0.200000
   # of expansion vecs  DIISMaxEq       ....     5
   Bias factor          DIISBfac        ....   1.050
   Max. coefficient     DIISMaxC        ....  10.000
 Newton-Raphson         CNVNR           .... off
 SOSCF                  CNVSOSCF        .... off
 Level Shifting         CNVShift        .... on
   Level shift para.    LevelShift      ....    0.2500
   Turn off err/grad.   ShiftErr        ....    0.0010
 Zerner damping         CNVZerner       .... off
 Static damping         CNVDamp         .... on
   Fraction old density DampFac         ....    0.7000
   Max. Damping (<1)    DampMax         ....    0.9800
   Min. Damping (>=0)   DampMin         ....    0.0000
   Turn off err/grad.   DampErr         ....    0.1000
 Fernandez-Rico         CNVRico         .... off

SCF Procedure:
 Maximum # iterations   MaxIter         ....   125
 SCF integral mode      SCFMode         .... Direct
   Integral package                     .... LIBINT
 Reset frequency        DirectResetFreq ....    20
 Integral Threshold     Thresh          ....  1.000e-10 Eh
 Primitive CutOff       TCut            ....  1.000e-11 Eh

Convergence Tolerance:
 Convergence Check Mode ConvCheckMode   .... Total+1el-Energy
 Convergence forced     ConvForced      .... 0
 Energy Change          TolE            ....  1.000e-06 Eh
 1-El. energy change                    ....  1.000e-03 Eh
 DIIS Error             TolErr          ....  1.000e-06


Diagonalization of the overlap matrix:
Smallest eigenvalue                        ... 1.773e-07
Time for diagonalization                   ...    0.202 sec
Threshold for overlap eigenvalues          ... 1.000e-08
Number of eigenvalues below threshold      ... 0
Time for construction of square roots      ...    0.146 sec
Total time needed                          ...    0.352 sec

-------------------
DFT GRID GENERATION
-------------------

General Integration Accuracy     IntAcc      ...  4.670
Radial Grid Type                 RadialGrid  ... Gauss-Chebyshev
Angular Grid (max. acc.)         AngularGrid ... Lebedev-302
Angular grid pruning method      GridPruning ... 3 (G Style)
Weight generation scheme         WeightScheme... Becke
Basis function cutoff            BFCut       ...    1.0000e-10
Integration weight cutoff        WCut        ...    1.0000e-14
Grids for H and He will be reduced by one unit

# of grid points (after initial pruning)     ... 191198 (   0.0 sec)
# of grid points (after weights+screening)   ... 168125 (   0.2 sec)
nearest neighbour list constructed           ...    0.0 sec
Grid point re-assignment to atoms done       ...    0.0 sec
Grid point division into batches done        ...    0.6 sec
Reduced shell lists constructed in    0.8 sec

Total number of grid points                  ...   168125
Total number of batches                      ...     2644
Average number of points per batch           ...       63
Average number of grid points per atom       ...     4670
Average number of shells per batch           ...   238.61 (59.36%)
Average number of basis functions per batch  ...   664.21 (59.20%)
Average number of large shells per batch     ...   184.10 (77.16%)
Average number of large basis fcns per batch ...   508.37 (76.54%)
Maximum spatial batch extension              ...   4.34,  2.55,  4.13 au
Average spatial batch extension              ...   0.05,  0.05,  0.05 au

Time for grid setup =    1.015 sec

------------------------------
INITIAL GUESS: MODEL POTENTIAL
------------------------------
Loading Hartree-Fock densities                     ... done
  calling /sw/apps/orca/orca_4_2_0_linux_x86-64_openmpi314/orca TMB26_T1_atom79.inp > TMB26_T1_atom79.out in order to generate an atomic fitting density for atom 22 (Au with ECP) on-the-fly... 
    atom 22 (Au), assumed electronic state with S=2: 1s2 2s2 2p6 3s2 3p6 4s2 3d10 4p6 5s2 4d10 5p6 6s1 4f14 5d10           ... done
Calculating cut-offs                               ... done
Setting up the integral package                    ... done
Initializing the effective Hamiltonian             ... done
Starting the Coulomb interaction                   ... done (   0.2 sec)
Reading the grid                                   ... done
Mapping shells                                     ... done
Starting the XC term evaluation                    ... done (   0.6 sec)
  promolecular density results
     # of electrons  =    255.994112152
     EX              =   -550.326339640
     EC              =    -11.080817088
     EX+EC           =   -561.407156728
Transforming the Hamiltonian                       ... done (   0.1 sec)
Diagonalizing the Hamiltonian                      ... done (   0.2 sec)
Back transforming the eigenvectors                 ... done (   0.1 sec)
Now organizing SCF variables                       ... done
                      ------------------
                      INITIAL GUESS DONE (   3.2 sec)
                      ------------------
--------------
SCF ITERATIONS
--------------
ITER       Energy         Delta-E        Max-DP      RMS-DP      [F,P]     Damp
               ***  Starting incremental Fock matrix formation  ***
  0  -2284.8701032263   0.000000000000 5.16894605  0.01123500  0.5598378 0.7000
  1  -2285.0462428023  -0.176139576074 3.91447045  0.00818981  0.3966990 0.7000
  2  -2285.1251236502  -0.078880847866 2.65337426  0.00546195  0.2786562 0.7000
                               ***Turning on DIIS***
  3  -2285.1703891713  -0.045265521097 1.67865206  0.00353348  0.1942456 0.7000
  4  -2285.2018540994  -0.031464928134 1.00072616  0.00233453  0.1348644 0.7000
  5  -2285.2240218843  -0.022167784898 1.93823834  0.00558146  0.0942451 0.0000
  6  -2285.2754358957  -0.051414011356 0.46309771  0.00095395  0.0016834 0.0000
  7  -2285.2754855127  -0.000049617031 0.46602322  0.00142382  0.0007626 0.0000
  8  -2285.2754919739  -0.000006461152 0.14597206  0.00061004  0.0010912 0.0000
  9  -2285.2754972367  -0.000005262860 0.59611404  0.00170524  0.0001245 0.0000
 10  -2285.2754977685  -0.000000531752 0.21922739  0.00079800  0.0001558 0.0000
 11  -2285.2754978710  -0.000000102473 0.14987280  0.00074173  0.0000856 0.0000
 12  -2285.2754979165  -0.000000045511 0.25000749  0.00087077  0.0000353 0.0000
                 **** Energy Check signals convergence ****

               *****************************************************
               *                     SUCCESS                       *
               *           SCF CONVERGED AFTER  13 CYCLES          *
               *****************************************************


----------------
TOTAL SCF ENERGY
----------------

Total Energy       :        -2285.27549809 Eh          -62185.50775 eV

Components:
Nuclear Repulsion  :         2410.14408265 Eh           65583.35468 eV
Electronic Energy  :        -4695.41958074 Eh         -127768.86244 eV
One Electron Energy:        -7985.91490069 Eh         -217307.79216 eV
Two Electron Energy:         3290.49531995 Eh           89538.92973 eV

Virial components:
Potential Energy   :        -4474.84888902 Eh         -121766.82878 eV
Kinetic Energy     :         2189.57339093 Eh           59581.32102 eV
Virial Ratio       :            2.04370811


DFT components:
N(Alpha)           :       97.999830546354 electrons
N(Beta)            :       97.999830546354 electrons
N(Total)           :      195.999661092708 electrons
E(X)               :     -180.129201396552 Eh       
E(C)               :       -7.077401006375 Eh       
E(XC)              :     -187.206602402928 Eh       
DFET-embed. en.    :        0.000000000000 Eh       

---------------
SCF CONVERGENCE
---------------

  Last Energy change         ...   -1.7620e-07  Tolerance :   1.0000e-06
  Last MAX-Density change    ...    2.0283e-01  Tolerance :   1.0000e-05
  Last RMS-Density change    ...    8.0633e-04  Tolerance :   1.0000e-06
  Last DIIS Error            ...    1.2947e-05  Tolerance :   1.0000e-06

             **** THE GBW FILE WAS UPDATED (TMB26_T1.gbw) ****
             **** DENSITY FILE WAS UPDATED (TMB26_T1.scfp) ****
             **** ENERGY FILE WAS UPDATED (TMB26_T1.en.tmp) ****
             **** THE GBW FILE WAS UPDATED (TMB26_T1.gbw) ****
             **** DENSITY FILE WAS UPDATED (TMB26_T1.scfp) ****
----------------
ORBITAL ENERGIES
----------------

  NO   OCC          E(Eh)            E(eV) 
   0   2.0000    -101.336029     -2757.4935 
   1   2.0000    -101.335126     -2757.4690 
   2   2.0000    -101.328729     -2757.2949 
   3   2.0000     -19.122654      -520.3539 
   4   2.0000     -19.120920      -520.3067 
   5   2.0000     -10.213674      -277.9282 
   6   2.0000     -10.212878      -277.9065 
   7   2.0000     -10.197182      -277.4794 
   8   2.0000     -10.195590      -277.4361 
   9   2.0000     -10.195363      -277.4299 
  10   2.0000     -10.179698      -277.0037 
  11   2.0000     -10.165546      -276.6186 
  12   2.0000     -10.162482      -276.5352 
  13   2.0000     -10.157759      -276.4067 
  14   2.0000     -10.146219      -276.0927 
  15   2.0000     -10.145744      -276.0797 
  16   2.0000     -10.142117      -275.9810 
  17   2.0000     -10.141085      -275.9530 
  18   2.0000     -10.141021      -275.9512 
  19   2.0000     -10.137385      -275.8523 
  20   2.0000     -10.136031      -275.8154 
  21   2.0000      -9.336665      -254.0636 
  22   2.0000      -9.335749      -254.0387 
  23   2.0000      -9.329332      -253.8640 
  24   2.0000      -7.083628      -192.7553 
  25   2.0000      -7.082779      -192.7322 
  26   2.0000      -7.076621      -192.5646 
  27   2.0000      -7.076029      -192.5485 
  28   2.0000      -7.075413      -192.5318 
  29   2.0000      -7.075131      -192.5241 
  30   2.0000      -7.074411      -192.5045 
  31   2.0000      -7.068677      -192.3485 
  32   2.0000      -7.067753      -192.3233 
  33   2.0000      -4.199551      -114.2756 
  34   2.0000      -2.394099       -65.1468 
  35   2.0000      -2.392000       -65.0896 
  36   2.0000      -2.369608       -64.4803 
  37   2.0000      -1.089608       -29.6498 
  38   2.0000      -1.087426       -29.5904 
  39   2.0000      -0.891101       -24.2481 
  40   2.0000      -0.862942       -23.4818 
  41   2.0000      -0.820934       -22.3387 
  42   2.0000      -0.791023       -21.5248 
  43   2.0000      -0.781296       -21.2602 
  44   2.0000      -0.761037       -20.7089 
  45   2.0000      -0.752368       -20.4730 
  46   2.0000      -0.743255       -20.2250 
  47   2.0000      -0.740722       -20.1561 
  48   2.0000      -0.739963       -20.1354 
  49   2.0000      -0.733960       -19.9721 
  50   2.0000      -0.698138       -18.9973 
  51   2.0000      -0.645149       -17.5554 
  52   2.0000      -0.632607       -17.2141 
  53   2.0000      -0.616096       -16.7648 
  54   2.0000      -0.595301       -16.1990 
  55   2.0000      -0.572957       -15.5909 
  56   2.0000      -0.559680       -15.2297 
  57   2.0000      -0.528944       -14.3933 
  58   2.0000      -0.525206       -14.2916 
  59   2.0000      -0.508076       -13.8254 
  60   2.0000      -0.501726       -13.6526 
  61   2.0000      -0.492872       -13.4117 
  62   2.0000      -0.485229       -13.2037 
  63   2.0000      -0.482798       -13.1376 
  64   2.0000      -0.478608       -13.0236 
  65   2.0000      -0.455991       -12.4082 
  66   2.0000      -0.444567       -12.0973 
  67   2.0000      -0.442221       -12.0334 
  68   2.0000      -0.436401       -11.8751 
  69   2.0000      -0.432816       -11.7775 
  70   2.0000      -0.426389       -11.6026 
  71   2.0000      -0.423483       -11.5235 
  72   2.0000      -0.409649       -11.1471 
  73   2.0000      -0.400048       -10.8858 
  74   2.0000      -0.397350       -10.8124 
  75   2.0000      -0.389530       -10.5997 
  76   2.0000      -0.387668       -10.5490 
  77   2.0000      -0.381756       -10.3881 
  78   2.0000      -0.370445       -10.0803 
  79   2.0000      -0.366291        -9.9673 
  80   2.0000      -0.362247        -9.8572 
  81   2.0000      -0.353385        -9.6161 
  82   2.0000      -0.347815        -9.4645 
  83   2.0000      -0.343094        -9.3361 
  84   2.0000      -0.336038        -9.1441 
  85   2.0000      -0.324392        -8.8272 
  86   2.0000      -0.317798        -8.6477 
  87   2.0000      -0.306589        -8.3427 
  88   2.0000      -0.285662        -7.7733 
  89   2.0000      -0.279191        -7.5972 
  90   2.0000      -0.269558        -7.3350 
  91   2.0000      -0.263815        -7.1788 
  92   2.0000      -0.254964        -6.9379 
  93   2.0000      -0.253999        -6.9117 
  94   2.0000      -0.250875        -6.8266 
  95   2.0000      -0.248844        -6.7714 
  96   2.0000      -0.242556        -6.6003 
  97   2.0000      -0.235994        -6.4217 
  98   0.0000      -0.141135        -3.8405 
  99   0.0000      -0.091919        -2.5012 
 100   0.0000      -0.072070        -1.9611 
 101   0.0000      -0.057695        -1.5700 
 102   0.0000      -0.034877        -0.9491 
 103   0.0000      -0.027205        -0.7403 
 104   0.0000      -0.023696        -0.6448 
 105   0.0000      -0.003768        -0.1025 
 106   0.0000      -0.002065        -0.0562 
 107   0.0000       0.005015         0.1365 
 108   0.0000       0.006951         0.1891 
 109   0.0000       0.012974         0.3530 
 110   0.0000       0.018970         0.5162 
 111   0.0000       0.019650         0.5347 
 112   0.0000       0.025630         0.6974 
 113   0.0000       0.028740         0.7821 
 114   0.0000       0.033027         0.8987 
 115   0.0000       0.038748         1.0544 
 116   0.0000       0.042521         1.1571 
 117   0.0000       0.046204         1.2573 
 118   0.0000       0.050601         1.3769 
 119   0.0000       0.053406         1.4533 
 120   0.0000       0.057566         1.5665 
 121   0.0000       0.062030         1.6879 
 122   0.0000       0.062790         1.7086 
 123   0.0000       0.066255         1.8029 
 124   0.0000       0.070975         1.9313 
 125   0.0000       0.073355         1.9961 
 126   0.0000       0.077434         2.1071 
 127   0.0000       0.080616         2.1937 
 128   0.0000       0.082208         2.2370 
 129   0.0000       0.086744         2.3604 
 130   0.0000       0.091395         2.4870 
 131   0.0000       0.094648         2.5755 
 132   0.0000       0.096350         2.6218 
 133   0.0000       0.099424         2.7055 
 134   0.0000       0.104040         2.8311 
 135   0.0000       0.106148         2.8884 
 136   0.0000       0.109990         2.9930 
 137   0.0000       0.110572         3.0088 
 138   0.0000       0.114442         3.1141 
 139   0.0000       0.117645         3.2013 
 140   0.0000       0.120516         3.2794 
 141   0.0000       0.121800         3.3143 
 142   0.0000       0.124133         3.3778 
 143   0.0000       0.126062         3.4303 
 144   0.0000       0.129690         3.5290 
 145   0.0000       0.132886         3.6160 
 146   0.0000       0.138226         3.7613 
 147   0.0000       0.142194         3.8693 
 148   0.0000       0.145541         3.9604 
 149   0.0000       0.147702         4.0192 
 150   0.0000       0.150314         4.0903 
 151   0.0000       0.155527         4.2321 
 152   0.0000       0.156811         4.2671 
 153   0.0000       0.161314         4.3896 
 154   0.0000       0.162066         4.4100 
 155   0.0000       0.165474         4.5028 
 156   0.0000       0.170639         4.6433 
 157   0.0000       0.174609         4.7514 
 158   0.0000       0.176510         4.8031 
 159   0.0000       0.180800         4.9198 
 160   0.0000       0.182088         4.9549 
 161   0.0000       0.187697         5.1075 
 162   0.0000       0.190478         5.1832 
 163   0.0000       0.192719         5.2442 
 164   0.0000       0.198443         5.3999 
 165   0.0000       0.199216         5.4210 
 166   0.0000       0.201250         5.4763 
 167   0.0000       0.206093         5.6081 
 168   0.0000       0.208139         5.6638 
 169   0.0000       0.209903         5.7117 
 170   0.0000       0.214985         5.8500 
 171   0.0000       0.215867         5.8740 
 172   0.0000       0.217333         5.9139 
 173   0.0000       0.217687         5.9236 
 174   0.0000       0.223303         6.0764 
 175   0.0000       0.224191         6.1005 
 176   0.0000       0.227574         6.1926 
 177   0.0000       0.229007         6.2316 
 178   0.0000       0.232025         6.3137 
 179   0.0000       0.234611         6.3841 
 180   0.0000       0.235675         6.4130 
 181   0.0000       0.237373         6.4593 
 182   0.0000       0.238819         6.4986 
 183   0.0000       0.239877         6.5274 
 184   0.0000       0.243710         6.6317 
 185   0.0000       0.245752         6.6872 
 186   0.0000       0.247250         6.7280 
 187   0.0000       0.247963         6.7474 
 188   0.0000       0.252567         6.8727 
 189   0.0000       0.255040         6.9400 
 190   0.0000       0.255255         6.9458 
 191   0.0000       0.259220         7.0537 
 192   0.0000       0.260359         7.0847 
 193   0.0000       0.264187         7.1889 
 194   0.0000       0.265564         7.2264 
 195   0.0000       0.266698         7.2572 
 196   0.0000       0.269783         7.3412 
 197   0.0000       0.271187         7.3794 
 198   0.0000       0.272234         7.4079 
 199   0.0000       0.275386         7.4936 
 200   0.0000       0.276380         7.5207 
 201   0.0000       0.278957         7.5908 
 202   0.0000       0.280749         7.6396 
 203   0.0000       0.282873         7.6974 
 204   0.0000       0.283847         7.7239 
 205   0.0000       0.285760         7.7759 
 206   0.0000       0.287293         7.8176 
 207   0.0000       0.293205         7.9785 
 208   0.0000       0.294469         8.0129 
 209   0.0000       0.296315         8.0631 
 210   0.0000       0.296796         8.0762 
 211   0.0000       0.300341         8.1727 
 212   0.0000       0.302705         8.2370 
 213   0.0000       0.306609         8.3433 
 214   0.0000       0.307485         8.3671 
 215   0.0000       0.309475         8.4212 
 216   0.0000       0.311442         8.4748 
 217   0.0000       0.314121         8.5477 
 218   0.0000       0.316758         8.6194 
 219   0.0000       0.319826         8.7029 
 220   0.0000       0.321005         8.7350 
 221   0.0000       0.321946         8.7606 
 222   0.0000       0.323045         8.7905 
 223   0.0000       0.326998         8.8981 
 224   0.0000       0.327736         8.9182 
 225   0.0000       0.330348         8.9892 
 226   0.0000       0.332773         9.0552 
 227   0.0000       0.334668         9.1068 
 228   0.0000       0.336843         9.1660 
 229   0.0000       0.342561         9.3216 
 230   0.0000       0.343744         9.3537 
 231   0.0000       0.347425         9.4539 
 232   0.0000       0.348565         9.4849 
 233   0.0000       0.350313         9.5325 
 234   0.0000       0.353930         9.6309 
 235   0.0000       0.354563         9.6481 
 236   0.0000       0.357832         9.7371 
 237   0.0000       0.358886         9.7658 
 238   0.0000       0.361437         9.8352 
 239   0.0000       0.364594         9.9211 
 240   0.0000       0.369963        10.0672 
 241   0.0000       0.373553        10.1649 
 242   0.0000       0.377417        10.2700 
 243   0.0000       0.379283        10.3208 
 244   0.0000       0.381437        10.3794 
 245   0.0000       0.382197        10.4001 
 246   0.0000       0.387411        10.5420 
 247   0.0000       0.390361        10.6223 
 248   0.0000       0.396393        10.7864 
 249   0.0000       0.396870        10.7994 
 250   0.0000       0.397661        10.8209 
 251   0.0000       0.403380        10.9765 
 252   0.0000       0.405300        11.0288 
 253   0.0000       0.411850        11.2070 
 254   0.0000       0.414192        11.2707 
 255   0.0000       0.416220        11.3259 
 256   0.0000       0.417908        11.3719 
 257   0.0000       0.419489        11.4149 
 258   0.0000       0.423232        11.5167 
 259   0.0000       0.424020        11.5382 
 260   0.0000       0.427150        11.6233 
 261   0.0000       0.428683        11.6651 
 262   0.0000       0.434602        11.8261 
 263   0.0000       0.438246        11.9253 
 264   0.0000       0.441283        12.0079 
 265   0.0000       0.447146        12.1675 
 266   0.0000       0.450714        12.2645 
 267   0.0000       0.452753        12.3200 
 268   0.0000       0.455873        12.4049 
 269   0.0000       0.460149        12.5213 
 270   0.0000       0.465250        12.6601 
 271   0.0000       0.469420        12.7736 
 272   0.0000       0.473553        12.8860 
 273   0.0000       0.474864        12.9217 
 274   0.0000       0.476017        12.9531 
 275   0.0000       0.481943        13.1143 
 276   0.0000       0.485309        13.2059 
 277   0.0000       0.486196        13.2301 
 278   0.0000       0.490552        13.3486 
 279   0.0000       0.494446        13.4546 
 280   0.0000       0.495870        13.4933 
 281   0.0000       0.498871        13.5750 
 282   0.0000       0.501357        13.6426 
 283   0.0000       0.506732        13.7889 
 284   0.0000       0.507135        13.7998 
 285   0.0000       0.510570        13.8933 
 286   0.0000       0.517478        14.0813 
 287   0.0000       0.522640        14.2217 
 288   0.0000       0.524977        14.2853 
 289   0.0000       0.526892        14.3375 
 290   0.0000       0.529739        14.4149 
 291   0.0000       0.533311        14.5121 
 292   0.0000       0.536189        14.5905 
 293   0.0000       0.537405        14.6235 
 294   0.0000       0.544130        14.8065 
 295   0.0000       0.547402        14.8956 
 296   0.0000       0.550058        14.9678 
 297   0.0000       0.550618        14.9831 
 298   0.0000       0.553411        15.0591 
 299   0.0000       0.554779        15.0963 
 300   0.0000       0.558448        15.1961 
 301   0.0000       0.564465        15.3599 
 302   0.0000       0.565088        15.3768 
 303   0.0000       0.568175        15.4608 
 304   0.0000       0.571525        15.5520 
 305   0.0000       0.573915        15.6170 
 306   0.0000       0.577995        15.7280 
 307   0.0000       0.580017        15.7831 
 308   0.0000       0.585894        15.9430 
 309   0.0000       0.588940        16.0259 
 310   0.0000       0.589061        16.0292 
 311   0.0000       0.594262        16.1707 
 312   0.0000       0.596452        16.2303 
 313   0.0000       0.597969        16.2716 
 314   0.0000       0.601887        16.3782 
 315   0.0000       0.604753        16.4562 
 316   0.0000       0.606461        16.5026 
 317   0.0000       0.610689        16.6177 
 318   0.0000       0.611941        16.6518 
 319   0.0000       0.613795        16.7022 
 320   0.0000       0.616798        16.7839 
 321   0.0000       0.621483        16.9114 
 322   0.0000       0.622969        16.9518 
 323   0.0000       0.626651        17.0520 
 324   0.0000       0.628789        17.1102 
 325   0.0000       0.632397        17.2084 
 326   0.0000       0.634135        17.2557 
 327   0.0000       0.635692        17.2980 
 328   0.0000       0.638332        17.3699 
 329   0.0000       0.639800        17.4099 
 330   0.0000       0.641937        17.4680 
 331   0.0000       0.643596        17.5131 
 332   0.0000       0.646938        17.6041 
 333   0.0000       0.649874        17.6840 
 334   0.0000       0.651191        17.7198 
 335   0.0000       0.652484        17.7550 
 336   0.0000       0.653532        17.7835 
 337   0.0000       0.655978        17.8501 
 338   0.0000       0.657205        17.8835 
 339   0.0000       0.661691        18.0055 
 340   0.0000       0.662250        18.0207 
 341   0.0000       0.662850        18.0371 
 342   0.0000       0.664159        18.0727 
 343   0.0000       0.668282        18.1849 
 344   0.0000       0.669890        18.2286 
 345   0.0000       0.672680        18.3046 
 346   0.0000       0.674766        18.3613 
 347   0.0000       0.679332        18.4856 
 348   0.0000       0.680120        18.5070 
 349   0.0000       0.687044        18.6954 
 350   0.0000       0.687829        18.7168 
 351   0.0000       0.689452        18.7610 
 352   0.0000       0.692858        18.8536 
 353   0.0000       0.695038        18.9129 
 354   0.0000       0.696840        18.9620 
 355   0.0000       0.699060        19.0224 
 356   0.0000       0.700994        19.0750 
 357   0.0000       0.703900        19.1541 
 358   0.0000       0.706570        19.2267 
 359   0.0000       0.712445        19.3866 
 360   0.0000       0.714123        19.4323 
 361   0.0000       0.715848        19.4792 
 362   0.0000       0.718075        19.5398 
 363   0.0000       0.722816        19.6688 
 364   0.0000       0.725020        19.7288 
 365   0.0000       0.729314        19.8456 
 366   0.0000       0.730386        19.8748 
 367   0.0000       0.735348        20.0098 
 368   0.0000       0.740121        20.1397 
 369   0.0000       0.741163        20.1681 
 370   0.0000       0.742835        20.2136 
 371   0.0000       0.744370        20.2553 
 372   0.0000       0.748942        20.3797 
 373   0.0000       0.750391        20.4192 
 374   0.0000       0.753251        20.4970 
 375   0.0000       0.755255        20.5515 
 376   0.0000       0.761151        20.7120 
 377   0.0000       0.765952        20.8426 
 378   0.0000       0.767031        20.8720 
 379   0.0000       0.768757        20.9189 
 380   0.0000       0.776282        21.1237 
 381   0.0000       0.778280        21.1781 
 382   0.0000       0.779409        21.2088 
 383   0.0000       0.781265        21.2593 
 384   0.0000       0.788978        21.4692 
 385   0.0000       0.792606        21.5679 
 386   0.0000       0.794463        21.6184 
 387   0.0000       0.797357        21.6972 
 388   0.0000       0.799507        21.7557 
 389   0.0000       0.804416        21.8893 
 390   0.0000       0.810957        22.0673 
 391   0.0000       0.812486        22.1089 
 392   0.0000       0.814306        22.1584 
 393   0.0000       0.818016        22.2593 
 394   0.0000       0.820746        22.3336 
 395   0.0000       0.824445        22.4343 
 396   0.0000       0.829096        22.5609 
 397   0.0000       0.831821        22.6350 
 398   0.0000       0.837706        22.7951 
 399   0.0000       0.838880        22.8271 
 400   0.0000       0.840806        22.8795 
 401   0.0000       0.844314        22.9750 
 402   0.0000       0.849547        23.1173 
 403   0.0000       0.855764        23.2865 
 404   0.0000       0.859349        23.3841 
 405   0.0000       0.863505        23.4972 
 406   0.0000       0.867525        23.6066 
 407   0.0000       0.872604        23.7448 
 408   0.0000       0.877352        23.8740 
 409   0.0000       0.877987        23.8912 
 410   0.0000       0.882030        24.0013 
 411   0.0000       0.888074        24.1657 
 412   0.0000       0.891061        24.2470 
 413   0.0000       0.895135        24.3579 
 414   0.0000       0.898151        24.4399 
 415   0.0000       0.901673        24.5358 
 416   0.0000       0.907286        24.6885 
 417   0.0000       0.913504        24.8577 
 418   0.0000       0.918331        24.9891 
 419   0.0000       0.921053        25.0631 
 420   0.0000       0.924995        25.1704 
 421   0.0000       0.927041        25.2261 
 422   0.0000       0.935578        25.4584 
 423   0.0000       0.939884        25.5755 
 424   0.0000       0.945956        25.7408 
 425   0.0000       0.951311        25.8865 
 426   0.0000       0.953192        25.9377 
 427   0.0000       0.961892        26.1744 
 428   0.0000       0.966520        26.3003 
 429   0.0000       0.970707        26.4143 
 430   0.0000       0.975120        26.5344 
 431   0.0000       0.979382        26.6503 
 432   0.0000       0.984557        26.7911 
 433   0.0000       0.993527        27.0352 
 434   0.0000       0.994857        27.0714 
 435   0.0000       0.996616        27.1193 
 436   0.0000       1.003171        27.2977 
 437   0.0000       1.008030        27.4299 
 438   0.0000       1.011864        27.5342 
 439   0.0000       1.018271        27.7086 
 440   0.0000       1.023353        27.8468 
 441   0.0000       1.025221        27.8977 
 442   0.0000       1.031565        28.0703 
 443   0.0000       1.038199        28.2508 
 444   0.0000       1.042776        28.3754 
 445   0.0000       1.055526        28.7223 
 446   0.0000       1.058754        28.8101 
 447   0.0000       1.065166        28.9846 
 448   0.0000       1.068776        29.0829 
 449   0.0000       1.072351        29.1802 
 450   0.0000       1.075863        29.2757 
 451   0.0000       1.081246        29.4222 
 452   0.0000       1.086078        29.5537 
 453   0.0000       1.089819        29.6555 
 454   0.0000       1.098152        29.8822 
 455   0.0000       1.102164        29.9914 
 456   0.0000       1.103802        30.0360 
 457   0.0000       1.105975        30.0951 
 458   0.0000       1.111251        30.2387 
 459   0.0000       1.119834        30.4722 
 460   0.0000       1.127828        30.6898 
 461   0.0000       1.131306        30.7844 
 462   0.0000       1.136492        30.9255 
 463   0.0000       1.143450        31.1148 
 464   0.0000       1.146592        31.2003 
 465   0.0000       1.147585        31.2274 
 466   0.0000       1.151919        31.3453 
 467   0.0000       1.158780        31.5320 
 468   0.0000       1.165258        31.7083 
 469   0.0000       1.169181        31.8150 
 470   0.0000       1.176399        32.0114 
 471   0.0000       1.179052        32.0836 
 472   0.0000       1.182282        32.1715 
 473   0.0000       1.190024        32.3822 
 474   0.0000       1.198650        32.6169 
 475   0.0000       1.202194        32.7134 
 476   0.0000       1.204961        32.7887 
 477   0.0000       1.211455        32.9654 
 478   0.0000       1.212659        32.9981 
 479   0.0000       1.221356        33.2348 
 480   0.0000       1.229373        33.4529 
 481   0.0000       1.234199        33.5843 
 482   0.0000       1.239069        33.7168 
 483   0.0000       1.249364        33.9969 
 484   0.0000       1.252974        34.0951 
 485   0.0000       1.264814        34.4173 
 486   0.0000       1.269611        34.5479 
 487   0.0000       1.271257        34.5927 
 488   0.0000       1.277522        34.7631 
 489   0.0000       1.282197        34.8903 
 490   0.0000       1.284572        34.9550 
 491   0.0000       1.288759        35.0689 
 492   0.0000       1.293650        35.2020 
 493   0.0000       1.300192        35.3800 
 494   0.0000       1.312129        35.7049 
 495   0.0000       1.317101        35.8401 
 496   0.0000       1.326652        36.1000 
 497   0.0000       1.331675        36.2367 
 498   0.0000       1.334050        36.3014 
 499   0.0000       1.336682        36.3730 
 500   0.0000       1.341683        36.5091 
 501   0.0000       1.349120        36.7114 
 502   0.0000       1.351608        36.7791 
 503   0.0000       1.359502        36.9939 
 504   0.0000       1.371442        37.3188 
 505   0.0000       1.380354        37.5613 
 506   0.0000       1.381652        37.5967 
 507   0.0000       1.385943        37.7134 
 508   0.0000       1.397664        38.0324 
 509   0.0000       1.402495        38.1638 
 510   0.0000       1.409227        38.3470 
 511   0.0000       1.412998        38.4496 
 512   0.0000       1.417591        38.5746 
 513   0.0000       1.421909        38.6921 
 514   0.0000       1.424811        38.7711 
 515   0.0000       1.428246        38.8646 
 516   0.0000       1.431012        38.9398 
 517   0.0000       1.444446        39.3054 
 518   0.0000       1.448113        39.4052 
 519   0.0000       1.452099        39.5136 
 520   0.0000       1.457909        39.6717 
 521   0.0000       1.469989        40.0004 
 522   0.0000       1.477694        40.2101 
 523   0.0000       1.477910        40.2160 
 524   0.0000       1.483841        40.3774 
 525   0.0000       1.485718        40.4284 
 526   0.0000       1.496283        40.7159 
 527   0.0000       1.503884        40.9228 
 528   0.0000       1.512532        41.1581 
 529   0.0000       1.514179        41.2029 
 530   0.0000       1.524585        41.4861 
 531   0.0000       1.527852        41.5750 
 532   0.0000       1.537143        41.8278 
 533   0.0000       1.540996        41.9326 
 534   0.0000       1.545907        42.0663 
 535   0.0000       1.549429        42.1621 
 536   0.0000       1.554136        42.2902 
 537   0.0000       1.560776        42.4709 
 538   0.0000       1.567797        42.6619 
 539   0.0000       1.571657        42.7670 
 540   0.0000       1.580792        43.0155 
 541   0.0000       1.584627        43.1199 
 542   0.0000       1.588929        43.2370 
 543   0.0000       1.598119        43.4870 
 544   0.0000       1.602278        43.6002 
 545   0.0000       1.607337        43.7379 
 546   0.0000       1.615999        43.9736 
 547   0.0000       1.628346        44.3095 
 548   0.0000       1.631303        44.3900 
 549   0.0000       1.641868        44.6775 
 550   0.0000       1.645958        44.7888 
 551   0.0000       1.653166        44.9849 
 552   0.0000       1.656380        45.0724 
 553   0.0000       1.662028        45.2261 
 554   0.0000       1.669110        45.4188 
 555   0.0000       1.677604        45.6499 
 556   0.0000       1.681800        45.7641 
 557   0.0000       1.695998        46.1505 
 558   0.0000       1.700518        46.2734 
 559   0.0000       1.707521        46.4640 
 560   0.0000       1.712894        46.6102 
 561   0.0000       1.716316        46.7033 
 562   0.0000       1.726451        46.9791 
 563   0.0000       1.728728        47.0411 
 564   0.0000       1.738895        47.3177 
 565   0.0000       1.744849        47.4798 
 566   0.0000       1.749870        47.6164 
 567   0.0000       1.762343        47.9558 
 568   0.0000       1.779098        48.4117 
 569   0.0000       1.784796        48.5668 
 570   0.0000       1.791210        48.7413 
 571   0.0000       1.801782        49.0290 
 572   0.0000       1.803274        49.0696 
 573   0.0000       1.814398        49.3723 
 574   0.0000       1.815685        49.4073 
 575   0.0000       1.826300        49.6961 
 576   0.0000       1.828060        49.7440 
 577   0.0000       1.829706        49.7888 
 578   0.0000       1.842112        50.1264 
 579   0.0000       1.844249        50.1846 
 580   0.0000       1.859418        50.5973 
 581   0.0000       1.864468        50.7347 
 582   0.0000       1.875246        51.0280 
 583   0.0000       1.884106        51.2691 
 584   0.0000       1.885922        51.3185 
 585   0.0000       1.893935        51.5366 
 586   0.0000       1.909794        51.9681 
 587   0.0000       1.913288        52.0632 
 588   0.0000       1.924087        52.3571 
 589   0.0000       1.931144        52.5491 
 590   0.0000       1.940135        52.7938 
 591   0.0000       1.944628        52.9160 
 592   0.0000       1.950714        53.0816 
 593   0.0000       1.958493        53.2933 
 594   0.0000       1.960329        53.3433 
 595   0.0000       1.965235        53.4768 
 596   0.0000       1.977411        53.8081 
 597   0.0000       1.984538        54.0020 
 598   0.0000       1.988124        54.0996 
 599   0.0000       1.996117        54.3171 
 600   0.0000       1.998764        54.3891 
 601   0.0000       2.003349        54.5139 
 602   0.0000       2.008912        54.6653 
 603   0.0000       2.013932        54.8019 
 604   0.0000       2.023937        55.0741 
 605   0.0000       2.027338        55.1667 
 606   0.0000       2.028849        55.2078 
 607   0.0000       2.038292        55.4648 
 608   0.0000       2.041244        55.5451 
 609   0.0000       2.045968        55.6736 
 610   0.0000       2.051421        55.8220 
 611   0.0000       2.059457        56.0407 
 612   0.0000       2.065011        56.1918 
 613   0.0000       2.067587        56.2619 
 614   0.0000       2.074526        56.4507 
 615   0.0000       2.080588        56.6157 
 616   0.0000       2.085706        56.7549 
 617   0.0000       2.089454        56.8569 
 618   0.0000       2.096996        57.0622 
 619   0.0000       2.100355        57.1536 
 620   0.0000       2.103274        57.2330 
 621   0.0000       2.105841        57.3028 
 622   0.0000       2.113183        57.5026 
 623   0.0000       2.132741        58.0348 
 624   0.0000       2.136149        58.1276 
 625   0.0000       2.140035        58.2333 
 626   0.0000       2.144214        58.3470 
 627   0.0000       2.151658        58.5496 
 628   0.0000       2.154816        58.6355 
 629   0.0000       2.155890        58.6647 
 630   0.0000       2.160078        58.7787 
 631   0.0000       2.165298        58.9207 
 632   0.0000       2.173280        59.1380 
 633   0.0000       2.174400        59.1684 
 634   0.0000       2.182144        59.3791 
 635   0.0000       2.184692        59.4485 
 636   0.0000       2.193266        59.6818 
 637   0.0000       2.196838        59.7790 
 638   0.0000       2.204397        59.9847 
 639   0.0000       2.212737        60.2116 
 640   0.0000       2.226395        60.5833 
 641   0.0000       2.229719        60.6737 
 642   0.0000       2.239117        60.9295 
 643   0.0000       2.242523        61.0221 
 644   0.0000       2.251229        61.2591 
 645   0.0000       2.255571        61.3772 
 646   0.0000       2.263907        61.6040 
 647   0.0000       2.268100        61.7181 
 648   0.0000       2.273936        61.8770 
 649   0.0000       2.278671        62.0058 
 650   0.0000       2.282310        62.1048 
 651   0.0000       2.284761        62.1715 
 652   0.0000       2.290794        62.3357 
 653   0.0000       2.298060        62.5334 
 654   0.0000       2.306359        62.7592 
 655   0.0000       2.311973        62.9120 
 656   0.0000       2.320724        63.1501 
 657   0.0000       2.334174        63.5161 
 658   0.0000       2.340061        63.6763 
 659   0.0000       2.343774        63.7773 
 660   0.0000       2.362007        64.2735 
 661   0.0000       2.372460        64.5579 
 662   0.0000       2.382669        64.8357 
 663   0.0000       2.391558        65.0776 
 664   0.0000       2.399627        65.2972 
 665   0.0000       2.413326        65.6699 
 666   0.0000       2.416361        65.7525 
 667   0.0000       2.433468        66.2180 
 668   0.0000       2.438201        66.3468 
 669   0.0000       2.445774        66.5529 
 670   0.0000       2.456665        66.8492 
 671   0.0000       2.459747        66.9331 
 672   0.0000       2.465572        67.0916 
 673   0.0000       2.493038        67.8390 
 674   0.0000       2.494960        67.8913 
 675   0.0000       2.503790        68.1316 
 676   0.0000       2.510657        68.3185 
 677   0.0000       2.515515        68.4506 
 678   0.0000       2.520859        68.5961 
 679   0.0000       2.525046        68.7100 
 680   0.0000       2.540194        69.1222 
 681   0.0000       2.548156        69.3389 
 682   0.0000       2.554064        69.4996 
 683   0.0000       2.564977        69.7966 
 684   0.0000       2.576009        70.0968 
 685   0.0000       2.585089        70.3439 
 686   0.0000       2.591932        70.5301 
 687   0.0000       2.596441        70.6527 
 688   0.0000       2.599149        70.7264 
 689   0.0000       2.615720        71.1774 
 690   0.0000       2.621487        71.3343 
 691   0.0000       2.625678        71.4483 
 692   0.0000       2.638285        71.7914 
 693   0.0000       2.641541        71.8800 
 694   0.0000       2.662880        72.4606 
 695   0.0000       2.667381        72.5831 
 696   0.0000       2.679761        72.9200 
 697   0.0000       2.704234        73.5860 
 698   0.0000       2.706660        73.6520 
 699   0.0000       2.712236        73.8037 
 700   0.0000       2.732601        74.3579 
 701   0.0000       2.738492        74.5182 
 702   0.0000       2.740880        74.5831 
 703   0.0000       2.754264        74.9473 
 704   0.0000       2.759969        75.1026 
 705   0.0000       2.766139        75.2705 
 706   0.0000       2.771731        75.4226 
 707   0.0000       2.788072        75.8673 
 708   0.0000       2.791143        75.9509 
 709   0.0000       2.793181        76.0063 
 710   0.0000       2.796055        76.0845 
 711   0.0000       2.812560        76.5336 
 712   0.0000       2.820960        76.7622 
 713   0.0000       2.825858        76.8955 
 714   0.0000       2.839657        77.2710 
 715   0.0000       2.850951        77.5783 
 716   0.0000       2.861043        77.8529 
 717   0.0000       2.866774        78.0089 
 718   0.0000       2.880856        78.3921 
 719   0.0000       2.886545        78.5469 
 720   0.0000       2.888343        78.5958 
 721   0.0000       2.897984        78.8582 
 722   0.0000       2.904472        79.0347 
 723   0.0000       2.908194        79.1360 
 724   0.0000       2.912407        79.2506 
 725   0.0000       2.920988        79.4841 
 726   0.0000       2.926216        79.6264 
 727   0.0000       2.932737        79.8038 
 728   0.0000       2.938030        79.9479 
 729   0.0000       2.948989        80.2461 
 730   0.0000       2.954516        80.3965 
 731   0.0000       2.963738        80.6474 
 732   0.0000       2.980410        81.1011 
 733   0.0000       2.983995        81.1986 
 734   0.0000       3.000200        81.6396 
 735   0.0000       3.013861        82.0113 
 736   0.0000       3.019446        82.1633 
 737   0.0000       3.025012        82.3148 
 738   0.0000       3.032808        82.5269 
 739   0.0000       3.034607        82.5758 
 740   0.0000       3.039572        82.7110 
 741   0.0000       3.047210        82.9188 
 742   0.0000       3.058594        83.2286 
 743   0.0000       3.066832        83.4528 
 744   0.0000       3.076656        83.7201 
 745   0.0000       3.083497        83.9062 
 746   0.0000       3.089761        84.0767 
 747   0.0000       3.096577        84.2622 
 748   0.0000       3.100920        84.3803 
 749   0.0000       3.103303        84.4452 
 750   0.0000       3.116405        84.8017 
 751   0.0000       3.119489        84.8856 
 752   0.0000       3.124768        85.0293 
 753   0.0000       3.131098        85.2015 
 754   0.0000       3.132477        85.2390 
 755   0.0000       3.144166        85.5571 
 756   0.0000       3.149528        85.7030 
 757   0.0000       3.154624        85.8417 
 758   0.0000       3.163782        86.0909 
 759   0.0000       3.168611        86.2223 
 760   0.0000       3.172179        86.3194 
 761   0.0000       3.178299        86.4859 
 762   0.0000       3.182780        86.6078 
 763   0.0000       3.191255        86.8385 
 764   0.0000       3.198419        87.0334 
 765   0.0000       3.201782        87.1249 
 766   0.0000       3.209366        87.3313 
 767   0.0000       3.212077        87.4051 
 768   0.0000       3.218453        87.5785 
 769   0.0000       3.225815        87.7789 
 770   0.0000       3.239842        88.1606 
 771   0.0000       3.246622        88.3451 
 772   0.0000       3.249821        88.4321 
 773   0.0000       3.255543        88.5878 
 774   0.0000       3.258929        88.6800 
 775   0.0000       3.267929        88.9249 
 776   0.0000       3.278799        89.2207 
 777   0.0000       3.284079        89.3643 
 778   0.0000       3.287784        89.4652 
 779   0.0000       3.292148        89.5839 
 780   0.0000       3.302997        89.8791 
 781   0.0000       3.305698        89.9526 
 782   0.0000       3.312691        90.1429 
 783   0.0000       3.317385        90.2706 
 784   0.0000       3.326107        90.5080 
 785   0.0000       3.327794        90.5539 
 786   0.0000       3.333894        90.7199 
 787   0.0000       3.343428        90.9793 
 788   0.0000       3.353096        91.2424 
 789   0.0000       3.359186        91.4081 
 790   0.0000       3.363410        91.5231 
 791   0.0000       3.375243        91.8450 
 792   0.0000       3.379938        91.9728 
 793   0.0000       3.381432        92.0134 
 794   0.0000       3.386755        92.1583 
 795   0.0000       3.394041        92.3566 
 796   0.0000       3.396788        92.4313 
 797   0.0000       3.402429        92.5848 
 798   0.0000       3.404645        92.6451 
 799   0.0000       3.416325        92.9629 
 800   0.0000       3.422401        93.1283 
 801   0.0000       3.423773        93.1656 
 802   0.0000       3.429316        93.3164 
 803   0.0000       3.440500        93.6208 
 804   0.0000       3.445498        93.7568 
 805   0.0000       3.453435        93.9728 
 806   0.0000       3.457691        94.0886 
 807   0.0000       3.465731        94.3073 
 808   0.0000       3.473808        94.5271 
 809   0.0000       3.481178        94.7277 
 810   0.0000       3.489806        94.9624 
 811   0.0000       3.495271        95.1111 
 812   0.0000       3.500984        95.2666 
 813   0.0000       3.507688        95.4490 
 814   0.0000       3.509783        95.5060 
 815   0.0000       3.520571        95.7996 
 816   0.0000       3.524112        95.8960 
 817   0.0000       3.532679        96.1291 
 818   0.0000       3.540041        96.3294 
 819   0.0000       3.555488        96.7497 
 820   0.0000       3.556494        96.7771 
 821   0.0000       3.565497        97.0221 
 822   0.0000       3.567405        97.0740 
 823   0.0000       3.577444        97.3472 
 824   0.0000       3.580448        97.4289 
 825   0.0000       3.583189        97.5035 
 826   0.0000       3.587111        97.6103 
 827   0.0000       3.597104        97.8822 
 828   0.0000       3.598327        97.9154 
 829   0.0000       3.605621        98.1139 
 830   0.0000       3.612827        98.3100 
 831   0.0000       3.625440        98.6532 
 832   0.0000       3.632318        98.8404 
 833   0.0000       3.641951        99.1025 
 834   0.0000       3.645867        99.2091 
 835   0.0000       3.648399        99.2780 
 836   0.0000       3.658634        99.5565 
 837   0.0000       3.669511        99.8525 
 838   0.0000       3.673692        99.9663 
 839   0.0000       3.687279       100.3360 
 840   0.0000       3.691007       100.4374 
 841   0.0000       3.693344       100.5010 
 842   0.0000       3.699256       100.6619 
 843   0.0000       3.712685       101.0273 
 844   0.0000       3.737957       101.7150 
 845   0.0000       3.747965       101.9873 
 846   0.0000       3.757341       102.2424 
 847   0.0000       3.763750       102.4169 
 848   0.0000       3.765346       102.4603 
 849   0.0000       3.773819       102.6908 
 850   0.0000       3.781765       102.9071 
 851   0.0000       3.782701       102.9325 
 852   0.0000       3.790344       103.1405 
 853   0.0000       3.794317       103.2486 
 854   0.0000       3.806322       103.5753 
 855   0.0000       3.811331       103.7116 
 856   0.0000       3.814596       103.8004 
 857   0.0000       3.823657       104.0470 
 858   0.0000       3.831267       104.2541 
 859   0.0000       3.841466       104.5316 
 860   0.0000       3.842124       104.5495 
 861   0.0000       3.855868       104.9235 
 862   0.0000       3.864940       105.1704 
 863   0.0000       3.869469       105.2936 
 864   0.0000       3.876206       105.4769 
 865   0.0000       3.877566       105.5139 
 866   0.0000       3.890872       105.8760 
 867   0.0000       3.898963       106.0962 
 868   0.0000       3.902019       106.1793 
 869   0.0000       3.914348       106.5148 
 870   0.0000       3.916324       106.5686 
 871   0.0000       3.926089       106.8343 
 872   0.0000       3.941480       107.2531 
 873   0.0000       3.953563       107.5819 
 874   0.0000       3.956506       107.6620 
 875   0.0000       3.964218       107.8719 
 876   0.0000       3.976555       108.2076 
 877   0.0000       3.979564       108.2894 
 878   0.0000       3.986683       108.4832 
 879   0.0000       4.000396       108.8563 
 880   0.0000       4.013002       109.1993 
 881   0.0000       4.028372       109.6176 
 882   0.0000       4.030747       109.6822 
 883   0.0000       4.037944       109.8780 
 884   0.0000       4.047273       110.1319 
 885   0.0000       4.050255       110.2130 
 886   0.0000       4.057141       110.4004 
 887   0.0000       4.065900       110.6388 
 888   0.0000       4.071862       110.8010 
 889   0.0000       4.081318       111.0583 
 890   0.0000       4.086124       111.1891 
 891   0.0000       4.086946       111.2114 
 892   0.0000       4.098306       111.5206 
 893   0.0000       4.102219       111.6271 
 894   0.0000       4.114075       111.9497 
 895   0.0000       4.118815       112.0786 
 896   0.0000       4.120963       112.1371 
 897   0.0000       4.135831       112.5417 
 898   0.0000       4.145185       112.7962 
 899   0.0000       4.152906       113.0063 
 900   0.0000       4.162522       113.2680 
 901   0.0000       4.164859       113.3316 
 902   0.0000       4.170175       113.4762 
 903   0.0000       4.180826       113.7661 
 904   0.0000       4.189331       113.9975 
 905   0.0000       4.197216       114.2121 
 906   0.0000       4.197740       114.2263 
 907   0.0000       4.203634       114.3867 
 908   0.0000       4.216724       114.7429 
 909   0.0000       4.219502       114.8185 
 910   0.0000       4.224787       114.9623 
 911   0.0000       4.244729       115.5049 
 912   0.0000       4.246971       115.5659 
 913   0.0000       4.254440       115.7692 
 914   0.0000       4.263934       116.0275 
 915   0.0000       4.268422       116.1497 
 916   0.0000       4.274648       116.3191 
 917   0.0000       4.277310       116.3915 
 918   0.0000       4.290674       116.7552 
 919   0.0000       4.297661       116.9453 
 920   0.0000       4.309635       117.2711 
 921   0.0000       4.312278       117.3430 
 922   0.0000       4.317774       117.4926 
 923   0.0000       4.321271       117.5878 
 924   0.0000       4.323657       117.6527 
 925   0.0000       4.338656       118.0608 
 926   0.0000       4.348284       118.3228 
 927   0.0000       4.354559       118.4936 
 928   0.0000       4.363317       118.7319 
 929   0.0000       4.367497       118.8456 
 930   0.0000       4.375960       119.0759 
 931   0.0000       4.380290       119.1938 
 932   0.0000       4.384358       119.3045 
 933   0.0000       4.388010       119.4038 
 934   0.0000       4.398484       119.6888 
 935   0.0000       4.404183       119.8439 
 936   0.0000       4.412992       120.0836 
 937   0.0000       4.424762       120.4039 
 938   0.0000       4.442890       120.8972 
 939   0.0000       4.454243       121.2061 
 940   0.0000       4.460507       121.3766 
 941   0.0000       4.462420       121.4286 
 942   0.0000       4.464149       121.4757 
 943   0.0000       4.483430       122.0003 
 944   0.0000       4.499549       122.4389 
 945   0.0000       4.519888       122.9924 
 946   0.0000       4.535166       123.4081 
 947   0.0000       4.548262       123.7645 
 948   0.0000       4.553073       123.8954 
 949   0.0000       4.567819       124.2967 
 950   0.0000       4.573532       124.4521 
 951   0.0000       4.579249       124.6077 
 952   0.0000       4.595793       125.0579 
 953   0.0000       4.611749       125.4921 
 954   0.0000       4.615208       125.5862 
 955   0.0000       4.632379       126.0534 
 956   0.0000       4.647183       126.4563 
 957   0.0000       4.662717       126.8790 
 958   0.0000       4.665406       126.9522 
 959   0.0000       4.690362       127.6312 
 960   0.0000       4.694135       127.7339 
 961   0.0000       4.709620       128.1553 
 962   0.0000       4.720898       128.4622 
 963   0.0000       4.735441       128.8579 
 964   0.0000       4.736767       128.8940 
 965   0.0000       4.749358       129.2366 
 966   0.0000       4.756111       129.4204 
 967   0.0000       4.757663       129.4626 
 968   0.0000       4.763624       129.6248 
 969   0.0000       4.799780       130.6087 
 970   0.0000       4.802962       130.6952 
 971   0.0000       4.837176       131.6262 
 972   0.0000       4.849849       131.9711 
 973   0.0000       4.853942       132.0825 
 974   0.0000       4.885929       132.9529 
 975   0.0000       4.897018       133.2546 
 976   0.0000       4.900225       133.3419 
 977   0.0000       4.905439       133.4838 
 978   0.0000       4.913161       133.6939 
 979   0.0000       4.924358       133.9986 
 980   0.0000       4.936397       134.3262 
 981   0.0000       4.957269       134.8941 
 982   0.0000       4.971912       135.2926 
 983   0.0000       4.972625       135.3120 
 984   0.0000       4.986707       135.6952 
 985   0.0000       4.991814       135.8342 
 986   0.0000       5.021019       136.6289 
 987   0.0000       5.025012       136.7375 
 988   0.0000       5.050961       137.4436 
 989   0.0000       5.074400       138.0815 
 990   0.0000       5.087384       138.4348 
 991   0.0000       5.090189       138.5111 
 992   0.0000       5.097819       138.7187 
 993   0.0000       5.110547       139.0651 
 994   0.0000       5.128373       139.5501 
 995   0.0000       5.144852       139.9985 
 996   0.0000       5.159293       140.3915 
 997   0.0000       5.178620       140.9174 
 998   0.0000       5.193983       141.3355 
 999   0.0000       5.197308       141.4259 
 1000   0.0000       5.220399       142.0543 
 1001   0.0000       5.223586       142.1410 
 1002   0.0000       5.243014       142.6697 
 1003   0.0000       5.268745       143.3698 
 1004   0.0000       5.307299       144.4189 
 1005   0.0000       5.326768       144.9487 
 1006   0.0000       5.335492       145.1861 
 1007   0.0000       5.361507       145.8940 
 1008   0.0000       5.381052       146.4259 
[...]
      px      :     0.121089
      py      :     0.069904
      dz2     :     0.002717  d :     0.029151
      dxz     :     0.007856
      dyz     :     0.000551
      dx2y2   :     0.008797
      dxy     :     0.009230
 14 C s       :     2.635077  s :     2.635077
      pz      :     0.702207  p :     2.555459
      px      :     0.913943
      py      :     0.939308
      dz2     :     0.063586  d :     0.705723
      dxz     :     0.045188
      dyz     :     0.135672
      dx2y2   :     0.248930
      dxy     :     0.212348
      f0      :     0.002803  f :     0.045232
      f+1     :     0.003482
      f-1     :     0.004076
      f+2     :     0.003418
      f-2     :     0.006678
      f+3     :     0.012121
      f-3     :     0.012654
 15 C s       :     2.644642  s :     2.644642
      pz      :     0.724062  p :     2.593537
      px      :     0.935781
      py      :     0.933694
      dz2     :     0.059785  d :     0.676109
      dxz     :     0.083011
      dyz     :     0.077296
      dx2y2   :     0.175736
      dxy     :     0.280281
      f0      :     0.002682  f :     0.044973
      f+1     :     0.003736
      f-1     :     0.003720
      f+2     :     0.007291
      f-2     :     0.002175
      f+3     :     0.012525
      f-3     :     0.012843
 16 H s       :     0.706584  s :     0.706584
      pz      :     0.071906  p :     0.260235
      px      :     0.069307
      py      :     0.119022
      dz2     :     0.002722  d :     0.028720
      dxz     :     0.000626
      dyz     :     0.007476
      dx2y2   :     0.008828
      dxy     :     0.009068
 17 H s       :     0.687064  s :     0.687064
      pz      :     0.076800  p :     0.296731
      px      :     0.125097
      py      :     0.094834
      dz2     :     0.002842  d :     0.029127
      dxz     :     0.007559
      dyz     :     0.000608
      dx2y2   :     0.009130
      dxy     :     0.008987
 18 H s       :     0.705335  s :     0.705335
      pz      :     0.072000  p :     0.259380
      px      :     0.093730
      py      :     0.093650
      dz2     :     0.002721  d :     0.028823
      dxz     :     0.004078
      dyz     :     0.004127
      dx2y2   :     0.009169
      dxy     :     0.008728
 19 C s       :     2.695858  s :     2.695858
      pz      :     0.777457  p :     2.635556
      px      :     0.846100
      py      :     1.011999
      dz2     :     0.111691  d :     0.951208
      dxz     :     0.120718
      dyz     :     0.214776
      dx2y2   :     0.241332
      dxy     :     0.262691
      f0      :     0.005363  f :     0.054762
      f+1     :     0.003131
      f-1     :     0.007099
      f+2     :     0.005451
      f-2     :     0.007135
      f+3     :     0.013178
      f-3     :     0.013405
 20 C s       :     2.757073  s :     2.757073
      pz      :     0.842285  p :     2.485119
      px      :     0.628616
      py      :     1.014217
      dz2     :     0.075513  d :     0.531045
      dxz     :     0.084308
      dyz     :     0.069365
      dx2y2   :     0.189090
      dxy     :     0.112769
      f0      :     0.002878  f :     0.034451
      f+1     :     0.001755
      f-1     :     0.005233
      f+2     :     0.002003
      f-2     :     0.003805
      f+3     :     0.008106
      f-3     :     0.010672
 21 H s       :     0.702062  s :     0.702062
      pz      :     0.082882  p :     0.287303
      px      :     0.072789
      py      :     0.131632
      dz2     :     0.003472  d :     0.028987
      dxz     :     0.000481
      dyz     :     0.009239
      dx2y2   :     0.009512
      dxy     :     0.006282
 22 Aus       :     2.259744  s :     2.259744
      pz      :     2.353373  p :     6.827928
      px      :     2.322944
      py      :     2.151611
      dz2     :     1.809645  d :     9.542966
      dxz     :     1.928520
      dyz     :     1.998427
      dx2y2   :     1.923254
      dxy     :     1.883120
      f0      :     0.028714  f :     0.126164
      f+1     :     0.031990
      f-1     :     0.017077
      f+2     :     0.011713
      f-2     :     0.010343
      f+3     :     0.010634
      f-3     :     0.015691
      g0      :     0.000243  g :     0.001537
      g+1     :     0.000277
      g-1     :     0.000198
      g+2     :     0.000178
      g-2     :     0.000146
      g+3     :     0.000075
      g-3     :     0.000103
      g+4     :     0.000151
      g-4     :     0.000166
 23 Cls       :     5.702453  s :     5.702453
      pz      :     3.493471  p :    11.164937
      px      :     3.828045
      py      :     3.843421
      dz2     :     0.054317  d :     0.187410
      dxz     :     0.061632
      dyz     :     0.036055
      dx2y2   :     0.023479
      dxy     :     0.011928
      f0      :     0.001835  f :     0.006176
      f+1     :     0.001552
      f-1     :     0.001408
      f+2     :     0.000633
      f-2     :     0.000609
      f+3     :     0.000073
      f-3     :     0.000066
 24 Cls       :     5.712648  s :     5.712648
      pz      :     3.873018  p :    11.203357
      px      :     3.499954
      py      :     3.830385
      dz2     :     0.030890  d :     0.198622
      dxz     :     0.062395
      dyz     :     0.017566
      dx2y2   :     0.049684
      dxy     :     0.038087
      f0      :     0.000633  f :     0.006269
      f+1     :     0.001077
      f-1     :     0.000175
      f+2     :     0.000886
      f-2     :     0.000590
      f+3     :     0.001400
      f-3     :     0.001509
 25 Cls       :     5.696619  s :     5.696619
      pz      :     3.499754  p :    11.143858
      px      :     3.821298
      py      :     3.822806
      dz2     :     0.056920  d :     0.192309
      dxz     :     0.058770
      dyz     :     0.046508
      dx2y2   :     0.017191
      dxy     :     0.012921
      f0      :     0.001827  f :     0.006065
      f+1     :     0.001497
      f-1     :     0.001420
      f+2     :     0.000610
      f-2     :     0.000581
      f+3     :     0.000065
      f-3     :     0.000065
 26 O s       :     3.175950  s :     3.175950
      pz      :     1.463269  p :     4.273225
      px      :     1.472015
      py      :     1.337942
      dz2     :     0.092735  d :     0.543519
      dxz     :     0.076998
      dyz     :     0.130468
      dx2y2   :     0.128982
      dxy     :     0.114335
      f0      :     0.001032  f :     0.006881
      f+1     :     0.000588
      f-1     :     0.001118
      f+2     :     0.000801
      f-2     :     0.001390
      f+3     :     0.000968
      f-3     :     0.000984
 27 O s       :     3.176083  s :     3.176083
      pz      :     1.449152  p :     4.266223
      px      :     1.366106
      py      :     1.450965
      dz2     :     0.095912  d :     0.543620
      dxz     :     0.120919
      dyz     :     0.091397
      dx2y2   :     0.122193
      dxy     :     0.113199
      f0      :     0.001076  f :     0.006915
      f+1     :     0.001100
      f-1     :     0.000701
      f+2     :     0.000771
      f-2     :     0.001365
      f+3     :     0.000870
      f-3     :     0.001033
 28 C s       :     2.630507  s :     2.630507
      pz      :     0.926941  p :     2.548135
      px      :     0.829837
      py      :     0.791357
      dz2     :     0.095454  d :     0.621066
      dxz     :     0.047768
      dyz     :     0.177332
      dx2y2   :     0.167225
      dxy     :     0.133287
      f0      :     0.005702  f :     0.065624
      f+1     :     0.007910
      f-1     :     0.008668
      f+2     :     0.003499
      f-2     :     0.009973
      f+3     :     0.012938
      f-3     :     0.016935
 29 H s       :     0.694261  s :     0.694261
      pz      :     0.120150  p :     0.265073
      px      :     0.060420
      py      :     0.084502
      dz2     :     0.008614  d :     0.028563
      dxz     :     0.005146
      dyz     :     0.008741
      dx2y2   :     0.002812
      dxy     :     0.003249
 30 H s       :     0.703969  s :     0.703969
      pz      :     0.113073  p :     0.254274
      px      :     0.064740
      py      :     0.076462
      dz2     :     0.009286  d :     0.028947
      dxz     :     0.005293
      dyz     :     0.008421
      dx2y2   :     0.002651
      dxy     :     0.003296
 31 H s       :     0.693589  s :     0.693589
      pz      :     0.079520  p :     0.265439
      px      :     0.119412
      py      :     0.066507
      dz2     :     0.002907  d :     0.028606
      dxz     :     0.008274
      dyz     :     0.001606
      dx2y2   :     0.008212
      dxy     :     0.007607
 32 C s       :     2.630921  s :     2.630921
      pz      :     0.923563  p :     2.548566
      px      :     0.816911
      py      :     0.808092
      dz2     :     0.095184  d :     0.620990
      dxz     :     0.164218
      dyz     :     0.061658
      dx2y2   :     0.155348
      dxy     :     0.144581
      f0      :     0.005547  f :     0.065699
      f+1     :     0.008297
      f-1     :     0.008691
      f+2     :     0.004445
      f-2     :     0.009083
      f+3     :     0.016690
      f-3     :     0.012947
 33 H s       :     0.704228  s :     0.704228
      pz      :     0.113783  p :     0.254318
      px      :     0.078660
      py      :     0.061876
      dz2     :     0.009482  d :     0.028952
      dxz     :     0.008524
      dyz     :     0.005290
      dx2y2   :     0.002459
      dxy     :     0.003197
 34 H s       :     0.693449  s :     0.693449
      pz      :     0.080138  p :     0.265243
      px      :     0.073996
      py      :     0.111109
      dz2     :     0.002949  d :     0.028600
      dxz     :     0.002515
      dyz     :     0.007452
      dx2y2   :     0.007917
      dxy     :     0.007768
 35 H s       :     0.694691  s :     0.694691
      pz      :     0.117462  p :     0.265323
      px      :     0.090194
      py      :     0.057668
      dz2     :     0.008131  d :     0.028568
      dxz     :     0.008747
      dyz     :     0.004931
      dx2y2   :     0.003177
      dxy     :     0.003581


                      *****************************
                      * MAYER POPULATION ANALYSIS *
                      *****************************

  NA   - Mulliken gross atomic population
  ZA   - Total nuclear charge
  QA   - Mulliken gross atomic charge
  VA   - Mayer's total valence
  BVA  - Mayer's bonded valence
  FA   - Mayer's free valence

  ATOM       NA         ZA         QA         VA         BVA        FA
  0 C      4.6896     6.0000     1.3104    -0.5848    -0.5848    -0.0000
  1 C      6.2684     6.0000    -0.2684     3.1883     3.1883     0.0000
  2 C      5.5473     6.0000     0.4527     3.2409     3.2409     0.0000
  3 C      6.5035     6.0000    -0.5035     3.9939     3.9939     0.0000
  4 C      5.7618     6.0000     0.2382     3.6196     3.6196    -0.0000
  5 C      6.4808     6.0000    -0.4808     3.5057     3.5057     0.0000
  6 H      0.8764     1.0000     0.1236     1.1113     1.1113     0.0000
  7 H      0.9273     1.0000     0.0727     1.0577     1.0577     0.0000
  8 H      0.8760     1.0000     0.1240     1.0140     1.0140     0.0000
  9 C      5.7431     6.0000     0.2569     0.4907     0.4907    -0.0000
 10 C      5.9842     6.0000     0.0158     3.1485     3.1485     0.0000
 11 C      4.9800     6.0000     1.0200     0.2121     0.2121    -0.0000
 12 C      6.2600     6.0000    -0.2600     3.5001     3.5001     0.0000
 13 H      0.9105     1.0000     0.0895     0.9630     0.9630     0.0000
 14 C      6.1763     6.0000    -0.1763     3.2167     3.2167     0.0000
 15 C      6.2890     6.0000    -0.2890     3.5853     3.5853     0.0000
 16 H      0.9409     1.0000     0.0591     0.9429     0.9429    -0.0000
 17 H      1.0321     1.0000    -0.0321     1.0003     1.0003    -0.0000
 18 H      0.9549     1.0000     0.0451     0.9576     0.9576     0.0000
 19 C      5.7439     6.0000     0.2561     1.7331     1.7331    -0.0000
 20 C      5.6937     6.0000     0.3063     3.0411     3.0411     0.0000
 21 H      1.1801     1.0000    -0.1801     1.2009     1.2009     0.0000
 22 Au    19.0568    19.0000    -0.0568     2.8047     2.8047     0.0000
 23 Cl    17.4904    17.0000    -0.4904     0.8239     0.8239    -0.0000
 24 Cl    17.4241    17.0000    -0.4241     0.9182     0.9182     0.0000
 25 Cl    17.5098    17.0000    -0.5098     0.8109     0.8109    -0.0000
 26 O      8.5168     8.0000    -0.5168     1.4994     1.4994     0.0000
 27 O      8.4972     8.0000    -0.4972     1.5235     1.5235    -0.0000
 28 C      6.1315     6.0000    -0.1315     4.0150     4.0150     0.0000
 29 H      0.8828     1.0000     0.1172     1.0137     1.0137     0.0000
 30 H      0.9696     1.0000     0.0304     1.0366     1.0366    -0.0000
 31 H      0.8689     1.0000     0.1311     0.9898     0.9898     0.0000
 32 C      6.1046     6.0000    -0.1046     3.9955     3.9955    -0.0000
 33 H      0.9713     1.0000     0.0287     1.0372     1.0372    -0.0000
 34 H      0.8773     1.0000     0.1227     1.0118     1.0118    -0.0000
 35 H      0.8790     1.0000     0.1210     1.0061     1.0061    -0.0000

  Mayer bond orders larger than 0.100000
B(  0-C ,  1-C ) :   0.4743 B(  0-C ,  3-C ) :  -0.3192 B(  0-C ,  4-C ) :  -0.1905 
B(  0-C ,  5-C ) :   1.0102 B(  0-C ,  6-H ) :  -0.3924 B(  0-C ,  9-C ) :  -0.6399 
B(  0-C , 10-C ) :  -0.1748 B(  0-C , 12-C ) :  -0.1743 B(  0-C , 14-C ) :  -0.1516 
B(  0-C , 15-C ) :   0.1072 B(  1-C ,  2-C ) :   1.0092 B(  1-C ,  5-C ) :   0.1746 
B(  1-C ,  6-H ) :   1.2043 B(  1-C ,  9-C ) :  -0.2008 B(  1-C , 10-C ) :   0.4570 
B(  1-C , 12-C ) :  -0.1027 B(  1-C , 14-C ) :  -0.1174 B(  1-C , 20-C ) :   0.3178 
B(  1-C , 26-O ) :  -0.1009 B(  2-C ,  3-C ) :   1.6117 B(  2-C ,  4-C ) :   0.1737 
B(  2-C ,  6-H ) :   0.2912 B(  2-C , 10-C ) :  -0.3252 B(  2-C , 11-C ) :   0.1000 
B(  2-C , 12-C ) :   0.1055 B(  2-C , 14-C ) :   0.1715 B(  2-C , 26-O ) :   0.4621 
B(  3-C ,  4-C ) :   1.5464 B(  3-C ,  7-H ) :   0.8814 B(  3-C ,  9-C ) :   0.1178 
B(  3-C , 10-C ) :   0.1034 B(  3-C , 11-C ) :  -0.1137 B(  4-C ,  5-C ) :   1.3941 
B(  4-C , 10-C ) :  -0.2065 B(  4-C , 11-C ) :   0.1138 B(  4-C , 27-O ) :   0.6722 
B(  5-C ,  8-H ) :   0.9979 B(  5-C ,  9-C ) :  -0.1851 B(  5-C , 10-C ) :   0.2670 
B(  5-C , 11-C ) :  -0.1563 B(  5-C , 20-C ) :   0.1385 B(  5-C , 27-O ) :  -0.1060 
B(  9-C , 10-C ) :   0.6216 B(  9-C , 11-C ) :   0.9010 B(  9-C , 14-C ) :   0.1074 
B(  9-C , 19-C ) :  -0.1771 B( 10-C , 12-C ) :   1.2937 B( 10-C , 13-H ) :   0.9671 
B( 11-C , 14-C ) :   0.8535 B( 11-C , 17-H ) :  -0.2480 B( 11-C , 22-Au) :  -0.7356 
B( 11-C , 25-Cl) :  -0.2876 B( 12-C , 15-C ) :   1.2803 B( 12-C , 16-H ) :   1.0704 
B( 14-C , 15-C ) :   1.3206 B( 14-C , 17-H ) :   1.1074 B( 15-C , 18-H ) :   1.0805 
B( 19-C , 20-C ) :   1.5481 B( 19-C , 21-H ) :  -0.5537 B( 19-C , 22-Au) :   0.5142 
B( 19-C , 25-Cl) :   0.3743 B( 20-C , 21-H ) :   1.5816 B( 20-C , 23-Cl) :  -0.3517 
B( 20-C , 25-Cl) :  -0.4747 B( 22-Au, 23-Cl) :   1.0196 B( 22-Au, 24-Cl) :   0.7586 
B( 22-Au, 25-Cl) :   1.0230 B( 23-Cl, 25-Cl) :   0.1550 B( 26-O , 28-C ) :   0.9762 
B( 27-O , 32-C ) :   0.9538 B( 28-C , 29-H ) :   0.9557 B( 28-C , 30-H ) :   1.0663 
B( 28-C , 31-H ) :   0.9583 B( 32-C , 33-H ) :   1.0612 B( 32-C , 34-H ) :   0.9646 
B( 32-C , 35-H ) :   0.9612 

-------
TIMINGS
-------

Total SCF time: 0 days 0 hours 18 min 43 sec 

Total time                  ....    1123.291 sec
Sum of individual times     ....    1121.683 sec  ( 99.9%)

Fock matrix formation       ....    1111.890 sec  ( 99.0%)
  XC integration            ....      18.343 sec  (  1.6% of F)
    Basis function eval.    ....       1.824 sec  (  9.9% of XC)
    Density eval.           ....       7.279 sec  ( 39.7% of XC)
    XC-Functional eval.     ....       0.180 sec  (  1.0% of XC)
    XC-Potential eval.      ....       7.899 sec  ( 43.1% of XC)
Diagonalization             ....       3.122 sec  (  0.3%)
Density matrix formation    ....       0.179 sec  (  0.0%)
Population analysis         ....       0.300 sec  (  0.0%)
Initial guess               ....       2.141 sec  (  0.2%)
Orbital Transformation      ....       0.000 sec  (  0.0%)
Orbital Orthonormalization  ....       0.000 sec  (  0.0%)
DIIS solution               ....       3.036 sec  (  0.3%)
Grid generation             ....       1.015 sec  (  0.1%)


-------------------------------------------------------------------------------
                          DFT DISPERSION CORRECTION                            
                                                                               
                              DFTD3 V3.1  Rev 1                                
                          USING Becke-Johnson damping                          
-------------------------------------------------------------------------------
The TPSSH functional is recognized
Active option DFTDOPT                   ...         4   

molecular C6(AA) [au] = 24237.286643 


            DFT-D V3
 parameters
 s6 scaling factor         :     1.0000 
 a1 scaling factor         :     0.4529 
 s8 scaling factor         :     2.2382 
 a2 scaling factor         :     4.6550 
 ad hoc parameters k1-k3   :    16.0000     1.3333    -4.0000 

 Edisp/kcal,au: -42.974115619116  -0.068483605127 
 E6   /kcal   : -19.303224668 
 E8   /kcal   : -23.670890951 
 % E8         :  55.081740741 

-------------------------   ----------------
Dispersion correction           -0.068483605
-------------------------   ----------------


-------------------------   --------------------
FINAL SINGLE POINT ENERGY     -2285.343981697797
-------------------------   --------------------


                            ***************************************
                            *     ORCA property calculations      *
                            ***************************************

                                    ---------------------
                                    Active property flags
                                    ---------------------
   (+) Dipole Moment


------------------------------------------------------------------------------
                       ORCA ELECTRIC PROPERTIES CALCULATION
------------------------------------------------------------------------------

Dipole Moment Calculation                       ... on
Quadrupole Moment Calculation                   ... off
Polarizability Calculation                      ... off
GBWName                                         ... TMB26_T1.gbw
Electron density file                           ... TMB26_T1.scfp
The origin for moment calculation is the CENTER OF MASS  = ( 0.485035, -0.082092 -0.032589)

-------------
DIPOLE MOMENT
-------------
                                X             Y             Z
Electronic contribution:    332.29783     -71.59374     -21.68258
Nuclear contribution   :   -337.50313      71.82916      22.27008
                        -----------------------------------------
Total Dipole Moment    :     -5.20529       0.23542       0.58750
                        -----------------------------------------
Magnitude (a.u.)       :      5.24363
Magnitude (Debye)      :     13.32824



--------------------
Rotational spectrum 
--------------------
 
Rotational constants in cm-1:     0.008801     0.003370     0.003018 
Rotational constants in MHz :   263.837003   101.042363    90.466575 

 Dipole components along the rotational axes: 
x,y,z [a.u.] :     5.213543     0.073378     0.556077 
x,y,z [Debye]:    13.251772     0.186513     1.413436 

 

Timings for individual modules:

Sum of individual times         ...     1128.198 sec (=  18.803 min)
GTO integral calculation        ...        4.538 sec (=   0.076 min)   0.4 %
SCF iterations                  ...     1123.661 sec (=  18.728 min)  99.6 %
                             ****ORCA TERMINATED NORMALLY****
TOTAL RUN TIME: 0 days 0 hours 18 minutes 48 seconds 947 msec
