
                                 *****************
                                 * O   R   C   A *
                                 *****************

           --- An Ab Initio, DFT and Semiempirical electronic structure package ---

                  #######################################################
                  #                        -***-                        #
                  #          Department of theory and spectroscopy      #
                  #               Directorship: Frank Neese             #
                  #        Max Planck Institute fuer Kohlenforschung    #
                  #                Kaiser Wilhelm Platz 1               #
                  #                 D-45470 Muelheim/Ruhr               #
                  #                      Germany                        #
                  #                                                     #
                  #                  All rights reserved                #
                  #                        -***-                        #
                  #######################################################


                         Program Version 4.2.0 -  RELEASE  -


 With contributions from (in alphabetic order):
   Daniel Aravena         : Magnetic Suceptibility
   Michael Atanasov       : Ab Initio Ligand Field Theory (pilot matlab implementation)
   Alexander A. Auer      : GIAO ZORA, VPT2
   Ute Becker             : Parallelization
   Giovanni Bistoni       : ED, misc. LED, open-shell LED, HFLED
   Martin Brehm           : Molecular dynamics
   Dmytro Bykov           : SCF Hessian
   Vijay G. Chilkuri      : MRCI spin determinant printing, contributions to CSF-ICE
   Dipayan Datta          : RHF DLPNO-CCSD density
   Achintya Kumar Dutta   : EOM-CC, STEOM-CC
   Dmitry Ganyushin       : Spin-Orbit,Spin-Spin,Magnetic field MRCI
   Miquel Garcia          : C-PCM Hessian, Gaussian charge scheme
   Yang Guo               : DLPNO-NEVPT2, CIM, IAO-localization
   Andreas Hansen         : Spin unrestricted coupled pair/coupled cluster methods
   Benjamin Helmich-Paris : CASSCF linear response (MC-RPA)
   Lee Huntington         : MR-EOM, pCC
   Robert Izsak           : Overlap fitted RIJCOSX, COSX-SCS-MP3, EOM
   Christian Kollmar      : KDIIS, OOCD, Brueckner-CCSD(T), CCSD density
   Simone Kossmann        : Meta GGA functionals, TD-DFT gradient, OOMP2, MP2 Hessian
   Martin Krupicka        : AUTO-CI
   Lucas Lang             : DCDCAS
   Dagmar Lenk            : GEPOL surface, SMD
   Dimitrios Liakos       : Extrapolation schemes; Compound Job, initial MDCI parallelization
   Dimitrios Manganas     : Further ROCIS development; embedding schemes
   Dimitrios Pantazis     : SARC Basis sets
   Taras Petrenko         : DFT Hessian,TD-DFT gradient, ASA, ECA, R-Raman, ABS, FL, XAS/XES, NRVS
   Peter Pinski           : DLPNO-MP2, DLPNO-MP2 Gradient
   Christoph Reimann      : Effective Core Potentials
   Marius Retegan         : Local ZFS, SOC
   Christoph Riplinger    : Optimizer, TS searches, QM/MM, DLPNO-CCSD(T), (RO)-DLPNO pert. Triples
   Tobias Risthaus        : Range-separated hybrids, TD-DFT gradient, RPA, STAB
   Michael Roemelt        : Original ROCIS implementation
   Masaaki Saitow         : Open-shell DLPNO-CCSD energy and density
   Barbara Sandhoefer     : DKH picture change effects
   Avijit Sen             : IP-ROCIS
   Kantharuban Sivalingam : CASSCF convergence, NEVPT2, FIC-MRCI
   Bernardo de Souza      : ESD, SOC TD-DFT
   Georgi Stoychev        : AutoAux, RI-MP2 NMR
   Willem Van den Heuvel  : Paramagnetic NMR
   Boris Wezisla          : Elementary symmetry handling
   Frank Wennmohs         : Technical directorship


 We gratefully acknowledge several colleagues who have allowed us to
 interface, adapt or use parts of their codes:
   Stefan Grimme, W. Hujo, H. Kruse,             : VdW corrections, initial TS optimization,
                  C. Bannwarth                     DFT functionals, gCP, sTDA/sTD-DF
   Ed Valeev, F. Pavosevic, A. Kumar             : LibInt (2-el integral package), F12 methods
   Garnet Chan, S. Sharma, J. Yang, R. Olivares  : DMRG
   Ulf Ekstrom                                   : XCFun DFT Library
   Mihaly Kallay                                 : mrcc  (arbitrary order and MRCC methods)
   Andreas Klamt, Michael Diedenhofen            : otool_cosmo (COSMO solvation model)
   Jiri Pittner, Ondrej Demel                    : Mk-CCSD
   Frank Weinhold                                : gennbo (NPA and NBO analysis)
   Christopher J. Cramer and Donald G. Truhlar   : smd solvation model
   Lars Goerigk                                  : TD-DFT with DH, B97 family of functionals
   V. Asgeirsson, H. Jonsson                     : NEB implementation
   FAccTs GmbH                                   : IRC, NEB, NEB-TS, Multilevel, MM, QM/MM, CI optimization
   S Lehtola, MJT Oliveira, MAL Marques          : LibXC Library


 Your calculation uses the libint2 library for the computation of 2-el integrals
 For citations please refer to: http://libint.valeyev.net

 Your ORCA version has been built with support for libXC version: 4.2.3
 For citations please refer to: https://tddft.org/programs/libxc/

 This ORCA versions uses:
   CBLAS   interface :  Fast vector & matrix operations
   LAPACKE interface :  Fast linear algebra routines
   SCALAPACK package :  Parallel linear algebra routines


Your calculation utilizes the atom-pairwise dispersion correction
with the Becke-Johnson damping scheme (D3BJ)
Cite in your paper:
S.Grimme, S.Ehrlich, L.Goerigk, J Comput Chem, (2011), 32, 1456–1465 
S.Grimme, J.Antony, S.Ehrlich and H.Krieg, J.Chem.Phys., 132, (2010), 154104 
   

----- Orbital basis set information -----
Your calculation utilizes the basis: def2-TZVPPD
   F. Weigend and R. Ahlrichs, Phys. Chem. Chem. Phys. 7, 3297 (2005).
   D. Rappoport and F. Furche, J. Chem. Phys. 133 134105 (2010).

----- AuxJK basis set information -----
Your calculation utilizes the auxiliary basis: def2/JK
   H-Ba, Hf-Rn: F. Weigend, J. Comput. Chem. 29, 167 (2008).

cite the ECPs for Re [Def2-ECP] as follows:
Ce-Yb(ecp-28): M. Dolg, H. Stoll, H.Preuss, J. Chem. Phys., 1989, 90, 1730-1734.
Y-Cd(ecp-28), Hf-Hg(ecp-46): D. Andrae,U. Haeussermann, M. Dolg, H. Stoll, H. Preuss, Theor. Chim. Acta, 1990, 77, 123-141.
In-Sb(ecp-28), Tl-Bi(ecp-46): B. Metz, H. Stoll, M. Dolg, J. Chem. Phys., 2000, 113, 2563-2569.
Te-Xe(ecp-28), Po-Rn(ecp-46): K. A. Peterson, D. Figgen, E. Goll, H. Stoll, M. Dolg, J. Chem. Phys., 2003, 119, 11113-11123.
Rb(ecp-28), Cs(ecp-46): T. Leininger, A. Nicklass, W. Kuechle, H. Stoll, M. Dolg, A. Bergner, Chem. Phys. Lett., 1996, 255, 274-280.
Sr(ecp-28), Ba(ecp-46): M. Kaupp, P. V. Schleyer, H. Stoll and H. Preuss, J. Chem. Phys., 1991, 94, 1360-1366.
La(ecp-46): M. Dolg, H. Stoll, A. Savin, H. Preuss, Theor. Chim. Acta, 1989, 75, 173-194.
Lu(ecp-28): X. Cao, M. Dolg, J. Chem. Phys., 2001, 115, 7348-7355.

ECP parameters for Re [Def2-ECP] have been obtained from:
TURBOMOLE (7.0.2)

================================================================================
                                        WARNINGS
                       Please study these warnings very carefully!
================================================================================


INFO   : the flag for use of LIBINT has been found!

================================================================================
                                       INPUT FILE
================================================================================
NAME = TMB20_I1.in
|  1> #
|  2> # TMB20_I1 TPSSh-D3BJ/Def2-TZVPPD
|  3> #
|  4> ! tpssh d3bj def2-tzvppd def2/jk grid4 nofinalgrid
|  5> 
|  6> *xyz 0 1
|  7> Re       0.721260    0.301703   -0.012347 
|  8> C        1.851141    0.452958   -1.678261 
|  9> C        1.971728    0.634914    1.425372 
| 10> C        0.763580    2.214165   -0.101283 
| 11> Br       1.710512   -2.064741    0.019177 
| 12> O        0.816608    3.358474   -0.166463 
| 13> O        2.493283    0.513036   -2.612271 
| 14> O        2.652573    0.808904    2.320449 
| 15> C       -1.780395   -0.133590    1.665167 
| 16> C       -0.470905   -0.371203    1.638632 
| 17> C       -2.365069    0.652857    0.526821 
| 18> C       -3.493010   -0.159458   -0.075600 
| 19> O       -3.300943   -1.161632   -0.733339 
| 20> O       -4.693453    0.297769    0.229376 
| 21> C       -1.280010    0.876972   -0.512116 
| 22> O       -0.953000   -0.240509   -1.297416 
| 23> H       -1.566319   -0.977006   -1.049921 
| 24> C       -5.797043   -0.483161   -0.244906 
| 25> H       -6.688437    0.024549    0.111717 
| 26> H       -5.787691   -0.527184   -1.333247 
| 27> H       -5.742358   -1.494851    0.155119 
| 28> H       -0.050439   -0.962173    2.449658 
| 29> H       -2.758296    1.619346    0.851818 
| 30> H       -2.454065   -0.501260    2.435709 
| 31> H       -1.435420    1.741704   -1.151672 
| 32> *
| 33> 
| 34> %maxcore 5000
| 35> 
| 36> %pal
| 37> nprocs = 24
| 38> end
| 39> 
| 40> 
| 41>                          ****END OF INPUT****
================================================================================

                       ****************************
                       * Single Point Calculation *
                       ****************************

---------------------------------
CARTESIAN COORDINATES (ANGSTROEM)
---------------------------------
  Re     0.721260    0.301703   -0.012347
  C      1.851141    0.452958   -1.678261
  C      1.971728    0.634914    1.425372
  C      0.763580    2.214165   -0.101283
  Br     1.710512   -2.064741    0.019177
  O      0.816608    3.358474   -0.166463
  O      2.493283    0.513036   -2.612271
  O      2.652573    0.808904    2.320449
  C     -1.780395   -0.133590    1.665167
  C     -0.470905   -0.371203    1.638632
  C     -2.365069    0.652857    0.526821
  C     -3.493010   -0.159458   -0.075600
  O     -3.300943   -1.161632   -0.733339
  O     -4.693453    0.297769    0.229376
  C     -1.280010    0.876972   -0.512116
  O     -0.953000   -0.240509   -1.297416
  H     -1.566319   -0.977006   -1.049921
  C     -5.797043   -0.483161   -0.244906
  H     -6.688437    0.024549    0.111717
  H     -5.787691   -0.527184   -1.333247
  H     -5.742358   -1.494851    0.155119
  H     -0.050439   -0.962173    2.449658
  H     -2.758296    1.619346    0.851818
  H     -2.454065   -0.501260    2.435709
  H     -1.435420    1.741704   -1.151672

----------------------------
CARTESIAN COORDINATES (A.U.)
----------------------------
  NO LB      ZA    FRAG     MASS         X           Y           Z
   0 Re   15.0000*   0   186.207    1.362984    0.570136   -0.023332
   1 C     6.0000    0    12.011    3.498150    0.855967   -3.171454
   2 C     6.0000    0    12.011    3.726026    1.199814    2.693563
   3 C     6.0000    0    12.011    1.442957    4.184165   -0.191397
   4 Br   35.0000    0    79.900    3.232399   -3.901795    0.036239
   5 O     8.0000    0    15.999    1.543165    6.346596   -0.314569
   6 O     8.0000    0    15.999    4.711622    0.969498   -4.936477
   7 O     8.0000    0    15.999    5.012637    1.528607    4.385013
   8 C     6.0000    0    12.011   -3.364459   -0.252449    3.146710
   9 C     6.0000    0    12.011   -0.889881   -0.701472    3.096566
  10 C     6.0000    0    12.011   -4.469333    1.233721    0.995547
  11 C     6.0000    0    12.011   -6.600832   -0.301332   -0.142863
  12 O     8.0000    0    15.999   -6.237878   -2.195166   -1.385810
  13 O     8.0000    0    15.999   -8.869341    0.562702    0.433458
  14 C     6.0000    0    12.011   -2.418868    1.657237   -0.967759
  15 O     8.0000    0    15.999   -1.800909   -0.454496   -2.451761
  16 H     1.0000    0     1.008   -2.959914   -1.846274   -1.984063
  17 C     6.0000    0    12.011  -10.954824   -0.913042   -0.462805
  18 H     1.0000    0     1.008  -12.639314    0.046391    0.211115
  19 H     1.0000    0     1.008  -10.937151   -0.996233   -2.519472
  20 H     1.0000    0     1.008  -10.851484   -2.824859    0.293132
  21 H     1.0000    0     1.008   -0.095316   -1.818243    4.629183
  22 H     1.0000    0     1.008   -5.212424    3.060120    1.609703
  23 H     1.0000    0     1.008   -4.637511   -0.947244    4.602823
  24 H     1.0000    0     1.008   -2.712551    3.291344   -2.176345
* core charge reduced due to ECP

--------------------------------
INTERNAL COORDINATES (ANGSTROEM)
--------------------------------
 Re     0   0   0     0.000000000000     0.00000000     0.00000000
 C      1   0   0     2.018608085930     0.00000000     0.00000000
 C      1   2   0     1.934356666312   103.80654022     0.00000000
 C      1   2   3     1.914996474133    82.78873306    79.12564351
 Br     1   2   3     2.565086838143    82.14904570   277.89406674
 O      4   1   2     1.147389859056   178.49391541   327.51252020
 O      2   1   3     1.135046428279   178.68609495    85.33200211
 O      3   1   2     1.137974195689   176.12648842   189.59702686
 C      1   2   3     3.043322354774   157.77851098   179.94088692
 C      9   1   2     1.331137898226    37.42944185   142.11684556
 C      9   1   2     1.502056651995    80.05745056   320.38587205
 C     11   9   1     1.514931556192   108.08544047   123.96679349
 O     12  11   9     1.214027615372   122.70308766   288.28179310
 O     12  11   9     1.320276594640   113.54196190   105.72491438
 C     11   9   1     1.518871507625   108.51615153     4.92357813
 O     15  11   9     1.404419956943   115.55716524    75.06443266
 H     16  15  11     0.989869588277   107.93539870     3.93651329
 C     14  12  11     1.432726759897   115.79356577   183.80260110
 H     18  14  12     1.086062922424   105.58700129   178.86376631
 H     18  14  12     1.089271140127   110.25308027   298.51319643
 H     18  14  12     1.089278250012   110.24300066    59.16322117
 H     10   9   1     1.088025905359   117.53306695   183.42949817
 H     11   9   1     1.092863903082   112.19249287   244.09671328
 H      9   1   2     1.087541940140   161.45769375   131.12866136
 H     15  11   9     1.086713199082   114.69643541   204.22702384

---------------------------
INTERNAL COORDINATES (A.U.)
---------------------------
 Re     0   0   0     0.000000000000     0.00000000     0.00000000
 C      1   0   0     3.814616454127     0.00000000     0.00000000
 C      1   2   0     3.655404344655   103.80654022     0.00000000
 C      1   2   3     3.618818883535    82.78873306    79.12564351
 Br     1   2   3     4.847311633817    82.14904570   277.89406674
 O      4   1   2     2.168252602455   178.49391541   327.51252020
 O      2   1   3     2.144926898732   178.68609495    85.33200211
 O      3   1   2     2.150459577321   176.12648842   189.59702686
 C      1   2   3     5.751045787764   157.77851098   179.94088692
 C      9   1   2     2.515486074131    37.42944185   142.11684556
 C      9   1   2     2.838475709904    80.05745056   320.38587205
 C     11   9   1     2.862805752838   108.08544047   123.96679349
 O     12  11   9     2.294179712071   122.70308766   288.28179310
 O     12  11   9     2.494961184896   113.54196190   105.72491438
 C     11   9   1     2.870251182027   108.51615153     4.92357813
 O     15  11   9     2.653969095637   115.55716524    75.06443266
 H     16  15  11     1.870582430140   107.93539870     3.93651329
 C     14  12  11     2.707461200945   115.79356577   183.80260110
 H     18  14  12     2.052361487588   105.58700129   178.86376631
 H     18  14  12     2.058424140425   110.25308027   298.51319643
 H     18  14  12     2.058437576160   110.24300066    59.16322117
 H     10   9   1     2.056070987740   117.53306695   183.42949817
 H     11   9   1     2.065213478473   112.19249287   244.09671328
 H      9   1   2     2.055156426018   161.45769375   131.12866136
 H     15  11   9     2.053590332383   114.69643541   204.22702384

---------------------
BASIS SET INFORMATION
---------------------
There are 5 groups of distinct atoms

 Group   1 Type Re  : 8s8p6d2f1g contracted to 6s5p3d2f1g pattern {311111/41111/411/11/1}
 Group   2 Type C   : 12s6p3d1f contracted to 6s3p3d1f pattern {621111/411/111/1}
 Group   3 Type Br  : 18s14p9d1f contracted to 7s6p5d1f pattern {8421111/641111/51111/1}
 Group   4 Type O   : 12s7p3d1f contracted to 6s4p3d1f pattern {621111/4111/111/1}
 Group   5 Type H   : 5s3p1d contracted to 3s3p1d pattern {311/111/1}

Atom   0Re   basis set group =>   1
Atom   1C    basis set group =>   2
Atom   2C    basis set group =>   2
Atom   3C    basis set group =>   2
Atom   4Br   basis set group =>   3
Atom   5O    basis set group =>   4
Atom   6O    basis set group =>   4
Atom   7O    basis set group =>   4
Atom   8C    basis set group =>   2
Atom   9C    basis set group =>   2
Atom  10C    basis set group =>   2
Atom  11C    basis set group =>   2
Atom  12O    basis set group =>   4
Atom  13O    basis set group =>   4
Atom  14C    basis set group =>   2
Atom  15O    basis set group =>   4
Atom  16H    basis set group =>   5
Atom  17C    basis set group =>   2
Atom  18H    basis set group =>   5
Atom  19H    basis set group =>   5
Atom  20H    basis set group =>   5
Atom  21H    basis set group =>   5
Atom  22H    basis set group =>   5
Atom  23H    basis set group =>   5
Atom  24H    basis set group =>   5
----------------------------------
AUXILIARY/JK BASIS SET INFORMATION
----------------------------------
There are 5 groups of distinct atoms

 Group   1 Type Re  : 13s12p11d9f5g3h2i contracted to 11s9p9d7f4g3h2i pattern {31111111111/411111111/311111111/3111111/2111/111/11}
 Group   2 Type C   : 14s10p6d2f1g contracted to 10s8p5d1f1g pattern {5111111111/31111111/21111/2/1}
 Group   3 Type Br  : 20s14p13d10f7g3h contracted to 17s13p12d9f6g3h pattern {41111111111111111/2111111111111/211111111111/211111111/211111/111}
 Group   4 Type O   : 14s10p6d2f1g contracted to 10s8p4d2f1g pattern {5111111111/31111111/3111/11/1}
 Group   5 Type H   : 4s2p2d contracted to 2s2p2d pattern {31/11/11}

Atom   0Re   basis set group =>   1
Atom   1C    basis set group =>   2
Atom   2C    basis set group =>   2
Atom   3C    basis set group =>   2
Atom   4Br   basis set group =>   3
Atom   5O    basis set group =>   4
Atom   6O    basis set group =>   4
Atom   7O    basis set group =>   4
Atom   8C    basis set group =>   2
Atom   9C    basis set group =>   2
Atom  10C    basis set group =>   2
Atom  11C    basis set group =>   2
Atom  12O    basis set group =>   4
Atom  13O    basis set group =>   4
Atom  14C    basis set group =>   2
Atom  15O    basis set group =>   4
Atom  16H    basis set group =>   5
Atom  17C    basis set group =>   2
Atom  18H    basis set group =>   5
Atom  19H    basis set group =>   5
Atom  20H    basis set group =>   5
Atom  21H    basis set group =>   5
Atom  22H    basis set group =>   5
Atom  23H    basis set group =>   5
Atom  24H    basis set group =>   5
-------------------------
ECP PARAMETER INFORMATION
-------------------------

 Group 1, Type Re ECP Def2-ECP (replacing 60 core electrons, lmax=3)

Atom   0Re   ECP group =>   1



           ************************************************************
           *        Program running with 24 parallel MPI-processes    *
           *              working on a common directory               *
           ************************************************************
------------------------------------------------------------------------------
                           ORCA GTO INTEGRAL CALCULATION
------------------------------------------------------------------------------

                         BASIS SET STATISTICS AND STARTUP INFO

 # of primitive gaussian shells          ...  475
 # of primitive gaussian functions       ... 1147
 # of contracted shells                  ...  293
 # of contracted basis functions         ...  825
 Highest angular momentum                ...    4
 Maximum contraction depth               ...    8
 Integral package used                   ... LIBINT
 Integral threshhold            Thresh   ...  1.000e-10
 Primitive cut-off              TCut     ...  1.000e-11


------------------------------ INTEGRAL EVALUATION ----------------------------


 * One electron integrals 

   ECP integrals                         ... done
 Pre-screening matrix                    ... done
 Shell pair data                         ... done (   0.010 sec)



           ************************************************************
           *        Program running with 24 parallel MPI-processes    *
           *              working on a common directory               *
           ************************************************************
-------------------------------------------------------------------------------
                                 ORCA SCF
-------------------------------------------------------------------------------

------------
SCF SETTINGS
------------
Hamiltonian:
 Density Functional     Method          .... DFT(GTOs)
 Exchange Functional    Exchange        .... TPSS
 Correlation Functional Correlation     .... TPSS
 LDA part of GGA corr.  LDAOpt          .... PW91-LDA
 Gradients option       PostSCFGGA      .... off
 Hybrid DFT is turned on
   Fraction HF Exchange ScalHFX         ....  0.100000
   Scaling of DF-GGA-X  ScalDFX         ....  0.900000
   Scaling of DF-GGA-C  ScalDFC         ....  1.000000
   Scaling of DF-LDA-C  ScalLDAC        ....  1.000000
   Perturbative correction              ....  0.000000
   Density functional embedding theory  .... OFF
   NL short-range parameter             ....  5.200000


General Settings:
 Integral files         IntName         .... TMB20_I1
 Hartree-Fock type      HFTyp           .... RHF
 Total Charge           Charge          ....    0
 Multiplicity           Mult            ....    1
 Number of Electrons    NEL             ....  160
 Basis Dimension        Dim             ....  825
 Nuclear Repulsion      ENuc            ....   1785.3687109308 Eh

Convergence Acceleration:
 DIIS                   CNVDIIS         .... on
   Start iteration      DIISMaxIt       ....    12
   Startup error        DIISStart       ....  0.200000
   # of expansion vecs  DIISMaxEq       ....     5
   Bias factor          DIISBfac        ....   1.050
   Max. coefficient     DIISMaxC        ....  10.000
 Newton-Raphson         CNVNR           .... off
 SOSCF                  CNVSOSCF        .... off
 Level Shifting         CNVShift        .... on
   Level shift para.    LevelShift      ....    0.2500
   Turn off err/grad.   ShiftErr        ....    0.0010
 Zerner damping         CNVZerner       .... off
 Static damping         CNVDamp         .... on
   Fraction old density DampFac         ....    0.7000
   Max. Damping (<1)    DampMax         ....    0.9800
   Min. Damping (>=0)   DampMin         ....    0.0000
   Turn off err/grad.   DampErr         ....    0.1000
 Fernandez-Rico         CNVRico         .... off

SCF Procedure:
 Maximum # iterations   MaxIter         ....   125
 SCF integral mode      SCFMode         .... Direct
   Integral package                     .... LIBINT
 Reset frequency        DirectResetFreq ....    20
 Integral Threshold     Thresh          ....  1.000e-10 Eh
 Primitive CutOff       TCut            ....  1.000e-11 Eh

Convergence Tolerance:
 Convergence Check Mode ConvCheckMode   .... Total+1el-Energy
 Convergence forced     ConvForced      .... 0
 Energy Change          TolE            ....  1.000e-06 Eh
 1-El. energy change                    ....  1.000e-03 Eh
 DIIS Error             TolErr          ....  1.000e-06


Diagonalization of the overlap matrix:
Smallest eigenvalue                        ... 7.418e-07
Time for diagonalization                   ...    0.137 sec
Threshold for overlap eigenvalues          ... 1.000e-08
Number of eigenvalues below threshold      ... 0
Time for construction of square roots      ...    0.091 sec
Total time needed                          ...    0.230 sec

-------------------
DFT GRID GENERATION
-------------------

General Integration Accuracy     IntAcc      ...  4.670
Radial Grid Type                 RadialGrid  ... Gauss-Chebyshev
Angular Grid (max. acc.)         AngularGrid ... Lebedev-302
Angular grid pruning method      GridPruning ... 3 (G Style)
Weight generation scheme         WeightScheme... Becke
Basis function cutoff            BFCut       ...    1.0000e-10
Integration weight cutoff        WCut        ...    1.0000e-14
Grids for H and He will be reduced by one unit

# of grid points (after initial pruning)     ... 141600 (   0.0 sec)
# of grid points (after weights+screening)   ... 127291 (   0.1 sec)
nearest neighbour list constructed           ...    0.0 sec
Grid point re-assignment to atoms done       ...    0.0 sec
Grid point division into batches done        ...    0.5 sec
Reduced shell lists constructed in    0.6 sec

Total number of grid points                  ...   127291
Total number of batches                      ...     2003
Average number of points per batch           ...       63
Average number of grid points per atom       ...     5092
Average number of shells per batch           ...   189.67 (64.73%)
Average number of basis functions per batch  ...   553.22 (67.06%)
Average number of large shells per batch     ...   147.91 (77.98%)
Average number of large basis fcns per batch ...   431.65 (78.02%)
Maximum spatial batch extension              ...   1.91,  1.88,  1.64 au
Average spatial batch extension              ...   0.04,  0.04,  0.04 au

Time for grid setup =    0.847 sec

------------------------------
INITIAL GUESS: MODEL POTENTIAL
------------------------------
Loading Hartree-Fock densities                     ... done
  calling /sw/apps/orca/orca_4_2_0_linux_x86-64_openmpi314/orca TMB20_I1_atom75.inp > TMB20_I1_atom75.out in order to generate an atomic fitting density for atom 0 (Re with ECP) on-the-fly... 
    atom 0 (Re), assumed electronic state with S=6: 1s2 2s2 2p6 3s2 3p6 4s2 3d10 4p6 5s2 4d10 5p6 6s2 4f14 5d5           ... done
Calculating cut-offs                               ... done
Setting up the integral package                    ... done
Initializing the effective Hamiltonian             ... done
Starting the Coulomb interaction                   ... done (   0.1 sec)
Reading the grid                                   ... done
Mapping shells                                     ... done
Starting the XC term evaluation                    ... done (   0.4 sec)
  promolecular density results
     # of electrons  =    219.998605157
     EX              =   -519.456298362
     EC              =     -9.976948294
     EX+EC           =   -529.433246656
Transforming the Hamiltonian                       ... done (   0.1 sec)
Diagonalizing the Hamiltonian                      ... done (   0.1 sec)
Back transforming the eigenvectors                 ... done (   0.0 sec)
Now organizing SCF variables                       ... done
                      ------------------
                      INITIAL GUESS DONE (   3.0 sec)
                      ------------------
--------------
SCF ITERATIONS
--------------
ITER       Energy         Delta-E        Max-DP      RMS-DP      [F,P]     Damp
               ***  Starting incremental Fock matrix formation  ***
  0  -3451.4380410063   0.000000000000 0.54370673  0.00251470  0.3886703 0.7000
  1  -3451.6861776825  -0.248136676244 0.32236053  0.00190588  0.2811597 0.7000
                               ***Turning on DIIS***
  2  -3451.7549872191  -0.068809536595 0.31288720  0.00145532  0.1974822 0.7000
  3  -3451.8152402271  -0.060253008005 0.21295755  0.00100346  0.1349536 0.7000
  4  -3451.8561804873  -0.040940260194 0.35742645  0.00216913  0.0934749 0.0000
  5  -3451.9482380318  -0.092057544485 0.03134127  0.00016863  0.0071564 0.0000
  6  -3451.9485241455  -0.000286113749 0.01133384  0.00006525  0.0046205 0.0000
  7  -3451.9486726893  -0.000148543743 0.02046416  0.00005750  0.0005904 0.0000
  8  -3451.9486781226  -0.000005433366 0.01652700  0.00004222  0.0006056 0.0000
  9  -3451.9486797689  -0.000001646222 0.01031289  0.00003371  0.0005812 0.0000
 10  -3451.9486808162  -0.000001047300 0.01398649  0.00006188  0.0001400 0.0000
                 **** Energy Check signals convergence ****

               *****************************************************
               *                     SUCCESS                       *
               *           SCF CONVERGED AFTER  11 CYCLES          *
               *****************************************************


----------------
TOTAL SCF ENERGY
----------------

Total Energy       :        -3451.94868087 Eh          -93932.29903 eV

Components:
Nuclear Repulsion  :         1785.36871093 Eh           48582.35250 eV
Electronic Energy  :        -5237.31739180 Eh         -142514.65154 eV
One Electron Energy:        -8362.12933392 Eh         -227545.10735 eV
Two Electron Energy:         3124.81194212 Eh           85030.45581 eV

Virial components:
Potential Energy   :        -6845.44841946 Eh         -186274.12149 eV
Kinetic Energy     :         3393.49973859 Eh           92341.82245 eV
Virial Ratio       :            2.01722379


DFT components:
N(Alpha)           :       80.000063411900 electrons
N(Beta)            :       80.000063411900 electrons
N(Total)           :      160.000126823801 electrons
E(X)               :     -177.491887614991 Eh       
E(C)               :       -6.089993647212 Eh       
E(XC)              :     -183.581881262203 Eh       
DFET-embed. en.    :        0.000000000000 Eh       

---------------
SCF CONVERGENCE
---------------

  Last Energy change         ...   -5.5667e-08  Tolerance :   1.0000e-06
  Last MAX-Density change    ...    7.6187e-03  Tolerance :   1.0000e-05
  Last RMS-Density change    ...    3.4593e-05  Tolerance :   1.0000e-06
  Last DIIS Error            ...    4.2337e-05  Tolerance :   1.0000e-06

             **** THE GBW FILE WAS UPDATED (TMB20_I1.gbw) ****
             **** DENSITY FILE WAS UPDATED (TMB20_I1.scfp) ****
             **** ENERGY FILE WAS UPDATED (TMB20_I1.en.tmp) ****
             **** THE GBW FILE WAS UPDATED (TMB20_I1.gbw) ****
             **** DENSITY FILE WAS UPDATED (TMB20_I1.scfp) ****
----------------
ORBITAL ENERGIES
----------------

  NO   OCC          E(Eh)            E(eV) 
   0   2.0000    -482.517596    -13129.9713 
   1   2.0000     -62.231239     -1693.3981 
   2   2.0000     -56.016367     -1524.2828 
   3   2.0000     -56.014456     -1524.2308 
   4   2.0000     -56.014025     -1524.2191 
   5   2.0000     -19.146576      -521.0048 
   6   2.0000     -19.142596      -520.8965 
   7   2.0000     -19.141621      -520.8700 
   8   2.0000     -19.139532      -520.8131 
   9   2.0000     -19.132140      -520.6120 
  10   2.0000     -19.083096      -519.2774 
  11   2.0000     -10.274769      -279.5907 
  12   2.0000     -10.241566      -278.6872 
  13   2.0000     -10.240347      -278.6540 
  14   2.0000     -10.238385      -278.6006 
  15   2.0000     -10.220997      -278.1275 
  16   2.0000     -10.195304      -277.4283 
  17   2.0000     -10.166164      -276.6354 
  18   2.0000     -10.121641      -275.4239 
  19   2.0000     -10.103319      -274.9253 
  20   2.0000      -8.576947      -233.3906 
  21   2.0000      -6.395311      -174.0253 
  22   2.0000      -6.389463      -173.8661 
  23   2.0000      -6.388184      -173.8313 
  24   2.0000      -3.197576       -87.0105 
  25   2.0000      -2.519321       -68.5542 
  26   2.0000      -2.518016       -68.5187 
  27   2.0000      -2.517075       -68.4931 
  28   2.0000      -2.512479       -68.3680 
  29   2.0000      -2.512442       -68.3670 
  30   2.0000      -1.772418       -48.2300 
  31   2.0000      -1.768291       -48.1177 
  32   2.0000      -1.756621       -47.8001 
  33   2.0000      -1.130933       -30.7743 
  34   2.0000      -1.130672       -30.7672 
  35   2.0000      -1.126148       -30.6440 
  36   2.0000      -1.116196       -30.3732 
  37   2.0000      -1.089940       -29.6588 
  38   2.0000      -1.037731       -28.2381 
  39   2.0000      -0.828510       -22.5449 
  40   2.0000      -0.749818       -20.4036 
  41   2.0000      -0.715052       -19.4576 
  42   2.0000      -0.705868       -19.2077 
  43   2.0000      -0.669975       -18.2309 
  44   2.0000      -0.597134       -16.2488 
  45   2.0000      -0.588261       -16.0074 
  46   2.0000      -0.568966       -15.4823 
  47   2.0000      -0.562861       -15.3162 
  48   2.0000      -0.561061       -15.2672 
  49   2.0000      -0.533492       -14.5171 
  50   2.0000      -0.523437       -14.2435 
  51   2.0000      -0.509950       -13.8764 
  52   2.0000      -0.500798       -13.6274 
  53   2.0000      -0.494737       -13.4625 
  54   2.0000      -0.480799       -13.0832 
  55   2.0000      -0.474165       -12.9027 
  56   2.0000      -0.467651       -12.7254 
  57   2.0000      -0.462154       -12.5758 
  58   2.0000      -0.459924       -12.5152 
  59   2.0000      -0.457887       -12.4597 
  60   2.0000      -0.452981       -12.3262 
  61   2.0000      -0.443833       -12.0773 
  62   2.0000      -0.437805       -11.9133 
  63   2.0000      -0.437131       -11.8950 
  64   2.0000      -0.427537       -11.6339 
  65   2.0000      -0.417192       -11.3524 
  66   2.0000      -0.410808       -11.1786 
  67   2.0000      -0.382027       -10.3955 
  68   2.0000      -0.368223       -10.0199 
  69   2.0000      -0.366400        -9.9703 
  70   2.0000      -0.333036        -9.0624 
  71   2.0000      -0.329013        -8.9529 
  72   2.0000      -0.312555        -8.5050 
  73   2.0000      -0.297914        -8.1066 
  74   2.0000      -0.296043        -8.0558 
  75   2.0000      -0.277376        -7.5478 
  76   2.0000      -0.261928        -7.1274 
  77   2.0000      -0.249808        -6.7976 
  78   2.0000      -0.236024        -6.4225 
  79   2.0000      -0.226538        -6.1644 
  80   0.0000      -0.102215        -2.7814 
  81   0.0000      -0.068830        -1.8730 
  82   0.0000      -0.047249        -1.2857 
  83   0.0000      -0.037994        -1.0339 
  84   0.0000      -0.028562        -0.7772 
  85   0.0000      -0.025597        -0.6965 
  86   0.0000      -0.020567        -0.5597 
  87   0.0000      -0.012328        -0.3355 
  88   0.0000      -0.002602        -0.0708 
  89   0.0000       0.005392         0.1467 
  90   0.0000       0.009308         0.2533 
  91   0.0000       0.011932         0.3247 
  92   0.0000       0.014897         0.4054 
  93   0.0000       0.018542         0.5046 
  94   0.0000       0.020799         0.5660 
  95   0.0000       0.029255         0.7961 
  96   0.0000       0.034083         0.9274 
  97   0.0000       0.037528         1.0212 
  98   0.0000       0.042678         1.1613 
  99   0.0000       0.046492         1.2651 
 100   0.0000       0.049477         1.3463 
 101   0.0000       0.054429         1.4811 
 102   0.0000       0.060416         1.6440 
 103   0.0000       0.063628         1.7314 
 104   0.0000       0.069185         1.8826 
 105   0.0000       0.072325         1.9681 
 106   0.0000       0.077953         2.1212 
 107   0.0000       0.082199         2.2368 
 108   0.0000       0.084439         2.2977 
 109   0.0000       0.086992         2.3672 
 110   0.0000       0.092281         2.5111 
 111   0.0000       0.094317         2.5665 
 112   0.0000       0.097253         2.6464 
 113   0.0000       0.107007         2.9118 
 114   0.0000       0.113927         3.1001 
 115   0.0000       0.115292         3.1373 
 116   0.0000       0.119191         3.2433 
 117   0.0000       0.125457         3.4139 
 118   0.0000       0.130165         3.5420 
 119   0.0000       0.132005         3.5920 
 120   0.0000       0.133186         3.6242 
 121   0.0000       0.139610         3.7990 
 122   0.0000       0.144529         3.9328 
 123   0.0000       0.147108         4.0030 
 124   0.0000       0.147939         4.0256 
 125   0.0000       0.152735         4.1561 
 126   0.0000       0.155258         4.2248 
 127   0.0000       0.159134         4.3303 
 128   0.0000       0.164218         4.4686 
 129   0.0000       0.171946         4.6789 
 130   0.0000       0.173087         4.7099 
 131   0.0000       0.177859         4.8398 
 132   0.0000       0.186266         5.0685 
 133   0.0000       0.189416         5.1543 
 134   0.0000       0.192415         5.2359 
 135   0.0000       0.195446         5.3184 
 136   0.0000       0.197414         5.3719 
 137   0.0000       0.203219         5.5299 
 138   0.0000       0.207151         5.6369 
 139   0.0000       0.212305         5.7771 
 140   0.0000       0.215209         5.8561 
 141   0.0000       0.217613         5.9216 
 142   0.0000       0.221366         6.0237 
 143   0.0000       0.221856         6.0370 
 144   0.0000       0.226529         6.1642 
 145   0.0000       0.230511         6.2725 
 146   0.0000       0.233757         6.3609 
 147   0.0000       0.235048         6.3960 
 148   0.0000       0.241746         6.5782 
 149   0.0000       0.243910         6.6371 
 150   0.0000       0.245179         6.6716 
 151   0.0000       0.246148         6.6980 
 152   0.0000       0.253504         6.8982 
 153   0.0000       0.256287         6.9739 
 154   0.0000       0.257439         7.0053 
 155   0.0000       0.259420         7.0592 
 156   0.0000       0.263041         7.1577 
 157   0.0000       0.266584         7.2541 
 158   0.0000       0.270290         7.3550 
 159   0.0000       0.273444         7.4408 
 160   0.0000       0.277467         7.5503 
 161   0.0000       0.280410         7.6303 
 162   0.0000       0.281618         7.6632 
 163   0.0000       0.287284         7.8174 
 164   0.0000       0.290469         7.9041 
 165   0.0000       0.291334         7.9276 
 166   0.0000       0.293060         7.9746 
 167   0.0000       0.299758         8.1568 
 168   0.0000       0.301141         8.1945 
 169   0.0000       0.305698         8.3185 
 170   0.0000       0.307604         8.3703 
 171   0.0000       0.313535         8.5317 
 172   0.0000       0.315113         8.5747 
 173   0.0000       0.321742         8.7550 
 174   0.0000       0.323640         8.8067 
 175   0.0000       0.326901         8.8954 
 176   0.0000       0.327925         8.9233 
 177   0.0000       0.331218         9.0129 
 178   0.0000       0.334709         9.1079 
 179   0.0000       0.342194         9.3116 
 180   0.0000       0.344447         9.3729 
 181   0.0000       0.348813         9.4917 
 182   0.0000       0.352536         9.5930 
 183   0.0000       0.355865         9.6836 
 184   0.0000       0.359491         9.7823 
 185   0.0000       0.365548         9.9471 
 186   0.0000       0.365840         9.9550 
 187   0.0000       0.367311         9.9950 
 188   0.0000       0.373480        10.1629 
 189   0.0000       0.375794        10.2259 
 190   0.0000       0.377313        10.2672 
 191   0.0000       0.383991        10.4489 
 192   0.0000       0.392688        10.6856 
 193   0.0000       0.394106        10.7242 
 194   0.0000       0.397289        10.8108 
 195   0.0000       0.399433        10.8691 
 196   0.0000       0.402666        10.9571 
 197   0.0000       0.406775        11.0689 
 198   0.0000       0.409585        11.1454 
 199   0.0000       0.417874        11.3709 
 200   0.0000       0.421352        11.4656 
 201   0.0000       0.424232        11.5439 
 202   0.0000       0.427440        11.6312 
 203   0.0000       0.427719        11.6388 
 204   0.0000       0.433777        11.8037 
 205   0.0000       0.438194        11.9239 
 206   0.0000       0.448599        12.2070 
 207   0.0000       0.452673        12.3179 
 208   0.0000       0.455593        12.3973 
 209   0.0000       0.460592        12.5333 
 210   0.0000       0.461826        12.5669 
 211   0.0000       0.466352        12.6901 
 212   0.0000       0.469970        12.7885 
 213   0.0000       0.473639        12.8884 
 214   0.0000       0.478205        13.0126 
 215   0.0000       0.478262        13.0142 
 216   0.0000       0.485097        13.2002 
 217   0.0000       0.489065        13.3081 
 218   0.0000       0.493359        13.4250 
 219   0.0000       0.495244        13.4763 
 220   0.0000       0.501393        13.6436 
 221   0.0000       0.507922        13.8213 
 222   0.0000       0.509586        13.8665 
 223   0.0000       0.516523        14.0553 
 224   0.0000       0.518892        14.1198 
 225   0.0000       0.522246        14.2110 
 226   0.0000       0.525857        14.3093 
 227   0.0000       0.526282        14.3209 
 228   0.0000       0.532259        14.4835 
 229   0.0000       0.538296        14.6478 
 230   0.0000       0.540166        14.6987 
 231   0.0000       0.545383        14.8406 
 232   0.0000       0.551708        15.0127 
 233   0.0000       0.557875        15.1805 
 234   0.0000       0.559518        15.2253 
 235   0.0000       0.565222        15.3805 
 236   0.0000       0.568195        15.4614 
 237   0.0000       0.569107        15.4862 
 238   0.0000       0.572982        15.5916 
 239   0.0000       0.579939        15.7809 
 240   0.0000       0.584180        15.8963 
 241   0.0000       0.590327        16.0636 
 242   0.0000       0.591392        16.0926 
 243   0.0000       0.592066        16.1109 
 244   0.0000       0.602757        16.4019 
 245   0.0000       0.607931        16.5426 
 246   0.0000       0.611401        16.6371 
 247   0.0000       0.614560        16.7230 
 248   0.0000       0.616167        16.7668 
 249   0.0000       0.619574        16.8595 
 250   0.0000       0.621198        16.9037 
 251   0.0000       0.623394        16.9634 
 252   0.0000       0.627391        17.0722 
 253   0.0000       0.632740        17.2177 
 254   0.0000       0.642117        17.4729 
 255   0.0000       0.643560        17.5122 
 256   0.0000       0.647103        17.6086 
 257   0.0000       0.649080        17.6624 
 258   0.0000       0.652123        17.7452 
 259   0.0000       0.656672        17.8690 
 260   0.0000       0.662678        18.0324 
 261   0.0000       0.663188        18.0463 
 262   0.0000       0.667514        18.1640 
 263   0.0000       0.671969        18.2852 
 264   0.0000       0.674634        18.3577 
 265   0.0000       0.681960        18.5571 
 266   0.0000       0.687717        18.7137 
 267   0.0000       0.692233        18.8366 
 268   0.0000       0.693300        18.8656 
 269   0.0000       0.696396        18.9499 
 270   0.0000       0.697927        18.9916 
 271   0.0000       0.703281        19.1372 
 272   0.0000       0.710137        19.3238 
 273   0.0000       0.715618        19.4730 
 274   0.0000       0.717233        19.5169 
 275   0.0000       0.721753        19.6399 
 276   0.0000       0.727040        19.7838 
 277   0.0000       0.731287        19.8993 
 278   0.0000       0.734422        19.9846 
 279   0.0000       0.737131        20.0584 
 280   0.0000       0.739066        20.1110 
 281   0.0000       0.740356        20.1461 
 282   0.0000       0.747850        20.3500 
 283   0.0000       0.751897        20.4602 
 284   0.0000       0.757872        20.6227 
 285   0.0000       0.759680        20.6719 
 286   0.0000       0.762304        20.7434 
 287   0.0000       0.768896        20.9227 
 288   0.0000       0.775279        21.0964 
 289   0.0000       0.778537        21.1851 
 290   0.0000       0.781858        21.2754 
 291   0.0000       0.786536        21.4027 
 292   0.0000       0.788000        21.4426 
 293   0.0000       0.794905        21.6305 
 294   0.0000       0.801131        21.7999 
 295   0.0000       0.808197        21.9921 
 296   0.0000       0.813813        22.1450 
 297   0.0000       0.814687        22.1688 
 298   0.0000       0.820882        22.3373 
 299   0.0000       0.827628        22.5209 
 300   0.0000       0.834269        22.7016 
 301   0.0000       0.840980        22.8842 
 302   0.0000       0.845317        23.0022 
 303   0.0000       0.852512        23.1980 
 304   0.0000       0.856576        23.3086 
 305   0.0000       0.860790        23.4233 
 306   0.0000       0.865714        23.5573 
 307   0.0000       0.870028        23.6747 
 308   0.0000       0.874827        23.8053 
 309   0.0000       0.877778        23.8856 
 310   0.0000       0.885340        24.0913 
 311   0.0000       0.897019        24.4091 
 312   0.0000       0.898133        24.4395 
 313   0.0000       0.908279        24.7155 
 314   0.0000       0.910604        24.7788 
 315   0.0000       0.914790        24.8927 
 316   0.0000       0.924493        25.1567 
 317   0.0000       0.934935        25.4409 
 318   0.0000       0.937808        25.5191 
 319   0.0000       0.949519        25.8377 
 320   0.0000       0.953646        25.9500 
 321   0.0000       0.961699        26.1692 
 322   0.0000       0.965979        26.2856 
 323   0.0000       0.974416        26.5152 
 324   0.0000       0.978504        26.6265 
 325   0.0000       0.986146        26.8344 
 326   0.0000       0.992380        27.0040 
 327   0.0000       0.999745        27.2045 
 328   0.0000       1.002825        27.2883 
 329   0.0000       1.010962        27.5097 
 330   0.0000       1.015373        27.6297 
 331   0.0000       1.024882        27.8885 
 332   0.0000       1.031639        28.0723 
 333   0.0000       1.033865        28.1329 
 334   0.0000       1.039518        28.2867 
 335   0.0000       1.040914        28.3247 
 336   0.0000       1.046360        28.4729 
 337   0.0000       1.057415        28.7737 
 338   0.0000       1.064303        28.9612 
 339   0.0000       1.067937        29.0600 
 340   0.0000       1.069856        29.1123 
 341   0.0000       1.079185        29.3661 
 342   0.0000       1.094188        29.7744 
 343   0.0000       1.103626        30.0312 
 344   0.0000       1.107283        30.1307 
 345   0.0000       1.121548        30.5189 
 346   0.0000       1.132026        30.8040 
 347   0.0000       1.135565        30.9003 
 348   0.0000       1.143740        31.1228 
 349   0.0000       1.147274        31.2189 
 350   0.0000       1.157169        31.4882 
 351   0.0000       1.158183        31.5158 
 352   0.0000       1.164369        31.6841 
 353   0.0000       1.168542        31.7976 
 354   0.0000       1.174910        31.9709 
 355   0.0000       1.181481        32.1497 
 356   0.0000       1.193960        32.4893 
 357   0.0000       1.197243        32.5787 
 358   0.0000       1.208268        32.8787 
 359   0.0000       1.219612        33.1873 
 360   0.0000       1.229747        33.4631 
 361   0.0000       1.234592        33.5950 
 362   0.0000       1.237876        33.6843 
 363   0.0000       1.249894        34.0114 
 364   0.0000       1.253084        34.0982 
 365   0.0000       1.258383        34.2423 
 366   0.0000       1.269503        34.5449 
 367   0.0000       1.282885        34.9091 
 368   0.0000       1.286290        35.0017 
 369   0.0000       1.294679        35.2300 
 370   0.0000       1.303989        35.4834 
 371   0.0000       1.307963        35.5915 
 372   0.0000       1.320944        35.9447 
 373   0.0000       1.326403        36.0933 
 374   0.0000       1.328769        36.1577 
 375   0.0000       1.335259        36.3343 
 376   0.0000       1.341532        36.5049 
 377   0.0000       1.351696        36.7815 
 378   0.0000       1.358094        36.9556 
 379   0.0000       1.369257        37.2594 
 380   0.0000       1.372517        37.3481 
 381   0.0000       1.377941        37.4957 
 382   0.0000       1.381441        37.5909 
 383   0.0000       1.397444        38.0264 
 384   0.0000       1.405221        38.2380 
 385   0.0000       1.412857        38.4458 
 386   0.0000       1.422275        38.7021 
 387   0.0000       1.430706        38.9315 
 388   0.0000       1.434488        39.0344 
 389   0.0000       1.449027        39.4300 
 390   0.0000       1.455739        39.6127 
 391   0.0000       1.458737        39.6942 
 392   0.0000       1.470824        40.0232 
 393   0.0000       1.479765        40.2665 
 394   0.0000       1.488119        40.4938 
 395   0.0000       1.499282        40.7975 
 396   0.0000       1.512044        41.1448 
 397   0.0000       1.522643        41.4332 
 398   0.0000       1.530707        41.6526 
 399   0.0000       1.537343        41.8332 
 400   0.0000       1.546734        42.0888 
 401   0.0000       1.559462        42.4351 
 402   0.0000       1.562776        42.5253 
 403   0.0000       1.572595        42.7925 
 404   0.0000       1.574385        42.8412 
 405   0.0000       1.581891        43.0454 
 406   0.0000       1.589546        43.2538 
 407   0.0000       1.594265        43.3822 
 408   0.0000       1.609536        43.7977 
 409   0.0000       1.612707        43.8840 
 410   0.0000       1.613947        43.9177 
 411   0.0000       1.627907        44.2976 
 412   0.0000       1.636410        44.5290 
 413   0.0000       1.651195        44.9313 
 414   0.0000       1.653163        44.9849 
 415   0.0000       1.665568        45.3224 
 416   0.0000       1.686363        45.8883 
 417   0.0000       1.698536        46.2195 
 418   0.0000       1.703407        46.3521 
 419   0.0000       1.709893        46.5286 
 420   0.0000       1.731673        47.1212 
 421   0.0000       1.733813        47.1795 
 422   0.0000       1.742125        47.4056 
 423   0.0000       1.753608        47.7181 
 424   0.0000       1.757722        47.8301 
 425   0.0000       1.763100        47.9764 
 426   0.0000       1.767971        48.1089 
 427   0.0000       1.778392        48.3925 
 428   0.0000       1.784866        48.5687 
 429   0.0000       1.790075        48.7104 
 430   0.0000       1.795618        48.8612 
 431   0.0000       1.798246        48.9327 
 432   0.0000       1.807406        49.1820 
 433   0.0000       1.820210        49.5304 
 434   0.0000       1.825046        49.6620 
 435   0.0000       1.829879        49.7935 
 436   0.0000       1.838915        50.0394 
 437   0.0000       1.839561        50.0570 
 438   0.0000       1.845002        50.2051 
 439   0.0000       1.853199        50.4281 
 440   0.0000       1.858064        50.5605 
 441   0.0000       1.867465        50.8163 
 442   0.0000       1.884354        51.2759 
 443   0.0000       1.888200        51.3805 
 444   0.0000       1.895954        51.5915 
 445   0.0000       1.903885        51.8073 
 446   0.0000       1.908348        51.9288 
 447   0.0000       1.915076        52.1119 
 448   0.0000       1.924807        52.3767 
 449   0.0000       1.929976        52.5173 
 450   0.0000       1.943905        52.8964 
 451   0.0000       1.948381        53.0181 
 452   0.0000       1.955866        53.2218 
 453   0.0000       1.977068        53.7988 
 454   0.0000       1.990490        54.1640 
 455   0.0000       2.007766        54.6341 
 456   0.0000       2.020448        54.9792 
 457   0.0000       2.025966        55.1293 
 458   0.0000       2.035084        55.3775 
 459   0.0000       2.059583        56.0441 
 460   0.0000       2.064570        56.1798 
 461   0.0000       2.066408        56.2298 
 462   0.0000       2.067968        56.2723 
 463   0.0000       2.097063        57.0640 
 464   0.0000       2.112717        57.4899 
 465   0.0000       2.120744        57.7084 
 466   0.0000       2.133526        58.0562 
 467   0.0000       2.138848        58.2010 
 468   0.0000       2.165509        58.9265 
 469   0.0000       2.172855        59.1264 
 470   0.0000       2.176675        59.2303 
 471   0.0000       2.188774        59.5596 
 472   0.0000       2.192006        59.6475 
 473   0.0000       2.204961        60.0000 
 474   0.0000       2.220489        60.4226 
 475   0.0000       2.233942        60.7887 
 476   0.0000       2.235807        60.8394 
 477   0.0000       2.248509        61.1850 
 478   0.0000       2.261452        61.5372 
 479   0.0000       2.288588        62.2757 
 480   0.0000       2.299672        62.5773 
 481   0.0000       2.307919        62.8017 
 482   0.0000       2.318711        63.0953 
 483   0.0000       2.332186        63.4620 
 484   0.0000       2.334982        63.5381 
 485   0.0000       2.349631        63.9367 
 486   0.0000       2.359778        64.2128 
 487   0.0000       2.372476        64.5584 
 488   0.0000       2.390610        65.0518 
 489   0.0000       2.393980        65.1435 
 490   0.0000       2.397601        65.2420 
 491   0.0000       2.415703        65.7346 
 492   0.0000       2.433260        66.2124 
 493   0.0000       2.448871        66.6372 
 494   0.0000       2.451617        66.7119 
 495   0.0000       2.473943        67.3194 
 496   0.0000       2.476163        67.3798 
 497   0.0000       2.493492        67.8514 
 498   0.0000       2.494773        67.8862 
 499   0.0000       2.508554        68.2612 
 500   0.0000       2.535579        68.9966 
 501   0.0000       2.567760        69.8723 
 502   0.0000       2.588078        70.4252 
 503   0.0000       2.596565        70.6561 
 504   0.0000       2.613127        71.1068 
 505   0.0000       2.616740        71.2051 
 506   0.0000       2.632394        71.6311 
 507   0.0000       2.643361        71.9295 
 508   0.0000       2.650843        72.1331 
 509   0.0000       2.681523        72.9679 
 510   0.0000       2.693113        73.2833 
 511   0.0000       2.704348        73.5891 
 512   0.0000       2.715614        73.8956 
 513   0.0000       2.731517        74.3283 
 514   0.0000       2.739764        74.5528 
 515   0.0000       2.748626        74.7939 
 516   0.0000       2.753784        74.9343 
 517   0.0000       2.764994        75.2393 
 518   0.0000       2.772921        75.4550 
 519   0.0000       2.777692        75.5849 
 520   0.0000       2.795626        76.0728 
 521   0.0000       2.801487        76.2323 
 522   0.0000       2.817495        76.6679 
 523   0.0000       2.824079        76.8471 
 524   0.0000       2.845135        77.4201 
 525   0.0000       2.846342        77.4529 
 526   0.0000       2.868034        78.0432 
 527   0.0000       2.876559        78.2752 
 528   0.0000       2.883233        78.4567 
 529   0.0000       2.903617        79.0114 
 530   0.0000       2.906277        79.0838 
 531   0.0000       2.913869        79.2904 
 532   0.0000       2.923522        79.5531 
 533   0.0000       2.927013        79.6481 
 534   0.0000       2.936132        79.8962 
 535   0.0000       2.946166        80.1693 
 536   0.0000       2.952306        80.3363 
 537   0.0000       2.964368        80.6646 
 538   0.0000       2.970215        80.8237 
 539   0.0000       2.987370        81.2905 
 540   0.0000       2.991060        81.3909 
 541   0.0000       2.997487        81.5658 
 542   0.0000       3.000585        81.6501 
 543   0.0000       3.017839        82.1196 
 544   0.0000       3.021577        82.2213 
 545   0.0000       3.034103        82.5622 
 546   0.0000       3.041867        82.7734 
 547   0.0000       3.050369        83.0047 
 548   0.0000       3.057631        83.2024 
 549   0.0000       3.071555        83.5813 
 550   0.0000       3.083017        83.8932 
 551   0.0000       3.097457        84.2861 
 552   0.0000       3.098367        84.3109 
 553   0.0000       3.111159        84.6590 
 554   0.0000       3.116588        84.8067 
 555   0.0000       3.120694        84.9184 
 556   0.0000       3.127002        85.0901 
 557   0.0000       3.130298        85.1797 
 558   0.0000       3.142881        85.5221 
 559   0.0000       3.149358        85.6984 
 560   0.0000       3.152347        85.7797 
 561   0.0000       3.170555        86.2752 
 562   0.0000       3.177529        86.4650 
 563   0.0000       3.195098        86.9430 
 564   0.0000       3.207071        87.2688 
 565   0.0000       3.212928        87.4282 
 566   0.0000       3.219468        87.6062 
 567   0.0000       3.220065        87.6224 
 568   0.0000       3.241273        88.1995 
 569   0.0000       3.253155        88.5228 
 570   0.0000       3.259853        88.7051 
 571   0.0000       3.266572        88.8879 
 572   0.0000       3.277416        89.1830 
 573   0.0000       3.285399        89.4002 
 574   0.0000       3.292474        89.5928 
 575   0.0000       3.301402        89.8357 
 576   0.0000       3.306254        89.9678 
 577   0.0000       3.324052        90.4520 
 578   0.0000       3.325220        90.4838 
 579   0.0000       3.339191        90.8640 
 580   0.0000       3.352930        91.2379 
 581   0.0000       3.359014        91.4034 
 582   0.0000       3.370334        91.7114 
 583   0.0000       3.375733        91.8584 
 584   0.0000       3.378829        91.9426 
 585   0.0000       3.391374        92.2840 
 586   0.0000       3.401088        92.5483 
 587   0.0000       3.408657        92.7543 
 588   0.0000       3.417519        92.9954 
 589   0.0000       3.425414        93.2103 
 590   0.0000       3.432197        93.3948 
 591   0.0000       3.437369        93.5356 
 592   0.0000       3.451748        93.9268 
 593   0.0000       3.457854        94.0930 
 594   0.0000       3.469127        94.3997 
 595   0.0000       3.470842        94.4464 
 596   0.0000       3.482834        94.7727 
 597   0.0000       3.491245        95.0016 
 598   0.0000       3.493759        95.0700 
 599   0.0000       3.515147        95.6520 
 600   0.0000       3.526837        95.9701 
 601   0.0000       3.536565        96.2348 
 602   0.0000       3.539464        96.3137 
 603   0.0000       3.541886        96.3796 
 604   0.0000       3.556316        96.7723 
 605   0.0000       3.561471        96.9126 
 606   0.0000       3.569791        97.1390 
 607   0.0000       3.575108        97.2836 
 608   0.0000       3.582845        97.4942 
 609   0.0000       3.591213        97.7219 
 610   0.0000       3.601245        97.9949 
 611   0.0000       3.617983        98.4503 
 612   0.0000       3.623995        98.6139 
 613   0.0000       3.630382        98.7877 
 614   0.0000       3.645345        99.1949 
 615   0.0000       3.660841        99.6165 
 616   0.0000       3.668489        99.8247 
 617   0.0000       3.685065       100.2757 
 618   0.0000       3.692578       100.4802 
 619   0.0000       3.699336       100.6641 
 620   0.0000       3.724019       101.3357 
 621   0.0000       3.729677       101.4897 
 622   0.0000       3.754971       102.1779 
 623   0.0000       3.778053       102.8060 
 624   0.0000       3.781798       102.9080 
 625   0.0000       3.801559       103.4457 
 626   0.0000       3.805807       103.5613 
 627   0.0000       3.825733       104.1035 
 628   0.0000       3.834898       104.3529 
 629   0.0000       3.840631       104.5089 
 630   0.0000       3.857472       104.9671 
 631   0.0000       3.886648       105.7611 
 632   0.0000       3.902629       106.1959 
 633   0.0000       3.910045       106.3977 
 634   0.0000       3.923630       106.7674 
 635   0.0000       3.939735       107.2056 
 636   0.0000       3.951055       107.5137 
 637   0.0000       3.951688       107.5309 
 638   0.0000       3.966528       107.9347 
 639   0.0000       3.982565       108.3711 
 640   0.0000       4.001676       108.8911 
 641   0.0000       4.007441       109.0480 
 642   0.0000       4.012679       109.1905 
 643   0.0000       4.038651       109.8973 
 644   0.0000       4.054534       110.3295 
 645   0.0000       4.066991       110.6685 
 646   0.0000       4.090600       111.3109 
 647   0.0000       4.098114       111.5154 
 648   0.0000       4.106565       111.7453 
 649   0.0000       4.116699       112.0211 
 650   0.0000       4.125378       112.2572 
 651   0.0000       4.134066       112.4936 
 652   0.0000       4.152333       112.9907 
 653   0.0000       4.166605       113.3791 
 654   0.0000       4.173878       113.5770 
 655   0.0000       4.188214       113.9671 
 656   0.0000       4.194520       114.1387 
 657   0.0000       4.214423       114.6803 
 658   0.0000       4.229459       115.0894 
 659   0.0000       4.244902       115.5097 
 660   0.0000       4.251661       115.6936 
 661   0.0000       4.273450       116.2865 
 662   0.0000       4.291182       116.7690 
 663   0.0000       4.301659       117.0541 
 664   0.0000       4.309332       117.2629 
 665   0.0000       4.310301       117.2892 
 666   0.0000       4.327545       117.7585 
 667   0.0000       4.347069       118.2898 
 668   0.0000       4.352713       118.4433 
 669   0.0000       4.370149       118.9178 
 670   0.0000       4.377850       119.1273 
 671   0.0000       4.387069       119.3782 
 672   0.0000       4.391685       119.5038 
 673   0.0000       4.405208       119.8718 
 674   0.0000       4.427343       120.4741 
 675   0.0000       4.441539       120.8604 
 676   0.0000       4.448187       121.0413 
 677   0.0000       4.463436       121.4563 
 678   0.0000       4.473573       121.7321 
 679   0.0000       4.488744       122.1449 
 680   0.0000       4.503064       122.5346 
 681   0.0000       4.525787       123.1529 
 682   0.0000       4.537461       123.4706 
 683   0.0000       4.557627       124.0193 
 684   0.0000       4.568923       124.3267 
 685   0.0000       4.588779       124.8670 
 686   0.0000       4.630228       125.9949 
 687   0.0000       4.646974       126.4506 
 688   0.0000       4.667571       127.0111 
 689   0.0000       4.683481       127.4440 
 690   0.0000       4.687753       127.5602 
 691   0.0000       4.712656       128.2379 
 692   0.0000       4.719806       128.4324 
 693   0.0000       4.735101       128.8487 
 694   0.0000       4.777336       129.9979 
 695   0.0000       4.847973       131.9201 
 696   0.0000       4.860265       132.2545 
 697   0.0000       4.880768       132.8125 
 698   0.0000       4.890813       133.0858 
 699   0.0000       4.902994       133.4172 
 700   0.0000       4.976443       135.4159 
 701   0.0000       4.987246       135.7099 
 702   0.0000       5.005606       136.2095 
 703   0.0000       5.026601       136.7808 
 704   0.0000       5.038296       137.0990 
 705   0.0000       5.050161       137.4219 
 706   0.0000       5.079498       138.2202 
 707   0.0000       5.109022       139.0236 
 708   0.0000       5.112942       139.1302 
 709   0.0000       5.119305       139.3034 
 710   0.0000       5.121057       139.3510 
 711   0.0000       5.129537       139.5818 
 712   0.0000       5.131461       139.6342 
 713   0.0000       5.136168       139.7622 
 714   0.0000       5.140396       139.8773 
 715   0.0000       5.150323       140.1474 
 716   0.0000       5.163280       140.5000 
 717   0.0000       5.181422       140.9937 
 718   0.0000       5.204768       141.6289 
 719   0.0000       5.226899       142.2312 
 720   0.0000       5.252008       142.9144 
 721   0.0000       5.277436       143.6063 
 722   0.0000       5.281478       143.7163 
 723   0.0000       5.306600       144.3999 
 724   0.0000       5.322440       144.8310 
 725   0.0000       5.340963       145.3350 
 726   0.0000       5.362977       145.9340 
 727   0.0000       5.384463       146.5187 
 728   0.0000       5.423596       147.5835 
 729   0.0000       5.444001       148.1388 
 730   0.0000       5.466152       148.7416 
 731   0.0000       5.515857       150.0941 
 732   0.0000       5.525278       150.3505 
 733   0.0000       5.546645       150.9319 
 734   0.0000       5.553786       151.1262 
 735   0.0000       5.557952       151.2396 
 736   0.0000       5.570056       151.5689 
 737   0.0000       5.582287       151.9017 
 738   0.0000       5.586664       152.0209 
 739   0.0000       5.596144       152.2788 
 740   0.0000       5.606877       152.5709 
 741   0.0000       5.637236       153.3970 
 742   0.0000       5.647167       153.6672 
 743   0.0000       5.662968       154.0972 
 744   0.0000       5.668639       154.2515 
 745   0.0000       5.685551       154.7117 
 746   0.0000       5.709405       155.3608 
 747   0.0000       5.739136       156.1698 
 748   0.0000       5.755894       156.6258 
 749   0.0000       5.792298       157.6164 
 750   0.0000       5.866077       159.6241 
 751   0.0000       5.898746       160.5130 
 752   0.0000       5.963366       162.2714 
 753   0.0000       6.034467       164.2062 
 754   0.0000       6.082816       165.5218 
 755   0.0000       6.117951       166.4779 
 756   0.0000       6.273975       170.7235 
 757   0.0000       6.297803       171.3719 
 758   0.0000       6.301690       171.4777 
 759   0.0000       6.403188       174.2396 
 760   0.0000       6.421512       174.7382 
 761   0.0000       6.426499       174.8739 
 762   0.0000       6.437564       175.1750 
 763   0.0000       6.444123       175.3535 
 764   0.0000       6.448042       175.4601 
 765   0.0000       6.451256       175.5476 
 766   0.0000       6.461968       175.8391 
 767   0.0000       6.466192       175.9540 
 768   0.0000       6.479329       176.3115 
 769   0.0000       6.498148       176.8236 
 770   0.0000       6.519855       177.4143 
 771   0.0000       6.528030       177.6367 
 772   0.0000       6.558337       178.4614 
 773   0.0000       6.574119       178.8909 
 774   0.0000       6.625943       180.3011 
 775   0.0000       6.645286       180.8274 
 776   0.0000       6.653550       181.0523 
 777   0.0000       6.688798       182.0114 
 778   0.0000       6.707527       182.5211 
 779   0.0000       6.790073       184.7673 
 780   0.0000       6.811450       185.3490 
 781   0.0000       6.829756       185.8471 
 782   0.0000       6.904289       187.8753 
 783   0.0000       6.910797       188.0524 
 784   0.0000       6.919341       188.2848 
 785   0.0000       6.923271       188.3918 
 786   0.0000       6.930137       188.5786 
 787   0.0000       6.933847       188.6796 
 788   0.0000       6.953086       189.2031 
 789   0.0000       6.953953       189.2267 
 790   0.0000       7.005045       190.6170 
 791   0.0000       7.008433       190.7092 
 792   0.0000       7.040198       191.5735 
 793   0.0000       7.125768       193.9020 
 794   0.0000       7.223830       196.5704 
 795   0.0000       7.233872       196.8437 
 796   0.0000       7.244677       197.1377 
 797   0.0000       7.255079       197.4207 
 798   0.0000       7.322619       199.2586 
 799   0.0000       7.349180       199.9814 
 800   0.0000       7.458567       202.9579 
 801   0.0000       7.504960       204.2204 
 802   0.0000       7.608520       207.0384 
 803   0.0000       7.846530       213.5149 
 804   0.0000       8.054626       219.1775 
 805   0.0000      23.145513       629.8214 
 806   0.0000      23.333374       634.9334 
 807   0.0000      23.426438       637.4658 
 808   0.0000      23.451616       638.1509 
 809   0.0000      23.517913       639.9550 
 810   0.0000      23.657093       643.7422 
 811   0.0000      23.710946       645.2076 
 812   0.0000      23.764877       646.6752 
 813   0.0000      23.861843       649.3137 
 814   0.0000      44.319051      1205.9827 
 815   0.0000      44.398334      1208.1401 
 816   0.0000      44.437394      1209.2030 
 817   0.0000      44.451361      1209.5830 
 818   0.0000      44.600636      1213.6450 
 819   0.0000      44.711368      1216.6582 
 820   0.0000      49.694258      1352.2495 
 821   0.0000      50.517182      1374.6424 
 822   0.0000      50.948563      1386.3809 
 823   0.0000      68.513997      1864.3606 
 824   0.0000     512.919598     13957.2518 

                    ********************************
                    * MULLIKEN POPULATION ANALYSIS *
                    ********************************

-----------------------
MULLIKEN ATOMIC CHARGES
-----------------------
   0 Re:   -0.059665
   1 C :    0.617337
   2 C :    0.797766
   3 C :    0.152807
   4 Br:   -0.583446
   5 O :   -0.387562
   6 O :   -0.283169
   7 O :   -0.318918
   8 C :   -1.220767
   9 C :    0.299029
  10 C :    1.617077
  11 C :    0.653554
  12 O :   -0.689894
  13 O :   -0.336022
  14 C :   -0.185952
  15 O :   -0.432834
  16 H :    0.268379
  17 C :   -0.010974
  18 H :    0.043326
  19 H :    0.082344
  20 H :    0.088941
  21 H :   -0.016068
  22 H :   -0.149123
  23 H :    0.009217
  24 H :    0.044619
Sum of atomic charges:    0.0000000

--------------------------------
MULLIKEN REDUCED ORBITAL CHARGES
--------------------------------
  0 Res       :     2.802934  s :     2.802934
      pz      :     2.493833  p :     6.389081
      px      :     2.086882
      py      :     1.808366
      dz2     :     1.182532  d :     5.692538
      dxz     :     0.940512
      dyz     :     1.369728
      dx2y2   :     1.030723
      dxy     :     1.169043
      f0      :     0.015413  f :     0.168181
      f+1     :     0.042604
      f-1     :     0.015666
      f+2     :     0.029578
      f-2     :     0.021428
      f+3     :     0.015027
      f-3     :     0.028466
      g0      :     0.000702  g :     0.006932
      g+1     :     0.001026
      g-1     :     0.000316
      g+2     :     0.001242
      g-2     :     0.000592
      g+3     :     0.000683
      g-3     :     0.000830
      g+4     :     0.000974
      g-4     :     0.000567
  1 C s       :     3.258501  s :     3.258501
      pz      :     0.753094  p :     2.027098
      px      :     0.654605
      py      :     0.619400
      dz2     :     0.028492  d :     0.079205
      dxz     :    -0.011296
      dyz     :     0.037092
      dx2y2   :     0.005441
      dxy     :     0.019475
      f0      :     0.004420  f :     0.017859
      f+1     :     0.003779
      f-1     :     0.002277
      f+2     :     0.002772
      f-2     :     0.003398
      f+3     :     0.000557
      f-3     :     0.000657
  2 C s       :     3.089061  s :     3.089061
      pz      :     0.713941  p :     2.002830
      px      :     0.666340
      py      :     0.622548
      dz2     :     0.034721  d :     0.090489
      dxz     :    -0.015754
      dyz     :     0.031895
      dx2y2   :     0.010091
      dxy     :     0.029536
      f0      :     0.004215  f :     0.019855
      f+1     :     0.004243
      f-1     :     0.002002
      f+2     :     0.003494
      f-2     :     0.003971
      f+3     :     0.000931
      f-3     :     0.000998
  3 C s       :     3.430465  s :     3.430465
      pz      :     0.694383  p :     2.232779
      px      :     0.626716
      py      :     0.911680
      dz2     :     0.001919  d :     0.164032
      dxz     :     0.007049
      dyz     :     0.084766
      dx2y2   :     0.002154
      dxy     :     0.068144
      f0      :     0.002492  f :     0.019918
      f+1     :     0.000452
      f-1     :     0.002503
      f+2     :     0.004049
      f-2     :     0.000232
      f+3     :     0.006110
      f-3     :     0.004081
  4 Brs       :     8.155112  s :     8.155112
      pz      :     5.954533  p :    17.392076
      px      :     5.874198
      py      :     5.563346
      dz2     :     2.004084  d :    10.033208
      dxz     :     2.001267
      dyz     :     2.010264
      dx2y2   :     2.012347
      dxy     :     2.005245
      f0      :     0.000401  f :     0.003050
      f+1     :     0.000102
      f-1     :     0.000406
      f+2     :     0.000467
      f-2     :     0.000290
      f+3     :     0.000673
      f-3     :     0.000710
  5 O s       :     4.034157  s :     4.034157
      pz      :     1.518853  p :     4.305001
      px      :     1.492530
      py      :     1.293617
      dz2     :     0.002592  d :     0.046648
      dxz     :    -0.000064
      dyz     :     0.018049
      dx2y2   :     0.008810
      dxy     :     0.017261
      f0      :     0.000260  f :     0.001756
      f+1     :     0.000046
      f-1     :     0.000158
      f+2     :     0.000413
      f-2     :     0.000010
      f+3     :     0.000635
      f-3     :     0.000235
  6 O s       :     3.990941  s :     3.990941
      pz      :     1.353050  p :     4.239690
      px      :     1.418148
      py      :     1.468492
      dz2     :     0.016421  d :     0.050727
      dxz     :     0.010345
      dyz     :     0.012160
      dx2y2   :     0.005959
      dxy     :     0.005841
      f0      :     0.000513  f :     0.001811
      f+1     :     0.000258
      f-1     :     0.000263
      f+2     :     0.000251
      f-2     :     0.000397
      f+3     :     0.000057
      f-3     :     0.000072
  7 O s       :     4.007595  s :     4.007595
      pz      :     1.367758  p :     4.256800
      px      :     1.428717
      py      :     1.460325
      dz2     :     0.017431  d :     0.052717
      dxz     :     0.010762
      dyz     :     0.011167
      dx2y2   :     0.006773
      dxy     :     0.006583
      f0      :     0.000445  f :     0.001807
      f+1     :     0.000301
      f-1     :     0.000202
      f+2     :     0.000296
      f-2     :     0.000394
      f+3     :     0.000084
      f-3     :     0.000085
  8 C s       :     3.870782  s :     3.870782
      pz      :     1.003501  p :     3.052229
      px      :     1.000050
      py      :     1.048678
      dz2     :     0.044652  d :     0.290230
      dxz     :     0.097522
      dyz     :     0.051207
      dx2y2   :     0.054572
      dxy     :     0.042276
      f0      :     0.001052  f :     0.007527
      f+1     :     0.000765
      f-1     :     0.000964
      f+2     :     0.001726
      f-2     :     0.000868
      f+3     :     0.000814
      f-3     :     0.001338
  9 C s       :     2.974789  s :     2.974789
      pz      :     0.978884  p :     2.785443
      px      :     0.994958
      py      :     0.811601
      dz2     :    -0.032967  d :    -0.065120
      dxz     :     0.041149
      dyz     :    -0.039717
      dx2y2   :    -0.003618
      dxy     :    -0.029967
      f0      :     0.000703  f :     0.005859
      f+1     :     0.000683
      f-1     :     0.000579
      f+2     :     0.001203
      f-2     :     0.000588
      f+3     :     0.000791
      f-3     :     0.001312
 10 C s       :     2.192407  s :     2.192407
      pz      :     0.740984  p :     2.047605
      px      :     0.657146
      py      :     0.649475
      dz2     :     0.059621  d :     0.134681
      dxz     :     0.035362
      dyz     :     0.031831
      dx2y2   :     0.073151
      dxy     :    -0.065283
      f0      :     0.001000  f :     0.008229
      f+1     :     0.001484
      f-1     :     0.000818
      f+2     :     0.001551
      f-2     :     0.001473
      f+3     :     0.000971
      f-3     :     0.000934
 11 C s       :     3.272889  s :     3.272889
      pz      :     0.626034  p :     1.820830
      px      :     0.598951
      py      :     0.595845
      dz2     :     0.048433  d :     0.227058
      dxz     :     0.068334
      dyz     :     0.002564
      dx2y2   :     0.016172
      dxy     :     0.091556
      f0      :     0.001818  f :     0.025668
      f+1     :     0.002227
      f-1     :     0.003669
      f+2     :     0.003672
      f-2     :     0.003965
      f+3     :     0.006164
      f-3     :     0.004151
 12 O s       :     4.065407  s :     4.065407
      pz      :     1.424020  p :     4.582541
      px      :     1.815468
      py      :     1.343053
      dz2     :     0.012753  d :     0.040114
      dxz     :     0.000820
      dyz     :     0.012137
      dx2y2   :     0.013470
      dxy     :     0.000934
      f0      :     0.000123  f :     0.001832
      f+1     :     0.000048
      f-1     :     0.000520
      f+2     :     0.000304
      f-2     :     0.000303
      f+3     :     0.000265
      f-3     :     0.000269
 13 O s       :     3.922294  s :     3.922294
      pz      :     1.653178  p :     4.373130
      px      :     1.142619
      py      :     1.577333
      dz2     :     0.003474  d :     0.038501
      dxz     :     0.014878
      dyz     :     0.005403
      dx2y2   :     0.000488
      dxy     :     0.014258
      f0      :     0.000248  f :     0.002097
      f+1     :     0.000340
      f-1     :     0.000126
      f+2     :     0.000228
      f-2     :     0.000290
      f+3     :     0.000414
      f-3     :     0.000451
 14 C s       :     3.338811  s :     3.338811
      pz      :     0.889152  p :     2.605405
      px      :     0.858471
      py      :     0.857782
      dz2     :     0.058549  d :     0.228525
      dxz     :     0.010942
      dyz     :     0.012067
      dx2y2   :     0.043424
      dxy     :     0.103544
      f0      :     0.001475  f :     0.013210
      f+1     :     0.001248
      f-1     :     0.002854
      f+2     :     0.002140
      f-2     :     0.002103
      f+3     :     0.001785
      f-3     :     0.001605
 15 O s       :     3.934070  s :     3.934070
      pz      :     1.639541  p :     4.486025
      px      :     1.568139
      py      :     1.278345
      dz2     :     0.001126  d :     0.011547
      dxz     :    -0.000028
      dyz     :    -0.000008
      dx2y2   :     0.003207
      dxy     :     0.007249
      f0      :     0.000137  f :     0.001192
      f+1     :     0.000084
      f-1     :     0.000251
      f+2     :     0.000231
      f-2     :     0.000195
      f+3     :     0.000172
      f-3     :     0.000122
 16 H s       :     0.597583  s :     0.597583
      pz      :     0.006909  p :     0.125827
      px      :     0.078229
      py      :     0.040688
      dz2     :     0.001055  d :     0.008211
      dxz     :     0.001073
      dyz     :     0.001428
      dx2y2   :     0.002185
      dxy     :     0.002470
 17 C s       :     3.128602  s :     3.128602
      pz      :     1.021508  p :     2.763587
      px      :     0.806767
      py      :     0.935311
      dz2     :     0.041950  d :     0.110048
      dxz     :     0.009445
      dyz     :     0.010765
      dx2y2   :     0.031112
      dxy     :     0.016776
      f0      :     0.001143  f :     0.008737
      f+1     :     0.001169
      f-1     :     0.000586
      f+2     :     0.000984
      f-2     :     0.001538
      f+3     :     0.001602
      f-3     :     0.001713
 18 H s       :     0.911895  s :     0.911895
      pz      :     0.009134  p :     0.043107
      px      :     0.019619
      py      :     0.014354
      dz2     :     0.000290  d :     0.001672
      dxz     :     0.000359
      dyz     :     0.000121
      dx2y2   :     0.000577
      dxy     :     0.000325
 19 H s       :     0.876141  s :     0.876141
      pz      :     0.024563  p :     0.039903
      px      :     0.012728
      py      :     0.002612
      dz2     :     0.000226  d :     0.001613
      dxz     :     0.000682
      dyz     :     0.000652
      dx2y2   :     0.000019
      dxy     :     0.000033
 20 H s       :     0.871717  s :     0.871717
      pz      :     0.009033  p :     0.037736
      px      :     0.013198
      py      :     0.015505
      dz2     :     0.000313  d :     0.001607
      dxz     :     0.000033
      dyz     :     0.000391
      dx2y2   :     0.000191
      dxy     :     0.000679
 21 H s       :     0.927330  s :     0.927330
      pz      :     0.049773  p :     0.087234
      px      :     0.032951
      py      :     0.004509
      dz2     :     0.000407  d :     0.001504
      dxz     :     0.000403
      dyz     :     0.000165
      dx2y2   :     0.000256
      dxy     :     0.000273
 22 H s       :     1.130797  s :     1.130797
      pz      :     0.006385  p :     0.016317
      px      :    -0.000502
      py      :     0.010434
      dz2     :     0.000222  d :     0.002009
      dxz     :     0.000201
      dyz     :     0.000568
      dx2y2   :     0.000501
      dxy     :     0.000517
 23 H s       :     0.950501  s :     0.950501
      pz      :     0.010044  p :     0.038844
      px      :     0.000580
      py      :     0.028220
      dz2     :     0.000424  d :     0.001437
      dxz     :     0.000209
      dyz     :     0.000303
      dx2y2   :     0.000279
[...]

-------------------------------
LOEWDIN REDUCED ORBITAL CHARGES
-------------------------------
  0 Res       :     1.934946  s :     1.934946
      pz      :     2.149725  p :     6.462918
      px      :     2.135679
      py      :     2.177514
      dz2     :     1.135326  d :     5.506483
      dxz     :     1.004841
      dyz     :     1.231121
      dx2y2   :     1.073873
      dxy     :     1.061322
      f0      :     0.038219  f :     0.442048
      f+1     :     0.111844
      f-1     :     0.046414
      f+2     :     0.075435
      f-2     :     0.052461
      f+3     :     0.043760
      f-3     :     0.073916
      g0      :     0.002727  g :     0.029511
      g+1     :     0.004481
      g-1     :     0.001245
      g+2     :     0.005817
      g-2     :     0.002717
      g+3     :     0.002396
      g-3     :     0.003156
      g+4     :     0.004303
      g-4     :     0.002668
  1 C s       :     2.921722  s :     2.921722
      pz      :     0.936641  p :     2.345225
      px      :     0.774281
      py      :     0.634304
      dz2     :     0.247028  d :     0.889197
      dxz     :     0.218416
      dyz     :     0.209530
      dx2y2   :     0.114997
      dxy     :     0.099225
      f0      :     0.020657  f :     0.088307
      f+1     :     0.021384
      f-1     :     0.010625
      f+2     :     0.014165
      f-2     :     0.015869
      f+3     :     0.002626
      f-3     :     0.002981
  2 C s       :     2.872582  s :     2.872582
      pz      :     0.913997  p :     2.364878
      px      :     0.799735
      py      :     0.651146
      dz2     :     0.268012  d :     0.984249
      dxz     :     0.225661
      dyz     :     0.194531
      dx2y2   :     0.153120
      dxy     :     0.142925
      f0      :     0.018551  f :     0.091906
      f+1     :     0.022082
      f-1     :     0.009302
      f+2     :     0.016783
      f-2     :     0.017147
      f+3     :     0.003945
      f-3     :     0.004097
  3 C s       :     2.838402  s :     2.838402
      pz      :     0.678537  p :     2.366928
      px      :     0.640674
      py      :     1.047718
      dz2     :     0.093356  d :     0.987147
      dxz     :     0.043207
      dyz     :     0.315435
      dx2y2   :     0.239635
      dxy     :     0.295515
      f0      :     0.010360  f :     0.090803
      f+1     :     0.001773
      f-1     :     0.013075
      f+2     :     0.017249
      f-2     :     0.000857
      f+3     :     0.025985
      f-3     :     0.021505
  4 Brs       :     7.637135  s :     7.637135
      pz      :     5.790735  p :    17.009537
      px      :     5.739646
      py      :     5.479155
      dz2     :     2.014794  d :    10.179622
      dxz     :     2.016551
      dyz     :     2.064736
      dx2y2   :     2.046407
      dxy     :     2.037135
      f0      :     0.000666  f :     0.004564
      f+1     :     0.000138
      f-1     :     0.000543
      f+2     :     0.000707
      f-2     :     0.000458
      f+3     :     0.000958
      f-3     :     0.001094
  5 O s       :     3.374115  s :     3.374115
      pz      :     1.365011  p :     4.269078
      px      :     1.336503
      py      :     1.567564
      dz2     :     0.025877  d :     0.203801
      dxz     :     0.000696
      dyz     :     0.053329
      dx2y2   :     0.078862
      dxy     :     0.045038
      f0      :     0.000702  f :     0.006908
      f+1     :     0.000105
      f-1     :     0.001281
      f+2     :     0.001161
      f-2     :     0.000025
      f+3     :     0.001545
      f-3     :     0.002088
  6 O s       :     3.385065  s :     3.385065
      pz      :     1.514369  p :     4.259439
      px      :     1.411116
      py      :     1.333954
      dz2     :     0.057038  d :     0.195764
      dxz     :     0.078488
      dyz     :     0.028514
      dx2y2   :     0.018459
      dxy     :     0.013265
      f0      :     0.001255  f :     0.006880
      f+1     :     0.002503
      f-1     :     0.000589
      f+2     :     0.001288
      f-2     :     0.000899
      f+3     :     0.000184
      f-3     :     0.000162
  7 O s       :     3.374887  s :     3.374887
      pz      :     1.494522  p :     4.255606
      px      :     1.427474
      py      :     1.333610
      dz2     :     0.053975  d :     0.197335
      dxz     :     0.075473
      dyz     :     0.029339
      dx2y2   :     0.021466
      dxy     :     0.017082
      f0      :     0.001131  f :     0.007009
      f+1     :     0.002322
      f-1     :     0.000562
      f+2     :     0.001391
      f-2     :     0.001105
      f+3     :     0.000251
      f-3     :     0.000247
  8 C s       :     2.653844  s :     2.653844
      pz      :     0.827042  p :     2.603210
      px      :     0.966841
      py      :     0.809327
      dz2     :     0.111257  d :     0.735524
      dxz     :     0.252827
      dyz     :     0.081588
      dx2y2   :     0.138716
      dxy     :     0.151135
      f0      :     0.007674  f :     0.044281
      f+1     :     0.005641
      f-1     :     0.004980
      f+2     :     0.008687
      f-2     :     0.004446
      f+3     :     0.006035
      f-3     :     0.006817
  9 C s       :     2.730021  s :     2.730021
      pz      :     0.881279  p :     2.648684
      px      :     0.993258
      py      :     0.774147
      dz2     :     0.102090  d :     0.676567
      dxz     :     0.187849
      dyz     :     0.088988
      dx2y2   :     0.135163
      dxy     :     0.162477
      f0      :     0.004894  f :     0.034208
      f+1     :     0.004767
      f-1     :     0.003006
      f+2     :     0.005964
      f-2     :     0.002492
      f+3     :     0.005946
      f-3     :     0.007140
 10 C s       :     2.583307  s :     2.583307
      pz      :     0.858314  p :     2.565885
      px      :     0.831773
      py      :     0.875798
      dz2     :     0.188662  d :     0.904321
      dxz     :     0.205880
      dyz     :     0.171040
      dx2y2   :     0.172881
      dxy     :     0.165858
      f0      :     0.008087  f :     0.054821
      f+1     :     0.008924
      f-1     :     0.006057
      f+2     :     0.009228
      f-2     :     0.008499
      f+3     :     0.006994
      f-3     :     0.007033
 11 C s       :     2.609449  s :     2.609449
      pz      :     0.703851  p :     2.319537
      px      :     0.801056
      py      :     0.814630
      dz2     :     0.198580  d :     1.343596
      dxz     :     0.273286
      dyz     :     0.201384
      dx2y2   :     0.305151
      dxy     :     0.365196
      f0      :     0.013782  f :     0.160100
      f+1     :     0.014166
      f-1     :     0.017758
      f+2     :     0.023353
      f-2     :     0.025167
      f+3     :     0.037280
      f-3     :     0.028594
 12 O s       :     3.283293  s :     3.283293
      pz      :     1.349169  p :     4.286985
      px      :     1.519787
      py      :     1.418029
      dz2     :     0.039870  d :     0.279493
      dxz     :     0.034486
      dyz     :     0.065525
      dx2y2   :     0.078053
      dxy     :     0.061559
      f0      :     0.000527  f :     0.006384
      f+1     :     0.000136
      f-1     :     0.001158
      f+2     :     0.001434
      f-2     :     0.001205
      f+3     :     0.001033
      f-3     :     0.000892
 13 O s       :     3.183164  s :     3.183164
      pz      :     1.484629  p :     4.239140
      px      :     1.269294
      py      :     1.485217
      dz2     :     0.071884  d :     0.514476
      dxz     :     0.109064
      dyz     :     0.043861
      dx2y2   :     0.154136
      dxy     :     0.135531
      f0      :     0.000449  f :     0.007062
      f+1     :     0.001118
      f-1     :     0.000362
      f+2     :     0.000610
      f-2     :     0.001326
      f+3     :     0.001857
      f-3     :     0.001341
 14 C s       :     2.633152  s :     2.633152
      pz      :     0.834164  p :     2.443471
      px      :     0.819319
      py      :     0.789988
      dz2     :     0.169451  d :     0.997661
      dxz     :     0.193439
      dyz     :     0.241114
      dx2y2   :     0.196826
      dxy     :     0.196830
      f0      :     0.009587  f :     0.079771
      f+1     :     0.006724
      f-1     :     0.017261
      f+2     :     0.012665
      f-2     :     0.012527
      f+3     :     0.010817
      f-3     :     0.010190
 15 O s       :     3.157873  s :     3.157873
      pz      :     1.520413  p :     4.250241
      px      :     1.430090
      py      :     1.299738
      dz2     :     0.090831  d :     0.444806
      dxz     :     0.068374
      dyz     :     0.081794
      dx2y2   :     0.097236
      dxy     :     0.106569
      f0      :     0.000316  f :     0.005420
      f+1     :     0.000399
      f-1     :     0.001074
      f+2     :     0.000992
      f-2     :     0.001192
      f+3     :     0.000821
      f-3     :     0.000626
 16 H s       :     0.527629  s :     0.527629
      pz      :     0.133486  p :     0.546049
      px      :     0.247040
      py      :     0.165523
      dz2     :     0.010159  d :     0.093770
      dxz     :     0.012724
      dyz     :     0.018517
      dx2y2   :     0.027721
      dxy     :     0.024648
 17 C s       :     2.633359  s :     2.633359
      pz      :     0.910751  p :     2.543963
      px      :     0.765905
      py      :     0.867307
      dz2     :     0.136349  d :     0.577405
      dxz     :     0.094700
      dyz     :     0.066829
      dx2y2   :     0.140377
      dxy     :     0.139150
      f0      :     0.008620  f :     0.061628
      f+1     :     0.006583
      f-1     :     0.003379
      f+2     :     0.008048
      f-2     :     0.012898
      f+3     :     0.009702
      f-3     :     0.012397
 18 H s       :     0.705508  s :     0.705508
      pz      :     0.077805  p :     0.255447
      px      :     0.099111
      py      :     0.078531
      dz2     :     0.004502  d :     0.029014
      dxz     :     0.006993
      dyz     :     0.002386
      dx2y2   :     0.007410
      dxy     :     0.007723
 19 H s       :     0.694081  s :     0.694081
      pz      :     0.134999  p :     0.264620
      px      :     0.064714
      py      :     0.064907
      dz2     :     0.011560  d :     0.028935
      dxz     :     0.007944
      dyz     :     0.009258
      dx2y2   :     0.000037
      dxy     :     0.000136
 20 H s       :     0.692759  s :     0.692759
      pz      :     0.077523  p :     0.264509
      px      :     0.064646
      py      :     0.122340
      dz2     :     0.004782  d :     0.028957
      dxz     :     0.000777
      dyz     :     0.008669
      dx2y2   :     0.007525
      dxy     :     0.007206
 21 H s       :     0.719713  s :     0.719713
      pz      :     0.122988  p :     0.315815
      px      :     0.092121
      py      :     0.100706
      dz2     :     0.007852  d :     0.029581
      dxz     :     0.006065
      dyz     :     0.007508
      dx2y2   :     0.004104
      dxy     :     0.004051
 22 H s       :     0.661566  s :     0.661566
      pz      :     0.072030  p :     0.257310
      px      :     0.076393
      py      :     0.108887
      dz2     :     0.003625  d :     0.030209
      dxz     :     0.002324
      dyz     :     0.008097
      dx2y2   :     0.008056
      dxy     :     0.008108
 23 H s       :     0.700095  s :     0.700095
      pz      :     0.095384  p :     0.266783
      px      :     0.090482
      py      :     0.080917
      dz2     :     0.007109  d :     0.028785
      dxz     :     0.007579
      dyz     :     0.005403
      dx2y2   :     0.004155
      dxy     :     0.004539
 24 H s       :     0.681949  s :     0.681949
      pz      :     0.086390  p :     0.266412
      px      :     0.082028
      py      :     0.097993
      dz2     :     0.004879  d :     0.030404
      dxz     :     0.003927
      dyz     :     0.009465
      dx2y2   :     0.006277
      dxy     :     0.005857


                      *****************************
                      * MAYER POPULATION ANALYSIS *
                      *****************************

  NA   - Mulliken gross atomic population
  ZA   - Total nuclear charge
  QA   - Mulliken gross atomic charge
  VA   - Mayer's total valence
  BVA  - Mayer's bonded valence
  FA   - Mayer's free valence

  ATOM       NA         ZA         QA         VA         BVA        FA
  0 Re    15.0597    15.0000    -0.0597     6.3089     6.3089     0.0000
  1 C      5.3827     6.0000     0.6173     3.1136     3.1136    -0.0000
  2 C      5.2022     6.0000     0.7978     3.3169     3.3169    -0.0000
  3 C      5.8472     6.0000     0.1528     3.5076     3.5076     0.0000
  4 Br    35.5834    35.0000    -0.5834     0.6931     0.6931    -0.0000
  5 O      8.3876     8.0000    -0.3876     2.0982     2.0982    -0.0000
  6 O      8.2832     8.0000    -0.2832     2.2291     2.2291    -0.0000
  7 O      8.3189     8.0000    -0.3189     2.2006     2.2006    -0.0000
  8 C      7.2208     6.0000    -1.2208     4.4365     4.4365     0.0000
  9 C      5.7010     6.0000     0.2990     3.4656     3.4656     0.0000
 10 C      4.3829     6.0000     1.6171     2.1375     2.1375    -0.0000
 11 C      5.3464     6.0000     0.6536     3.0669     3.0669     0.0000
 12 O      8.6899     8.0000    -0.6899     1.5865     1.5865     0.0000
 13 O      8.3360     8.0000    -0.3360     1.8851     1.8851    -0.0000
 14 C      6.1860     6.0000    -0.1860     4.1452     4.1452     0.0000
 15 O      8.4328     8.0000    -0.4328     1.9271     1.9271     0.0000
 16 H      0.7316     1.0000     0.2684     0.9771     0.9771     0.0000
 17 C      6.0110     6.0000    -0.0110     3.8810     3.8810    -0.0000
 18 H      0.9567     1.0000     0.0433     1.0470     1.0470     0.0000
 19 H      0.9177     1.0000     0.0823     1.0545     1.0545    -0.0000
 20 H      0.9111     1.0000     0.0889     1.0447     1.0447    -0.0000
 21 H      1.0161     1.0000    -0.0161     1.1090     1.1090     0.0000
 22 H      1.1491     1.0000    -0.1491     0.8876     0.8876    -0.0000
 23 H      0.9908     1.0000     0.0092     1.0439     1.0439     0.0000
 24 H      0.9554     1.0000     0.0446     0.9814     0.9814    -0.0000

  Mayer bond orders larger than 0.100000
B(  0-Re,  1-C ) :   1.0301 B(  0-Re,  2-C ) :   1.2757 B(  0-Re,  3-C ) :   1.3990 
B(  0-Re,  4-Br) :   0.3013 B(  0-Re,  6-O ) :   0.1115 B(  0-Re,  7-O ) :   0.1005 
B(  0-Re,  8-C ) :   0.1706 B(  0-Re,  9-C ) :   0.5450 B(  0-Re, 14-C ) :   0.7217 
B(  0-Re, 15-O ) :   0.4802 B(  1-C ,  6-O ) :   2.0634 B(  2-C ,  7-O ) :   1.9996 
B(  3-C ,  5-O ) :   1.8737 B(  3-C , 14-C ) :   0.2101 B(  8-C ,  9-C ) :   2.0077 
B(  8-C , 10-C ) :   0.1382 B(  8-C , 11-C ) :   0.2997 B(  8-C , 14-C ) :   0.5084 
B(  8-C , 23-H ) :   1.1485 B(  9-C , 10-C ) :  -0.1036 B(  9-C , 21-H ) :   0.9900 
B( 10-C , 11-C ) :   0.5610 B( 10-C , 14-C ) :   0.7042 B( 10-C , 15-O ) :   0.1033 
B( 10-C , 22-H ) :   0.8849 B( 10-C , 23-H ) :  -0.1596 B( 11-C , 12-O ) :   1.1428 
B( 11-C , 13-O ) :   0.7070 B( 11-C , 14-C ) :   0.2605 B( 12-O , 13-O ) :   0.1028 
B( 12-O , 14-C ) :   0.1245 B( 13-O , 17-C ) :   0.8794 B( 14-C , 15-O ) :   0.5187 
B( 14-C , 24-H ) :   0.9450 B( 15-O , 16-H ) :   0.8745 B( 17-C , 18-H ) :   1.0455 
B( 17-C , 19-H ) :   0.9696 B( 17-C , 20-H ) :   0.9619 

-------
TIMINGS
-------

Total SCF time: 0 days 0 hours 6 min 6 sec 

Total time                  ....     366.173 sec
Sum of individual times     ....     365.233 sec  ( 99.7%)

Fock matrix formation       ....     358.577 sec  ( 97.9%)
  XC integration            ....       9.618 sec  (  2.7% of F)
    Basis function eval.    ....       0.864 sec  (  9.0% of XC)
    Density eval.           ....       3.150 sec  ( 32.8% of XC)
    XC-Functional eval.     ....       0.106 sec  (  1.1% of XC)
    XC-Potential eval.      ....       4.547 sec  ( 47.3% of XC)
Diagonalization             ....       2.242 sec  (  0.6%)
Density matrix formation    ....       0.085 sec  (  0.0%)
Population analysis         ....       0.133 sec  (  0.0%)
Initial guess               ....       2.148 sec  (  0.6%)
Orbital Transformation      ....       0.000 sec  (  0.0%)
Orbital Orthonormalization  ....       0.000 sec  (  0.0%)
DIIS solution               ....       1.202 sec  (  0.3%)
Grid generation             ....       0.847 sec  (  0.2%)


-------------------------------------------------------------------------------
                          DFT DISPERSION CORRECTION                            
                                                                               
                              DFTD3 V3.1  Rev 1                                
                          USING Becke-Johnson damping                          
-------------------------------------------------------------------------------
The TPSSH functional is recognized
Active option DFTDOPT                   ...         4   

molecular C6(AA) [au] = 12002.907786 


            DFT-D V3
 parameters
 s6 scaling factor         :     1.0000 
 a1 scaling factor         :     0.4529 
 s8 scaling factor         :     2.2382 
 a2 scaling factor         :     4.6550 
 ad hoc parameters k1-k3   :    16.0000     1.3333    -4.0000 

 Edisp/kcal,au: -28.298834208588  -0.045097058068 
 E6   /kcal   : -12.111981885 
 E8   /kcal   : -16.186852323 
 % E8         :  57.199714321 

-------------------------   ----------------
Dispersion correction           -0.045097058
-------------------------   ----------------


-------------------------   --------------------
FINAL SINGLE POINT ENERGY     -3451.993777929900
-------------------------   --------------------


                            ***************************************
                            *     ORCA property calculations      *
                            ***************************************

                                    ---------------------
                                    Active property flags
                                    ---------------------
   (+) Dipole Moment


------------------------------------------------------------------------------
                       ORCA ELECTRIC PROPERTIES CALCULATION
------------------------------------------------------------------------------

Dipole Moment Calculation                       ... on
Quadrupole Moment Calculation                   ... off
Polarizability Calculation                      ... off
GBWName                                         ... TMB20_I1.gbw
Electron density file                           ... TMB20_I1.scfp
The origin for moment calculation is the CENTER OF MASS  = ( 0.273450, -0.033238 -0.010571)

-------------
DIPOLE MOMENT
-------------
                                X             Y             Z
Electronic contribution:    122.95362      29.80320      -3.23183
Nuclear contribution   :   -125.53088     -28.89018       3.09124
                        -----------------------------------------
Total Dipole Moment    :     -2.57725       0.91302      -0.14059
                        -----------------------------------------
Magnitude (a.u.)       :      2.73781
Magnitude (Debye)      :      6.95896



--------------------
Rotational spectrum 
--------------------
 
Rotational constants in cm-1:     0.016025     0.007116     0.006337 
Rotational constants in MHz :   480.407323   213.341783   189.987107 

 Dipole components along the rotational axes: 
x,y,z [a.u.] :    -2.599328     0.846939    -0.147647 
x,y,z [Debye]:    -6.606966     2.152747    -0.375289 

 

Timings for individual modules:

Sum of individual times         ...      370.307 sec (=   6.172 min)
GTO integral calculation        ...        3.753 sec (=   0.063 min)   1.0 %
SCF iterations                  ...      366.554 sec (=   6.109 min)  99.0 %
                             ****ORCA TERMINATED NORMALLY****
TOTAL RUN TIME: 0 days 0 hours 6 minutes 10 seconds 998 msec
