
                                 *****************
                                 * O   R   C   A *
                                 *****************

           --- An Ab Initio, DFT and Semiempirical electronic structure package ---

                  #######################################################
                  #                        -***-                        #
                  #          Department of theory and spectroscopy      #
                  #               Directorship: Frank Neese             #
                  #        Max Planck Institute fuer Kohlenforschung    #
                  #                Kaiser Wilhelm Platz 1               #
                  #                 D-45470 Muelheim/Ruhr               #
                  #                      Germany                        #
                  #                                                     #
                  #                  All rights reserved                #
                  #                        -***-                        #
                  #######################################################


                         Program Version 4.2.0 -  RELEASE  -


 With contributions from (in alphabetic order):
   Daniel Aravena         : Magnetic Suceptibility
   Michael Atanasov       : Ab Initio Ligand Field Theory (pilot matlab implementation)
   Alexander A. Auer      : GIAO ZORA, VPT2
   Ute Becker             : Parallelization
   Giovanni Bistoni       : ED, misc. LED, open-shell LED, HFLED
   Martin Brehm           : Molecular dynamics
   Dmytro Bykov           : SCF Hessian
   Vijay G. Chilkuri      : MRCI spin determinant printing, contributions to CSF-ICE
   Dipayan Datta          : RHF DLPNO-CCSD density
   Achintya Kumar Dutta   : EOM-CC, STEOM-CC
   Dmitry Ganyushin       : Spin-Orbit,Spin-Spin,Magnetic field MRCI
   Miquel Garcia          : C-PCM Hessian, Gaussian charge scheme
   Yang Guo               : DLPNO-NEVPT2, CIM, IAO-localization
   Andreas Hansen         : Spin unrestricted coupled pair/coupled cluster methods
   Benjamin Helmich-Paris : CASSCF linear response (MC-RPA)
   Lee Huntington         : MR-EOM, pCC
   Robert Izsak           : Overlap fitted RIJCOSX, COSX-SCS-MP3, EOM
   Christian Kollmar      : KDIIS, OOCD, Brueckner-CCSD(T), CCSD density
   Simone Kossmann        : Meta GGA functionals, TD-DFT gradient, OOMP2, MP2 Hessian
   Martin Krupicka        : AUTO-CI
   Lucas Lang             : DCDCAS
   Dagmar Lenk            : GEPOL surface, SMD
   Dimitrios Liakos       : Extrapolation schemes; Compound Job, initial MDCI parallelization
   Dimitrios Manganas     : Further ROCIS development; embedding schemes
   Dimitrios Pantazis     : SARC Basis sets
   Taras Petrenko         : DFT Hessian,TD-DFT gradient, ASA, ECA, R-Raman, ABS, FL, XAS/XES, NRVS
   Peter Pinski           : DLPNO-MP2, DLPNO-MP2 Gradient
   Christoph Reimann      : Effective Core Potentials
   Marius Retegan         : Local ZFS, SOC
   Christoph Riplinger    : Optimizer, TS searches, QM/MM, DLPNO-CCSD(T), (RO)-DLPNO pert. Triples
   Tobias Risthaus        : Range-separated hybrids, TD-DFT gradient, RPA, STAB
   Michael Roemelt        : Original ROCIS implementation
   Masaaki Saitow         : Open-shell DLPNO-CCSD energy and density
   Barbara Sandhoefer     : DKH picture change effects
   Avijit Sen             : IP-ROCIS
   Kantharuban Sivalingam : CASSCF convergence, NEVPT2, FIC-MRCI
   Bernardo de Souza      : ESD, SOC TD-DFT
   Georgi Stoychev        : AutoAux, RI-MP2 NMR
   Willem Van den Heuvel  : Paramagnetic NMR
   Boris Wezisla          : Elementary symmetry handling
   Frank Wennmohs         : Technical directorship


 We gratefully acknowledge several colleagues who have allowed us to
 interface, adapt or use parts of their codes:
   Stefan Grimme, W. Hujo, H. Kruse,             : VdW corrections, initial TS optimization,
                  C. Bannwarth                     DFT functionals, gCP, sTDA/sTD-DF
   Ed Valeev, F. Pavosevic, A. Kumar             : LibInt (2-el integral package), F12 methods
   Garnet Chan, S. Sharma, J. Yang, R. Olivares  : DMRG
   Ulf Ekstrom                                   : XCFun DFT Library
   Mihaly Kallay                                 : mrcc  (arbitrary order and MRCC methods)
   Andreas Klamt, Michael Diedenhofen            : otool_cosmo (COSMO solvation model)
   Jiri Pittner, Ondrej Demel                    : Mk-CCSD
   Frank Weinhold                                : gennbo (NPA and NBO analysis)
   Christopher J. Cramer and Donald G. Truhlar   : smd solvation model
   Lars Goerigk                                  : TD-DFT with DH, B97 family of functionals
   V. Asgeirsson, H. Jonsson                     : NEB implementation
   FAccTs GmbH                                   : IRC, NEB, NEB-TS, Multilevel, MM, QM/MM, CI optimization
   S Lehtola, MJT Oliveira, MAL Marques          : LibXC Library


 Your calculation uses the libint2 library for the computation of 2-el integrals
 For citations please refer to: http://libint.valeyev.net

 Your ORCA version has been built with support for libXC version: 4.2.3
 For citations please refer to: https://tddft.org/programs/libxc/

 This ORCA versions uses:
   CBLAS   interface :  Fast vector & matrix operations
   LAPACKE interface :  Fast linear algebra routines
   SCALAPACK package :  Parallel linear algebra routines


Your calculation utilizes the atom-pairwise dispersion correction
with the Becke-Johnson damping scheme (D3BJ)
Cite in your paper:
S.Grimme, S.Ehrlich, L.Goerigk, J Comput Chem, (2011), 32, 1456–1465 
S.Grimme, J.Antony, S.Ehrlich and H.Krieg, J.Chem.Phys., 132, (2010), 154104 
   

----- Orbital basis set information -----
Your calculation utilizes the basis: def2-TZVPPD
   F. Weigend and R. Ahlrichs, Phys. Chem. Chem. Phys. 7, 3297 (2005).
   D. Rappoport and F. Furche, J. Chem. Phys. 133 134105 (2010).

----- AuxJK basis set information -----
Your calculation utilizes the auxiliary basis: def2/JK
   H-Ba, Hf-Rn: F. Weigend, J. Comput. Chem. 29, 167 (2008).

cite the ECPs for Au [Def2-ECP] as follows:
Ce-Yb(ecp-28): M. Dolg, H. Stoll, H.Preuss, J. Chem. Phys., 1989, 90, 1730-1734.
Y-Cd(ecp-28), Hf-Hg(ecp-46): D. Andrae,U. Haeussermann, M. Dolg, H. Stoll, H. Preuss, Theor. Chim. Acta, 1990, 77, 123-141.
In-Sb(ecp-28), Tl-Bi(ecp-46): B. Metz, H. Stoll, M. Dolg, J. Chem. Phys., 2000, 113, 2563-2569.
Te-Xe(ecp-28), Po-Rn(ecp-46): K. A. Peterson, D. Figgen, E. Goll, H. Stoll, M. Dolg, J. Chem. Phys., 2003, 119, 11113-11123.
Rb(ecp-28), Cs(ecp-46): T. Leininger, A. Nicklass, W. Kuechle, H. Stoll, M. Dolg, A. Bergner, Chem. Phys. Lett., 1996, 255, 274-280.
Sr(ecp-28), Ba(ecp-46): M. Kaupp, P. V. Schleyer, H. Stoll and H. Preuss, J. Chem. Phys., 1991, 94, 1360-1366.
La(ecp-46): M. Dolg, H. Stoll, A. Savin, H. Preuss, Theor. Chim. Acta, 1989, 75, 173-194.
Lu(ecp-28): X. Cao, M. Dolg, J. Chem. Phys., 2001, 115, 7348-7355.

ECP parameters for Au [Def2-ECP] have been obtained from:
TURBOMOLE (7.0.2)

================================================================================
                                        WARNINGS
                       Please study these warnings very carefully!
================================================================================


INFO   : the flag for use of LIBINT has been found!

================================================================================
                                       INPUT FILE
================================================================================
NAME = TMB29_T1.in
|  1> #
|  2> # TMB29_T1 TPSSh-D3BJ/Def2-TZVPPD
|  3> #
|  4> ! tpssh d3bj def2-tzvppd def2/jk grid4 nofinalgrid
|  5> 
|  6> *xyz 1 1
|  7> C        0.302195   -1.452011   -0.105192 
|  8> C        1.172851   -0.582511    0.135564 
|  9> C        0.213900   -2.914548   -0.330337 
| 10> H        1.214756   -3.345744   -0.317276 
| 11> H       -0.388020   -3.382295    0.449588 
| 12> H       -0.265099   -3.130327   -1.285361 
| 13> C        1.829635    0.694580    0.494281 
| 14> O        3.171960    0.697894   -0.020842 
| 15> C        3.732653   -0.510299   -0.087290 
| 16> O        3.070225   -1.500320    0.142290 
| 17> C        1.080449    1.884401   -0.190647 
| 18> O        0.030957    2.232541    0.278513 
| 19> C        1.716450    2.521139   -1.379228 
| 20> H        1.946637    1.771224   -2.139595 
| 21> H        1.044796    3.276244   -1.779459 
| 22> H        2.667103    2.978996   -1.097340 
| 23> C        5.172060   -0.490501   -0.447138 
| 24> H        5.507658   -1.496958   -0.678577 
| 25> H        5.341426    0.179166   -1.290238 
| 26> H        5.741456   -0.101237    0.400021 
| 27> C        1.875471    0.903584    2.001010 
| 28> H        2.434564    1.811885    2.227294 
| 29> H        0.861108    1.010944    2.380408 
| 30> H        2.353249    0.052039    2.484190 
| 31> Au      -1.471331   -0.309724   -0.041930 
| 32> P       -3.515153    0.680562    0.009165 
| 33> H       -3.799713    1.607377   -1.007127 
| 34> H       -4.633094   -0.165367   -0.073799 
| 35> H       -3.823490    1.429925    1.156436 
| 36> *
| 37> 
| 38> %maxcore 5000
| 39> 
| 40> %pal
| 41> nprocs = 24
| 42> end
| 43> 
| 44> 
| 45>                          ****END OF INPUT****
================================================================================

                       ****************************
                       * Single Point Calculation *
                       ****************************

---------------------------------
CARTESIAN COORDINATES (ANGSTROEM)
---------------------------------
  C      0.302195   -1.452011   -0.105192
  C      1.172851   -0.582511    0.135564
  C      0.213900   -2.914548   -0.330337
  H      1.214756   -3.345744   -0.317276
  H     -0.388020   -3.382295    0.449588
  H     -0.265099   -3.130327   -1.285361
  C      1.829635    0.694580    0.494281
  O      3.171960    0.697894   -0.020842
  C      3.732653   -0.510299   -0.087290
  O      3.070225   -1.500320    0.142290
  C      1.080449    1.884401   -0.190647
  O      0.030957    2.232541    0.278513
  C      1.716450    2.521139   -1.379228
  H      1.946637    1.771224   -2.139595
  H      1.044796    3.276244   -1.779459
  H      2.667103    2.978996   -1.097340
  C      5.172060   -0.490501   -0.447138
  H      5.507658   -1.496958   -0.678577
  H      5.341426    0.179166   -1.290238
  H      5.741456   -0.101237    0.400021
  C      1.875471    0.903584    2.001010
  H      2.434564    1.811885    2.227294
  H      0.861108    1.010944    2.380408
  H      2.353249    0.052039    2.484190
  Au    -1.471331   -0.309724   -0.041930
  P     -3.515153    0.680562    0.009165
  H     -3.799713    1.607377   -1.007127
  H     -4.633094   -0.165367   -0.073799
  H     -3.823490    1.429925    1.156436

----------------------------
CARTESIAN COORDINATES (A.U.)
----------------------------
  NO LB      ZA    FRAG     MASS         X           Y           Z
   0 C     6.0000    0    12.011    0.571066   -2.743903   -0.198784
   1 C     6.0000    0    12.011    2.216367   -1.100786    0.256179
   2 C     6.0000    0    12.011    0.404212   -5.507698   -0.624246
   3 H     1.0000    0     1.008    2.295556   -6.322540   -0.599565
   4 H     1.0000    0     1.008   -0.733252   -6.391611    0.849598
   5 H     1.0000    0     1.008   -0.500965   -5.915461   -2.428980
   6 C     6.0000    0    12.011    3.457509    1.312566    0.934056
   7 O     8.0000    0    15.999    5.994136    1.318829   -0.039386
   8 C     6.0000    0    12.011    7.053692   -0.964325   -0.164954
   9 O     8.0000    0    15.999    5.801884   -2.835194    0.268889
  10 C     6.0000    0    12.011    2.041753    3.561002   -0.360271
  11 O     8.0000    0    15.999    0.058500    4.218891    0.526313
  12 C     6.0000    0    12.011    3.243620    4.764262   -2.606363
  13 H     1.0000    0     1.008    3.678611    3.347128   -4.043249
  14 H     1.0000    0     1.008    1.974378    6.191204   -3.362690
  15 H     1.0000    0     1.008    5.040094    5.629487   -2.073672
  16 C     6.0000    0    12.011    9.773777   -0.926913   -0.844968
  17 H     1.0000    0     1.008   10.407965   -2.828841   -1.282325
  18 H     1.0000    0     1.008   10.093832    0.338575   -2.438196
  19 H     1.0000    0     1.008   10.849779   -0.191310    0.755930
  20 C     6.0000    0    12.011    3.544127    1.707526    3.781361
  21 H     1.0000    0     1.008    4.600659    3.423966    4.208976
  22 H     1.0000    0     1.008    1.627258    1.910407    4.498319
  23 H     1.0000    0     1.008    4.446996    0.098339    4.694439
  24 Au   19.0000*   0   196.966   -2.780413   -0.585294   -0.079236
  25 P    15.0000    0    30.974   -6.642676    1.286076    0.017319
  26 H     1.0000    0     1.008   -7.180417    3.037502   -1.903194
  27 H     1.0000    0     1.008   -8.755279   -0.312498   -0.139460
  28 H     1.0000    0     1.008   -7.225349    2.702167    2.185347
* core charge reduced due to ECP

--------------------------------
INTERNAL COORDINATES (ANGSTROEM)
--------------------------------
 C      0   0   0     0.000000000000     0.00000000     0.00000000
 C      1   0   0     1.253808427102     0.00000000     0.00000000
 C      1   2   0     1.482396962497   139.00097393     0.00000000
 H      3   1   2     1.089868484209   109.50092642   357.00292483
 H      3   1   2     1.090586057143   110.32884093   117.19761608
 H      3   1   2     1.089986907911   110.76652575   235.99172996
 C      2   1   3     1.480204219365   162.35995816   190.89274753
 O      7   2   1     1.437775745153   109.23341235   200.96347184
 C      8   7   2     1.333612500767   114.09704630   329.37172948
 O      9   8   7     1.213119702266   120.02236199     7.41615220
 C      7   2   1     1.563994897633   109.73614328   317.69849477
 O     11   7   2     1.201143631405   117.90356884    76.01696176
 C     11   7   2     1.490857922877   118.01529358   255.64963101
 H     13  11   7     1.092481824509   110.58499397    54.19639245
 H     13  11   7     1.086962515500   109.06556554   175.94916979
 H     13  11   7     1.092169860142   110.15747824   296.74249284
 C      9   8   7     1.483837947876   114.06911022   187.65389595
 H     17   9   8     1.085884764224   109.82337738   191.42200465
 H     17   9   8     1.089934100230   110.27501485   313.91822715
 H     17   9   8     1.092436102384   108.80219067    71.53430249
 C      7   2   1     1.521846211137   111.82606944    80.16724023
 H     21   7   2     1.090321116876   109.59261985   175.51942332
 H     21   7   2     1.088302029665   109.30685440   294.75731039
 H     21   7   2     1.089432704075   110.18002932    54.93648296
 Au     1   2   3     2.110501396277   101.67950911   176.51125999
 P     25   1   2     2.271670184799   173.05592211   188.22990476
 H     26  25   1     1.404567501792   116.97824767   239.07176733
 H     26  25   1     1.404375654096   116.89051683   359.17332928
 H     26  25   1     1.404580848075   116.64428302   119.09984752

---------------------------
INTERNAL COORDINATES (A.U.)
---------------------------
 C      0   0   0     0.000000000000     0.00000000     0.00000000
 C      1   0   0     2.369354551625     0.00000000     0.00000000
 C      1   2   0     2.801324280875   139.00097393     0.00000000
 H      3   1   2     2.059552957148   109.50092642   357.00292483
 H      3   1   2     2.060908973473   110.32884093   117.19761608
 H      3   1   2     2.059776745512   110.76652575   235.99172996
 C      2   1   3     2.797180596875   162.35995816   190.89274753
 O      7   2   1     2.717002400334   109.23341235   200.96347184
 C      8   7   2     2.520162395223   114.09704630   329.37172948
 O      9   8   7     2.292464004946   120.02236199     7.41615220
 C      7   2   1     2.955522031376   109.73614328   317.69849477
 O     11   7   2     2.269832510858   117.90356884    76.01696176
 C     11   7   2     2.817313178825   118.01529358   255.64963101
 H     13  11   7     2.064491454609   110.58499397    54.19639245
 H     13  11   7     2.054061472133   109.06556554   175.94916979
 H     13  11   7     2.063901927391   110.15747824   296.74249284
 C      9   8   7     2.804047348605   114.06911022   187.65389595
 H     17   9   8     2.052024817381   109.82337738   191.42200465
 H     17   9   8     2.059676953457   110.27501485   313.91822715
 H     17   9   8     2.064405052315   108.80219067    71.53430249
 C      7   2   1     2.875872556995   111.82606944    80.16724023
 H     21   7   2     2.060408308927   109.59261985   175.51942332
 H     21   7   2     2.056592787058   109.30685440   294.75731039
 H     21   7   2     2.058729452040   110.18002932    54.93648296
 Au     1   2   3     3.988269644223   101.67950911   176.51125999
 P     25   1   2     4.292834515865   173.05592211   188.22990476
 H     26  25   1     2.654247914992   116.97824767   239.07176733
 H     26  25   1     2.653885375388   116.89051683   359.17332928
 H     26  25   1     2.654273135813   116.64428302   119.09984752

---------------------
BASIS SET INFORMATION
---------------------
There are 5 groups of distinct atoms

 Group   1 Type C   : 12s6p3d1f contracted to 6s3p3d1f pattern {621111/411/111/1}
 Group   2 Type H   : 5s3p1d contracted to 3s3p1d pattern {311/111/1}
 Group   3 Type O   : 12s7p3d1f contracted to 6s4p3d1f pattern {621111/4111/111/1}
 Group   4 Type Au  : 8s8p6d2f1g contracted to 6s5p3d2f1g pattern {311111/41111/411/11/1}
 Group   5 Type P   : 15s9p4d1f contracted to 6s5p4d1f pattern {732111/51111/1111/1}

Atom   0C    basis set group =>   1
Atom   1C    basis set group =>   1
Atom   2C    basis set group =>   1
Atom   3H    basis set group =>   2
Atom   4H    basis set group =>   2
Atom   5H    basis set group =>   2
Atom   6C    basis set group =>   1
Atom   7O    basis set group =>   3
Atom   8C    basis set group =>   1
Atom   9O    basis set group =>   3
Atom  10C    basis set group =>   1
Atom  11O    basis set group =>   3
Atom  12C    basis set group =>   1
Atom  13H    basis set group =>   2
Atom  14H    basis set group =>   2
Atom  15H    basis set group =>   2
Atom  16C    basis set group =>   1
Atom  17H    basis set group =>   2
Atom  18H    basis set group =>   2
Atom  19H    basis set group =>   2
Atom  20C    basis set group =>   1
Atom  21H    basis set group =>   2
Atom  22H    basis set group =>   2
Atom  23H    basis set group =>   2
Atom  24Au   basis set group =>   4
Atom  25P    basis set group =>   5
Atom  26H    basis set group =>   2
Atom  27H    basis set group =>   2
Atom  28H    basis set group =>   2
----------------------------------
AUXILIARY/JK BASIS SET INFORMATION
----------------------------------
There are 5 groups of distinct atoms

 Group   1 Type C   : 14s10p6d2f1g contracted to 10s8p5d1f1g pattern {5111111111/31111111/21111/2/1}
 Group   2 Type H   : 4s2p2d contracted to 2s2p2d pattern {31/11/11}
 Group   3 Type O   : 14s10p6d2f1g contracted to 10s8p4d2f1g pattern {5111111111/31111111/3111/11/1}
 Group   4 Type Au  : 13s12p11d9f5g3h2i contracted to 13s11p10d8f4g3h2i pattern {1111111111111/21111111111/2111111111/21111111/2111/111/11}
 Group   5 Type P   : 16s12p10d4f1g contracted to 13s11p9d4f1g pattern {4111111111111/21111111111/211111111/1111/1}

Atom   0C    basis set group =>   1
Atom   1C    basis set group =>   1
Atom   2C    basis set group =>   1
Atom   3H    basis set group =>   2
Atom   4H    basis set group =>   2
Atom   5H    basis set group =>   2
Atom   6C    basis set group =>   1
Atom   7O    basis set group =>   3
Atom   8C    basis set group =>   1
Atom   9O    basis set group =>   3
Atom  10C    basis set group =>   1
Atom  11O    basis set group =>   3
Atom  12C    basis set group =>   1
Atom  13H    basis set group =>   2
Atom  14H    basis set group =>   2
Atom  15H    basis set group =>   2
Atom  16C    basis set group =>   1
Atom  17H    basis set group =>   2
Atom  18H    basis set group =>   2
Atom  19H    basis set group =>   2
Atom  20C    basis set group =>   1
Atom  21H    basis set group =>   2
Atom  22H    basis set group =>   2
Atom  23H    basis set group =>   2
Atom  24Au   basis set group =>   4
Atom  25P    basis set group =>   5
Atom  26H    basis set group =>   2
Atom  27H    basis set group =>   2
Atom  28H    basis set group =>   2
-------------------------
ECP PARAMETER INFORMATION
-------------------------

 Group 1, Type Au ECP Def2-ECP (replacing 60 core electrons, lmax=3)

Atom  24Au   ECP group =>   1



           ************************************************************
           *        Program running with 24 parallel MPI-processes    *
           *              working on a common directory               *
           ************************************************************
------------------------------------------------------------------------------
                           ORCA GTO INTEGRAL CALCULATION
------------------------------------------------------------------------------

                         BASIS SET STATISTICS AND STARTUP INFO

 # of primitive gaussian shells          ...  456
 # of primitive gaussian functions       ... 1072
 # of contracted shells                  ...  297
 # of contracted basis functions         ...  815
 Highest angular momentum                ...    4
 Maximum contraction depth               ...    7
 Integral package used                   ... LIBINT
 Integral threshhold            Thresh   ...  1.000e-10
 Primitive cut-off              TCut     ...  1.000e-11


------------------------------ INTEGRAL EVALUATION ----------------------------


 * One electron integrals 

   ECP integrals                         ... done
 Pre-screening matrix                    ... done
 Shell pair data                         ... done (   0.010 sec)



           ************************************************************
           *        Program running with 24 parallel MPI-processes    *
           *              working on a common directory               *
           ************************************************************
-------------------------------------------------------------------------------
                                 ORCA SCF
-------------------------------------------------------------------------------

------------
SCF SETTINGS
------------
Hamiltonian:
 Density Functional     Method          .... DFT(GTOs)
 Exchange Functional    Exchange        .... TPSS
 Correlation Functional Correlation     .... TPSS
 LDA part of GGA corr.  LDAOpt          .... PW91-LDA
 Gradients option       PostSCFGGA      .... off
 Hybrid DFT is turned on
   Fraction HF Exchange ScalHFX         ....  0.100000
   Scaling of DF-GGA-X  ScalDFX         ....  0.900000
   Scaling of DF-GGA-C  ScalDFC         ....  1.000000
   Scaling of DF-LDA-C  ScalLDAC        ....  1.000000
   Perturbative correction              ....  0.000000
   Density functional embedding theory  .... OFF
   NL short-range parameter             ....  5.200000


General Settings:
 Integral files         IntName         .... TMB29_T1
 Hartree-Fock type      HFTyp           .... RHF
 Total Charge           Charge          ....    1
 Multiplicity           Mult            ....    1
 Number of Electrons    NEL             ....  126
 Basis Dimension        Dim             ....  815
 Nuclear Repulsion      ENuc            ....   1205.6353180124 Eh

Convergence Acceleration:
 DIIS                   CNVDIIS         .... on
   Start iteration      DIISMaxIt       ....    12
   Startup error        DIISStart       ....  0.200000
   # of expansion vecs  DIISMaxEq       ....     5
   Bias factor          DIISBfac        ....   1.050
   Max. coefficient     DIISMaxC        ....  10.000
 Newton-Raphson         CNVNR           .... off
 SOSCF                  CNVSOSCF        .... off
 Level Shifting         CNVShift        .... on
   Level shift para.    LevelShift      ....    0.2500
   Turn off err/grad.   ShiftErr        ....    0.0010
 Zerner damping         CNVZerner       .... off
 Static damping         CNVDamp         .... on
   Fraction old density DampFac         ....    0.7000
   Max. Damping (<1)    DampMax         ....    0.9800
   Min. Damping (>=0)   DampMin         ....    0.0000
   Turn off err/grad.   DampErr         ....    0.1000
 Fernandez-Rico         CNVRico         .... off

SCF Procedure:
 Maximum # iterations   MaxIter         ....   125
 SCF integral mode      SCFMode         .... Direct
   Integral package                     .... LIBINT
 Reset frequency        DirectResetFreq ....    20
 Integral Threshold     Thresh          ....  1.000e-10 Eh
 Primitive CutOff       TCut            ....  1.000e-11 Eh

Convergence Tolerance:
 Convergence Check Mode ConvCheckMode   .... Total+1el-Energy
 Convergence forced     ConvForced      .... 0
 Energy Change          TolE            ....  1.000e-06 Eh
 1-El. energy change                    ....  1.000e-03 Eh
 DIIS Error             TolErr          ....  1.000e-06


Diagonalization of the overlap matrix:
Smallest eigenvalue                        ... 3.384e-07
Time for diagonalization                   ...    0.135 sec
Threshold for overlap eigenvalues          ... 1.000e-08
Number of eigenvalues below threshold      ... 0
Time for construction of square roots      ...    0.090 sec
Total time needed                          ...    0.227 sec

-------------------
DFT GRID GENERATION
-------------------

General Integration Accuracy     IntAcc      ...  4.670
Radial Grid Type                 RadialGrid  ... Gauss-Chebyshev
Angular Grid (max. acc.)         AngularGrid ... Lebedev-302
Angular grid pruning method      GridPruning ... 3 (G Style)
Weight generation scheme         WeightScheme... Becke
Basis function cutoff            BFCut       ...    1.0000e-10
Integration weight cutoff        WCut        ...    1.0000e-14
Grids for H and He will be reduced by one unit

# of grid points (after initial pruning)     ... 143952 (   0.0 sec)
# of grid points (after weights+screening)   ... 128143 (   0.1 sec)
nearest neighbour list constructed           ...    0.0 sec
Grid point re-assignment to atoms done       ...    0.0 sec
Grid point division into batches done        ...    0.4 sec
Reduced shell lists constructed in    0.6 sec

Total number of grid points                  ...   128143
Total number of batches                      ...     2016
Average number of points per batch           ...       63
Average number of grid points per atom       ...     4419
Average number of shells per batch           ...   184.31 (62.06%)
Average number of basis functions per batch  ...   509.01 (62.46%)
Average number of large shells per batch     ...   143.99 (78.12%)
Average number of large basis fcns per batch ...   396.25 (77.85%)
Maximum spatial batch extension              ...   2.81,  2.92,  4.01 au
Average spatial batch extension              ...   0.05,  0.05,  0.06 au

Time for grid setup =    0.704 sec

------------------------------
INITIAL GUESS: MODEL POTENTIAL
------------------------------
Loading Hartree-Fock densities                     ... done
  calling /sw/apps/orca/orca_4_2_0_linux_x86-64_openmpi314/orca TMB29_T1_atom79.inp > TMB29_T1_atom79.out in order to generate an atomic fitting density for atom 24 (Au with ECP) on-the-fly... 
    atom 24 (Au), assumed electronic state with S=2: 1s2 2s2 2p6 3s2 3p6 4s2 3d10 4p6 5s2 4d10 5p6 6s1 4f14 5d10           ... done
Calculating cut-offs                               ... done
Setting up the integral package                    ... done
Initializing the effective Hamiltonian             ... done
Starting the Coulomb interaction                   ... done (   0.1 sec)
Reading the grid                                   ... done
Mapping shells                                     ... done
Starting the XC term evaluation                    ... done (   0.3 sec)
  promolecular density results
     # of electrons  =    186.994240953
     EX              =   -463.283305375
     EC              =     -8.497964771
     EX+EC           =   -471.781270145
Transforming the Hamiltonian                       ... done (   0.1 sec)
Diagonalizing the Hamiltonian                      ... done (   0.1 sec)
Back transforming the eigenvectors                 ... done (   0.0 sec)
Now organizing SCF variables                       ... done
                      ------------------
                      INITIAL GUESS DONE (   2.5 sec)
                      ------------------
--------------
SCF ITERATIONS
--------------
ITER       Energy         Delta-E        Max-DP      RMS-DP      [F,P]     Damp
               ***  Starting incremental Fock matrix formation  ***
  0  -1054.3218112295   0.000000000000 6.73113623  0.01625601  0.5687172 0.7000
  1  -1054.5321947613  -0.210383531795 4.72311014  0.01133288  0.3913788 0.7000
  2  -1054.6042903779  -0.072095616518 3.05281657  0.00732100  0.2695229 0.7000
                               ***Turning on DIIS***
  3  -1054.6517111115  -0.047420733689 1.88545251  0.00454166  0.1874890 0.7000
  4  -1054.6857766071  -0.034065495536 0.98300585  0.00238218  0.1311500 0.7000
  5  -1054.7095053787  -0.023728771662 1.89002941  0.00463356  0.0917257 0.0000
  6  -1054.7646747403  -0.055169361586 0.22037172  0.00061766  0.0038566 0.0000
  7  -1054.7647362113  -0.000061470972 0.14706355  0.00043039  0.0021207 0.0000
  8  -1054.7647483022  -0.000012090912 0.36289614  0.00070534  0.0004450 0.0000
  9  -1054.7647499046  -0.000001602431 0.05278329  0.00017821  0.0003911 0.0000
 10  -1054.7647501837  -0.000000279028 0.18556510  0.00048678  0.0003442 0.0000
                 **** Energy Check signals convergence ****

               *****************************************************
               *                     SUCCESS                       *
               *           SCF CONVERGED AFTER  11 CYCLES          *
               *****************************************************


----------------
TOTAL SCF ENERGY
----------------

Total Energy       :        -1054.76475038 Eh          -28701.60802 eV

Components:
Nuclear Repulsion  :         1205.63531801 Eh           32807.00488 eV
Electronic Energy  :        -2260.40006840 Eh          -61508.61290 eV
One Electron Energy:        -3876.27695590 Eh         -105478.85841 eV
Two Electron Energy:         1615.87688750 Eh           43970.24551 eV

Virial components:
Potential Energy   :        -2016.32650085 Eh          -54867.03347 eV
Kinetic Energy     :          961.56175046 Eh           26165.42545 eV
Virial Ratio       :            2.09692877


DFT components:
N(Alpha)           :       62.999970379675 electrons
N(Beta)            :       62.999970379675 electrons
N(Total)           :      125.999940759350 electrons
E(X)               :     -100.604208016559 Eh       
E(C)               :       -4.462317357595 Eh       
E(XC)              :     -105.066525374154 Eh       
DFET-embed. en.    :        0.000000000000 Eh       

---------------
SCF CONVERGENCE
---------------

  Last Energy change         ...   -2.0049e-07  Tolerance :   1.0000e-06
  Last MAX-Density change    ...    1.9788e-01  Tolerance :   1.0000e-05
  Last RMS-Density change    ...    5.5728e-04  Tolerance :   1.0000e-06
  Last DIIS Error            ...    6.2694e-05  Tolerance :   1.0000e-06

             **** THE GBW FILE WAS UPDATED (TMB29_T1.gbw) ****
             **** DENSITY FILE WAS UPDATED (TMB29_T1.scfp) ****
             **** ENERGY FILE WAS UPDATED (TMB29_T1.en.tmp) ****
             **** THE GBW FILE WAS UPDATED (TMB29_T1.gbw) ****
             **** DENSITY FILE WAS UPDATED (TMB29_T1.scfp) ****
----------------
ORBITAL ENERGIES
----------------

  NO   OCC          E(Eh)            E(eV) 
   0   2.0000     -77.107148     -2098.1922 
   1   2.0000     -19.252875      -523.8974 
   2   2.0000     -19.206359      -522.6316 
   3   2.0000     -19.189057      -522.1608 
   4   2.0000     -10.389457      -282.7115 
   5   2.0000     -10.354536      -281.7612 
   6   2.0000     -10.346073      -281.5309 
   7   2.0000     -10.310405      -280.5604 
   8   2.0000     -10.273785      -279.5639 
   9   2.0000     -10.251257      -278.9509 
  10   2.0000     -10.248096      -278.8649 
  11   2.0000     -10.243483      -278.7393 
  12   2.0000     -10.242279      -278.7066 
  13   2.0000      -6.664023      -181.3373 
  14   2.0000      -4.812864      -130.9647 
  15   2.0000      -4.812836      -130.9639 
  16   2.0000      -4.810371      -130.8968 
  17   2.0000      -4.255442      -115.7965 
  18   2.0000      -2.456936       -66.8566 
  19   2.0000      -2.438028       -66.3421 
  20   2.0000      -2.437710       -66.3334 
  21   2.0000      -1.253002       -34.0959 
  22   2.0000      -1.173731       -31.9389 
  23   2.0000      -1.153711       -31.3941 
  24   2.0000      -0.956103       -26.0169 
  25   2.0000      -0.905712       -24.6457 
  26   2.0000      -0.865413       -23.5491 
  27   2.0000      -0.860995       -23.4289 
  28   2.0000      -0.820031       -22.3142 
  29   2.0000      -0.802796       -21.8452 
  30   2.0000      -0.778494       -21.1839 
  31   2.0000      -0.724323       -19.7098 
  32   2.0000      -0.692968       -18.8566 
  33   2.0000      -0.636462       -17.3190 
  34   2.0000      -0.620148       -16.8751 
  35   2.0000      -0.611451       -16.6384 
  36   2.0000      -0.590304       -16.0630 
  37   2.0000      -0.580700       -15.8016 
  38   2.0000      -0.571468       -15.5504 
  39   2.0000      -0.561546       -15.2804 
  40   2.0000      -0.553868       -15.0715 
  41   2.0000      -0.552320       -15.0294 
  42   2.0000      -0.549951       -14.9649 
  43   2.0000      -0.541957       -14.7474 
  44   2.0000      -0.538723       -14.6594 
  45   2.0000      -0.526537       -14.3278 
  46   2.0000      -0.526289       -14.3210 
  47   2.0000      -0.522972       -14.2308 
  48   2.0000      -0.518014       -14.0959 
  49   2.0000      -0.502921       -13.6852 
  50   2.0000      -0.497592       -13.5402 
  51   2.0000      -0.493171       -13.4199 
  52   2.0000      -0.481115       -13.0918 
  53   2.0000      -0.463621       -12.6158 
  54   2.0000      -0.458613       -12.4795 
  55   2.0000      -0.448853       -12.2139 
  56   2.0000      -0.448250       -12.1975 
  57   2.0000      -0.433208       -11.7882 
  58   2.0000      -0.430611       -11.7175 
  59   2.0000      -0.411695       -11.2028 
  60   2.0000      -0.401164       -10.9162 
  61   2.0000      -0.385954       -10.5024 
  62   2.0000      -0.373121       -10.1531 
  63   0.0000      -0.210840        -5.7372 
  64   0.0000      -0.180291        -4.9060 
  65   0.0000      -0.165245        -4.4965 
  66   0.0000      -0.157999        -4.2994 
  67   0.0000      -0.143101        -3.8940 
  68   0.0000      -0.124215        -3.3801 
  69   0.0000      -0.116699        -3.1755 
  70   0.0000      -0.104137        -2.8337 
  71   0.0000      -0.093186        -2.5357 
  72   0.0000      -0.092096        -2.5061 
  73   0.0000      -0.085648        -2.3306 
  74   0.0000      -0.073688        -2.0051 
  75   0.0000      -0.069886        -1.9017 
  76   0.0000      -0.066391        -1.8066 
  77   0.0000      -0.049193        -1.3386 
  78   0.0000      -0.047950        -1.3048 
  79   0.0000      -0.041764        -1.1365 
  80   0.0000      -0.040885        -1.1125 
  81   0.0000      -0.037800        -1.0286 
  82   0.0000      -0.036537        -0.9942 
  83   0.0000      -0.033777        -0.9191 
  84   0.0000      -0.028753        -0.7824 
  85   0.0000      -0.024243        -0.6597 
  86   0.0000      -0.020005        -0.5444 
  87   0.0000      -0.015043        -0.4093 
  88   0.0000      -0.010440        -0.2841 
  89   0.0000      -0.007194        -0.1958 
  90   0.0000       0.001165         0.0317 
  91   0.0000       0.004812         0.1309 
  92   0.0000       0.005505         0.1498 
  93   0.0000       0.009444         0.2570 
  94   0.0000       0.016213         0.4412 
  95   0.0000       0.020838         0.5670 
  96   0.0000       0.024392         0.6637 
  97   0.0000       0.027100         0.7374 
  98   0.0000       0.030984         0.8431 
  99   0.0000       0.033867         0.9216 
 100   0.0000       0.041024         1.1163 
 101   0.0000       0.047430         1.2906 
 102   0.0000       0.049908         1.3581 
 103   0.0000       0.051461         1.4003 
 104   0.0000       0.056513         1.5378 
 105   0.0000       0.061525         1.6742 
 106   0.0000       0.066182         1.8009 
 107   0.0000       0.070691         1.9236 
 108   0.0000       0.079986         2.1765 
 109   0.0000       0.085781         2.3342 
 110   0.0000       0.088607         2.4111 
 111   0.0000       0.093005         2.5308 
 112   0.0000       0.095419         2.5965 
 113   0.0000       0.098241         2.6733 
 114   0.0000       0.099194         2.6992 
 115   0.0000       0.106726         2.9042 
 116   0.0000       0.108198         2.9442 
 117   0.0000       0.109850         2.9892 
 118   0.0000       0.112943         3.0733 
 119   0.0000       0.119553         3.2532 
 120   0.0000       0.121838         3.3154 
 121   0.0000       0.123515         3.3610 
 122   0.0000       0.128240         3.4896 
 123   0.0000       0.130901         3.5620 
 124   0.0000       0.133865         3.6427 
 125   0.0000       0.135839         3.6964 
 126   0.0000       0.139326         3.7912 
 127   0.0000       0.140156         3.8138 
 128   0.0000       0.143858         3.9146 
 129   0.0000       0.146008         3.9731 
 130   0.0000       0.152081         4.1383 
 131   0.0000       0.152647         4.1537 
 132   0.0000       0.158503         4.3131 
 133   0.0000       0.161265         4.3883 
 134   0.0000       0.161770         4.4020 
 135   0.0000       0.165225         4.4960 
 136   0.0000       0.167724         4.5640 
 137   0.0000       0.169457         4.6112 
 138   0.0000       0.174037         4.7358 
 139   0.0000       0.178477         4.8566 
 140   0.0000       0.181655         4.9431 
 141   0.0000       0.183258         4.9867 
 142   0.0000       0.184643         5.0244 
 143   0.0000       0.187782         5.1098 
 144   0.0000       0.191590         5.2134 
 145   0.0000       0.196334         5.3425 
 146   0.0000       0.200489         5.4556 
 147   0.0000       0.202393         5.5074 
 148   0.0000       0.206712         5.6249 
 149   0.0000       0.208232         5.6663 
 150   0.0000       0.212030         5.7696 
 151   0.0000       0.217497         5.9184 
 152   0.0000       0.219605         5.9757 
 153   0.0000       0.223388         6.0787 
 154   0.0000       0.226670         6.1680 
 155   0.0000       0.228938         6.2297 
 156   0.0000       0.233833         6.3629 
 157   0.0000       0.236713         6.4413 
 158   0.0000       0.240872         6.5545 
 159   0.0000       0.243045         6.6136 
 160   0.0000       0.244967         6.6659 
 161   0.0000       0.247994         6.7483 
 162   0.0000       0.251517         6.8441 
 163   0.0000       0.256162         6.9705 
 164   0.0000       0.256564         6.9815 
 165   0.0000       0.258380         7.0309 
 166   0.0000       0.262449         7.1416 
 167   0.0000       0.264700         7.2029 
 168   0.0000       0.270566         7.3625 
 169   0.0000       0.273058         7.4303 
 170   0.0000       0.275605         7.4996 
 171   0.0000       0.280688         7.6379 
 172   0.0000       0.283813         7.7229 
 173   0.0000       0.290895         7.9157 
 174   0.0000       0.293112         7.9760 
 175   0.0000       0.293792         7.9945 
 176   0.0000       0.295738         8.0474 
 177   0.0000       0.300062         8.1651 
 178   0.0000       0.305339         8.3087 
 179   0.0000       0.307726         8.3737 
 180   0.0000       0.313576         8.5328 
 181   0.0000       0.315438         8.5835 
 182   0.0000       0.320697         8.7266 
 183   0.0000       0.323735         8.8093 
 184   0.0000       0.326114         8.8740 
 185   0.0000       0.331319         9.0156 
 186   0.0000       0.336562         9.1583 
 187   0.0000       0.339172         9.2293 
 188   0.0000       0.342934         9.3317 
 189   0.0000       0.346960         9.4412 
 190   0.0000       0.348555         9.4847 
 191   0.0000       0.351287         9.5590 
 192   0.0000       0.361046         9.8246 
 193   0.0000       0.362882         9.8745 
 194   0.0000       0.365924         9.9573 
 195   0.0000       0.368020        10.0143 
 196   0.0000       0.372303        10.1309 
 197   0.0000       0.376107        10.2344 
 198   0.0000       0.378407        10.2970 
 199   0.0000       0.382203        10.4003 
 200   0.0000       0.384828        10.4717 
 201   0.0000       0.388085        10.5603 
 202   0.0000       0.394313        10.7298 
 203   0.0000       0.400075        10.8866 
 204   0.0000       0.404612        11.0100 
 205   0.0000       0.405751        11.0410 
 206   0.0000       0.408224        11.1083 
 207   0.0000       0.411917        11.2088 
 208   0.0000       0.415743        11.3129 
 209   0.0000       0.418695        11.3933 
 210   0.0000       0.425727        11.5846 
 211   0.0000       0.429683        11.6923 
 212   0.0000       0.433671        11.8008 
 213   0.0000       0.437543        11.9061 
 214   0.0000       0.443116        12.0578 
 215   0.0000       0.443197        12.0600 
 216   0.0000       0.450198        12.2505 
 217   0.0000       0.455004        12.3813 
 218   0.0000       0.457139        12.4394 
 219   0.0000       0.461151        12.5485 
 220   0.0000       0.468335        12.7440 
 221   0.0000       0.471671        12.8348 
 222   0.0000       0.477393        12.9905 
 223   0.0000       0.480459        13.0739 
 224   0.0000       0.486024        13.2254 
 225   0.0000       0.488254        13.2861 
 226   0.0000       0.490690        13.3523 
 227   0.0000       0.497860        13.5475 
 228   0.0000       0.500616        13.6225 
 229   0.0000       0.506584        13.7849 
 230   0.0000       0.508531        13.8378 
 231   0.0000       0.516007        14.0413 
 232   0.0000       0.522002        14.2044 
 233   0.0000       0.526816        14.3354 
 234   0.0000       0.527671        14.3587 
 235   0.0000       0.535757        14.5787 
 236   0.0000       0.542098        14.7512 
 237   0.0000       0.545146        14.8342 
 238   0.0000       0.550933        14.9917 
 239   0.0000       0.555836        15.1251 
 240   0.0000       0.559853        15.2344 
 241   0.0000       0.566427        15.4133 
 242   0.0000       0.569319        15.4920 
 243   0.0000       0.571813        15.5598 
 244   0.0000       0.572324        15.5737 
 245   0.0000       0.576534        15.6883 
 246   0.0000       0.583427        15.8759 
 247   0.0000       0.587253        15.9800 
 248   0.0000       0.593248        16.1431 
 249   0.0000       0.593801        16.1581 
 250   0.0000       0.598737        16.2925 
 251   0.0000       0.601853        16.3773 
 252   0.0000       0.606841        16.5130 
 253   0.0000       0.609777        16.5929 
 254   0.0000       0.613502        16.6942 
 255   0.0000       0.615620        16.7519 
 256   0.0000       0.619847        16.8669 
 257   0.0000       0.621687        16.9170 
 258   0.0000       0.624910        17.0047 
 259   0.0000       0.628637        17.1061 
 260   0.0000       0.639512        17.4020 
 261   0.0000       0.643846        17.5199 
 262   0.0000       0.644878        17.5480 
 263   0.0000       0.650743        17.7076 
 264   0.0000       0.653473        17.7819 
 265   0.0000       0.655631        17.8406 
 266   0.0000       0.660265        17.9667 
 267   0.0000       0.664774        18.0894 
 268   0.0000       0.672346        18.2955 
 269   0.0000       0.673617        18.3300 
 270   0.0000       0.682413        18.5694 
 271   0.0000       0.689923        18.7738 
 272   0.0000       0.693941        18.8831 
 273   0.0000       0.696523        18.9534 
 274   0.0000       0.699317        19.0294 
 275   0.0000       0.706266        19.2185 
 276   0.0000       0.712444        19.3866 
 277   0.0000       0.713489        19.4150 
 278   0.0000       0.721108        19.6223 
 279   0.0000       0.721715        19.6388 
 280   0.0000       0.730229        19.8705 
 281   0.0000       0.735427        20.0120 
 282   0.0000       0.740969        20.1628 
 283   0.0000       0.744737        20.2653 
 284   0.0000       0.746732        20.3196 
 285   0.0000       0.752178        20.4678 
 286   0.0000       0.756436        20.5837 
 287   0.0000       0.767337        20.8803 
 288   0.0000       0.770133        20.9564 
 289   0.0000       0.770982        20.9795 
 290   0.0000       0.778171        21.1751 
 291   0.0000       0.787735        21.4354 
 292   0.0000       0.796710        21.6796 
 293   0.0000       0.800982        21.7958 
 294   0.0000       0.808502        22.0005 
 295   0.0000       0.820095        22.3159 
 296   0.0000       0.828373        22.5412 
 297   0.0000       0.837435        22.7878 
 298   0.0000       0.844322        22.9752 
 299   0.0000       0.848155        23.0795 
 300   0.0000       0.851018        23.1574 
 301   0.0000       0.856018        23.2934 
 302   0.0000       0.866183        23.5700 
 303   0.0000       0.874994        23.8098 
 304   0.0000       0.882158        24.0047 
 305   0.0000       0.889569        24.2064 
 306   0.0000       0.893400        24.3107 
 307   0.0000       0.898876        24.4597 
 308   0.0000       0.903620        24.5887 
 309   0.0000       0.909029        24.7359 
 310   0.0000       0.919510        25.0211 
 311   0.0000       0.920636        25.0518 
 312   0.0000       0.930963        25.3328 
 313   0.0000       0.932409        25.3721 
 314   0.0000       0.933824        25.4106 
 315   0.0000       0.956997        26.0412 
 316   0.0000       0.960419        26.1343 
 317   0.0000       0.963314        26.2131 
 318   0.0000       0.967833        26.3361 
 319   0.0000       0.976344        26.5677 
 320   0.0000       0.984047        26.7773 
 321   0.0000       0.990858        26.9626 
 322   0.0000       1.007716        27.4214 
 323   0.0000       1.016399        27.6576 
 324   0.0000       1.022792        27.8316 
 325   0.0000       1.033687        28.1281 
 326   0.0000       1.038680        28.2639 
 327   0.0000       1.042266        28.3615 
 328   0.0000       1.061716        28.8908 
 329   0.0000       1.063492        28.9391 
 330   0.0000       1.070360        29.1260 
 331   0.0000       1.072511        29.1845 
 332   0.0000       1.085044        29.5255 
 333   0.0000       1.088320        29.6147 
 334   0.0000       1.091539        29.7023 
 335   0.0000       1.099287        29.9131 
 336   0.0000       1.101213        29.9655 
 337   0.0000       1.106456        30.1082 
 338   0.0000       1.112432        30.2708 
 339   0.0000       1.118300        30.4305 
 340   0.0000       1.133644        30.8480 
 341   0.0000       1.139903        31.0183 
 342   0.0000       1.144006        31.1300 
 343   0.0000       1.149593        31.2820 
 344   0.0000       1.154127        31.4054 
 345   0.0000       1.157227        31.4897 
 346   0.0000       1.165317        31.7099 
 347   0.0000       1.174165        31.9506 
 348   0.0000       1.185362        32.2553 
 349   0.0000       1.191357        32.4185 
 350   0.0000       1.193741        32.4833 
 351   0.0000       1.195736        32.5376 
 352   0.0000       1.203718        32.7548 
 353   0.0000       1.205405        32.8007 
 354   0.0000       1.212541        32.9949 
 355   0.0000       1.216052        33.0905 
 356   0.0000       1.224426        33.3183 
 357   0.0000       1.232082        33.5267 
 358   0.0000       1.232932        33.5498 
 359   0.0000       1.241266        33.7766 
 360   0.0000       1.248400        33.9707 
 361   0.0000       1.253186        34.1009 
 362   0.0000       1.257696        34.2236 
 363   0.0000       1.265734        34.4424 
 364   0.0000       1.280149        34.8346 
 365   0.0000       1.283193        34.9174 
 366   0.0000       1.290877        35.1266 
 367   0.0000       1.294994        35.2386 
 368   0.0000       1.302737        35.4493 
 369   0.0000       1.314034        35.7567 
 370   0.0000       1.325403        36.0660 
 371   0.0000       1.346510        36.6404 
 372   0.0000       1.354054        36.8457 
 373   0.0000       1.358109        36.9560 
 374   0.0000       1.362784        37.0832 
 375   0.0000       1.368631        37.2423 
 376   0.0000       1.377239        37.4766 
 377   0.0000       1.383073        37.6353 
 378   0.0000       1.398770        38.0625 
 379   0.0000       1.399986        38.0956 
 380   0.0000       1.401928        38.1484 
 381   0.0000       1.413455        38.4621 
 382   0.0000       1.426315        38.8120 
 383   0.0000       1.444018        39.2937 
 384   0.0000       1.446232        39.3540 
 385   0.0000       1.459290        39.7093 
 386   0.0000       1.468124        39.9497 
 387   0.0000       1.470220        40.0067 
 388   0.0000       1.474319        40.1183 
 389   0.0000       1.480214        40.2787 
 390   0.0000       1.482917        40.3522 
 391   0.0000       1.494421        40.6653 
 392   0.0000       1.502723        40.8912 
 393   0.0000       1.512475        41.1565 
 394   0.0000       1.517017        41.2801 
 395   0.0000       1.520629        41.3784 
 396   0.0000       1.527156        41.5560 
 397   0.0000       1.533648        41.7327 
 398   0.0000       1.536853        41.8199 
 399   0.0000       1.542113        41.9630 
 400   0.0000       1.548823        42.1456 
 401   0.0000       1.549167        42.1550 
 402   0.0000       1.562129        42.5077 
 403   0.0000       1.570580        42.7377 
 404   0.0000       1.576971        42.9116 
 405   0.0000       1.580242        43.0006 
 406   0.0000       1.585791        43.1516 
 407   0.0000       1.591492        43.3067 
 408   0.0000       1.594951        43.4008 
 409   0.0000       1.600583        43.5541 
 410   0.0000       1.605285        43.6820 
 411   0.0000       1.613532        43.9064 
 412   0.0000       1.618195        44.0333 
 413   0.0000       1.631012        44.3821 
 414   0.0000       1.638523        44.5865 
 415   0.0000       1.646512        44.8039 
 416   0.0000       1.659099        45.1464 
 417   0.0000       1.672992        45.5244 
 418   0.0000       1.682656        45.7874 
 419   0.0000       1.696928        46.1758 
 420   0.0000       1.707229        46.4561 
 421   0.0000       1.729279        47.0561 
 422   0.0000       1.733764        47.1781 
 423   0.0000       1.757192        47.8156 
 424   0.0000       1.766321        48.0640 
 425   0.0000       1.776360        48.3372 
 426   0.0000       1.781392        48.4741 
 427   0.0000       1.795812        48.8665 
 428   0.0000       1.807731        49.1909 
 429   0.0000       1.816477        49.4288 
 430   0.0000       1.824196        49.6389 
 431   0.0000       1.834423        49.9172 
 432   0.0000       1.845597        50.2212 
 433   0.0000       1.857614        50.5482 
 434   0.0000       1.862737        50.6877 
 435   0.0000       1.876808        51.0705 
 436   0.0000       1.879332        51.1392 
 437   0.0000       1.905187        51.8428 
 438   0.0000       1.917980        52.1909 
 439   0.0000       1.934063        52.6285 
 440   0.0000       1.946495        52.9668 
 441   0.0000       1.952613        53.1333 
 442   0.0000       1.961398        53.3723 
 443   0.0000       1.985945        54.0403 
 444   0.0000       1.992887        54.2292 
 445   0.0000       2.004557        54.5468 
 446   0.0000       2.017742        54.9055 
 447   0.0000       2.026581        55.1461 
 448   0.0000       2.048786        55.7503 
 449   0.0000       2.058475        56.0139 
 450   0.0000       2.066669        56.2369 
 451   0.0000       2.077542        56.5328 
 452   0.0000       2.084801        56.7303 
 453   0.0000       2.109733        57.4088 
 454   0.0000       2.114799        57.5466 
 455   0.0000       2.133415        58.0532 
 456   0.0000       2.142263        58.2939 
 457   0.0000       2.164180        58.8903 
 458   0.0000       2.192885        59.6714 
 459   0.0000       2.214913        60.2708 
 460   0.0000       2.231204        60.7141 
 461   0.0000       2.234856        60.8135 
 462   0.0000       2.259694        61.4894 
 463   0.0000       2.289341        62.2961 
 464   0.0000       2.299552        62.5740 
 465   0.0000       2.328264        63.3553 
 466   0.0000       2.339724        63.6671 
 467   0.0000       2.376103        64.6570 
 468   0.0000       2.377768        64.7024 
 469   0.0000       2.395650        65.1889 
 470   0.0000       2.411322        65.6154 
 471   0.0000       2.422004        65.9061 
 472   0.0000       2.455537        66.8186 
 473   0.0000       2.469476        67.1979 
 474   0.0000       2.477751        67.4230 
 475   0.0000       2.498080        67.9762 
 476   0.0000       2.517162        68.4954 
 477   0.0000       2.527659        68.7811 
 478   0.0000       2.548437        69.3465 
 479   0.0000       2.568582        69.8947 
 480   0.0000       2.614441        71.1426 
 481   0.0000       2.632483        71.6335 
 482   0.0000       2.637967        71.7827 
 483   0.0000       2.651414        72.1486 
 484   0.0000       2.679162        72.9037 
 485   0.0000       2.700238        73.4772 
 486   0.0000       2.717301        73.9415 
 487   0.0000       2.719784        74.0091 
 488   0.0000       2.727412        74.2166 
 489   0.0000       2.733823        74.3911 
 490   0.0000       2.744264        74.6752 
 491   0.0000       2.747284        74.7574 
 492   0.0000       2.758220        75.0550 
 493   0.0000       2.765083        75.2417 
 494   0.0000       2.772156        75.4342 
 495   0.0000       2.782141        75.7059 
 496   0.0000       2.790845        75.9427 
 497   0.0000       2.799115        76.1678 
 498   0.0000       2.804873        76.3245 
 499   0.0000       2.811289        76.4991 
 500   0.0000       2.817305        76.6628 
 501   0.0000       2.823421        76.8292 
 502   0.0000       2.824927        76.8702 
 503   0.0000       2.834185        77.1221 
 504   0.0000       2.841453        77.3199 
 505   0.0000       2.853557        77.6492 
 506   0.0000       2.862886        77.9031 
 507   0.0000       2.883994        78.4775 
 508   0.0000       2.886019        78.5326 
 509   0.0000       2.899729        78.9056 
 510   0.0000       2.902894        78.9918 
 511   0.0000       2.921426        79.4960 
 512   0.0000       2.931281        79.7642 
 513   0.0000       2.953922        80.3803 
 514   0.0000       2.955361        80.4195 
 515   0.0000       2.959202        80.5240 
 516   0.0000       2.977824        81.0307 
 517   0.0000       2.989760        81.3555 
 518   0.0000       2.997915        81.5774 
 519   0.0000       3.010687        81.9250 
 520   0.0000       3.013837        82.0107 
 521   0.0000       3.019448        82.1634 
 522   0.0000       3.023326        82.2689 
 523   0.0000       3.034343        82.5687 
 524   0.0000       3.043242        82.8108 
 525   0.0000       3.050960        83.0208 
 526   0.0000       3.056540        83.1727 
 527   0.0000       3.066740        83.4502 
 528   0.0000       3.074776        83.6689 
 529   0.0000       3.084011        83.9202 
 530   0.0000       3.092351        84.1471 
 531   0.0000       3.093214        84.1706 
 532   0.0000       3.097017        84.2741 
 533   0.0000       3.099549        84.3430 
 534   0.0000       3.113717        84.7286 
 535   0.0000       3.119813        84.8944 
 536   0.0000       3.120708        84.9188 
 537   0.0000       3.143250        85.5322 
 538   0.0000       3.145822        85.6022 
 539   0.0000       3.160943        86.0136 
 540   0.0000       3.167223        86.1845 
 541   0.0000       3.174173        86.3736 
 542   0.0000       3.187026        86.7234 
 543   0.0000       3.195274        86.9478 
 544   0.0000       3.215731        87.5045 
 545   0.0000       3.229771        87.8865 
 546   0.0000       3.239653        88.1555 
 547   0.0000       3.247174        88.3601 
 548   0.0000       3.252677        88.5099 
 549   0.0000       3.266274        88.8798 
 550   0.0000       3.274880        89.1140 
 551   0.0000       3.278939        89.2245 
 552   0.0000       3.284163        89.3666 
 553   0.0000       3.293270        89.6144 
 554   0.0000       3.299231        89.7766 
 555   0.0000       3.305178        89.9385 
 556   0.0000       3.318302        90.2956 
 557   0.0000       3.319298        90.3227 
 558   0.0000       3.330514        90.6279 
 559   0.0000       3.334925        90.7479 
 560   0.0000       3.350297        91.1662 
 561   0.0000       3.354310        91.2754 
 562   0.0000       3.363121        91.5152 
 563   0.0000       3.373591        91.8001 
 564   0.0000       3.383007        92.0563 
 565   0.0000       3.399147        92.4955 
 566   0.0000       3.405205        92.6604 
 567   0.0000       3.414541        92.9144 
 568   0.0000       3.426720        93.2458 
 569   0.0000       3.434796        93.4656 
 570   0.0000       3.441512        93.6483 
 571   0.0000       3.450109        93.8822 
 572   0.0000       3.459141        94.1280 
 573   0.0000       3.471561        94.4660 
 574   0.0000       3.473234        94.5115 
 575   0.0000       3.482369        94.7601 
 576   0.0000       3.490097        94.9704 
 577   0.0000       3.492634        95.0394 
 578   0.0000       3.495560        95.1190 
 579   0.0000       3.504555        95.3638 
 580   0.0000       3.512483        95.5795 
 581   0.0000       3.519967        95.7832 
 582   0.0000       3.529843        96.0519 
 583   0.0000       3.533963        96.1640 
 584   0.0000       3.545615        96.4811 
 585   0.0000       3.555133        96.7401 
 586   0.0000       3.558383        96.8285 
 587   0.0000       3.564595        96.9976 
 588   0.0000       3.573912        97.2511 
 589   0.0000       3.587668        97.6254 
 590   0.0000       3.595403        97.8359 
 591   0.0000       3.598451        97.9188 
 592   0.0000       3.605836        98.1198 
 593   0.0000       3.621076        98.5345 
 594   0.0000       3.622754        98.5802 
 595   0.0000       3.637197        98.9732 
 596   0.0000       3.644578        99.1740 
 597   0.0000       3.658705        99.5584 
 598   0.0000       3.671723        99.9127 
 599   0.0000       3.693934       100.5170 
 600   0.0000       3.699160       100.6593 
 601   0.0000       3.707711       100.8919 
 602   0.0000       3.714669       101.0813 
 603   0.0000       3.720459       101.2388 
 604   0.0000       3.732375       101.5631 
 605   0.0000       3.738020       101.7167 
 606   0.0000       3.750426       102.0543 
 607   0.0000       3.754563       102.1668 
 608   0.0000       3.773824       102.6910 
 609   0.0000       3.783600       102.9570 
 610   0.0000       3.790671       103.1494 
 611   0.0000       3.815542       103.8262 
 612   0.0000       3.826236       104.1172 
 613   0.0000       3.840506       104.5055 
 614   0.0000       3.852910       104.8430 
 615   0.0000       3.865456       105.1844 
 616   0.0000       3.879757       105.5736 
 617   0.0000       3.883807       105.6838 
 618   0.0000       3.892755       105.9273 
 619   0.0000       3.901204       106.1572 
 620   0.0000       3.907293       106.3229 
 621   0.0000       3.912217       106.4569 
 622   0.0000       3.916955       106.5858 
 623   0.0000       3.939903       107.2102 
 624   0.0000       3.940901       107.2374 
 625   0.0000       3.951139       107.5160 
 626   0.0000       3.960684       107.7757 
 627   0.0000       3.966024       107.9210 
 628   0.0000       3.973666       108.1289 
 629   0.0000       3.977249       108.2265 
 630   0.0000       3.979937       108.2996 
 631   0.0000       3.988404       108.5300 
 632   0.0000       3.992714       108.6473 
 633   0.0000       3.996354       108.7463 
 634   0.0000       3.998547       108.8060 
 635   0.0000       4.004852       108.9776 
 636   0.0000       4.008371       109.0733 
 637   0.0000       4.023900       109.4959 
 638   0.0000       4.026282       109.5607 
 639   0.0000       4.034371       109.7808 
 640   0.0000       4.037909       109.8771 
 641   0.0000       4.043040       110.0167 
 642   0.0000       4.048430       110.1634 
 643   0.0000       4.058015       110.4242 
 644   0.0000       4.069003       110.7232 
 645   0.0000       4.078617       110.9848 
 646   0.0000       4.094195       111.4087 
 647   0.0000       4.102831       111.6437 
 648   0.0000       4.107353       111.7667 
 649   0.0000       4.111450       111.8782 
 650   0.0000       4.120050       112.1123 
 651   0.0000       4.125699       112.2660 
 652   0.0000       4.130925       112.4082 
 653   0.0000       4.137618       112.5903 
 654   0.0000       4.138867       112.6243 
 655   0.0000       4.150106       112.9301 
 656   0.0000       4.155684       113.0819 
 657   0.0000       4.157261       113.1248 
 658   0.0000       4.173484       113.5663 
 659   0.0000       4.177359       113.6717 
 660   0.0000       4.184143       113.8563 
 661   0.0000       4.190411       114.0269 
 662   0.0000       4.196356       114.1887 
 663   0.0000       4.220330       114.8410 
 664   0.0000       4.239225       115.3552 
 665   0.0000       4.244807       115.5071 
 666   0.0000       4.247771       115.5877 
 667   0.0000       4.253278       115.7376 
 668   0.0000       4.263577       116.0178 
 669   0.0000       4.284457       116.5860 
 670   0.0000       4.285076       116.6028 
 671   0.0000       4.307658       117.2173 
 672   0.0000       4.309674       117.2722 
 673   0.0000       4.337254       118.0227 
 674   0.0000       4.344401       118.2172 
 675   0.0000       4.370904       118.9383 
 676   0.0000       4.373155       118.9996 
 677   0.0000       4.394666       119.5849 
 678   0.0000       4.412303       120.0649 
 679   0.0000       4.427772       120.4858 
 680   0.0000       4.441751       120.8662 
 681   0.0000       4.452322       121.1538 
 682   0.0000       4.468892       121.6047 
 683   0.0000       4.484976       122.0424 
 684   0.0000       4.500459       122.4637 
 685   0.0000       4.519419       122.9797 
 686   0.0000       4.536026       123.4316 
 687   0.0000       4.563289       124.1734 
 688   0.0000       4.584967       124.7633 
 689   0.0000       4.600587       125.1883 
 690   0.0000       4.613205       125.5317 
 691   0.0000       4.670415       127.0884 
 692   0.0000       4.673987       127.1856 
 693   0.0000       4.693463       127.7156 
 694   0.0000       4.698626       127.8561 
 695   0.0000       4.715625       128.3187 
 696   0.0000       4.725097       128.5764 
 697   0.0000       4.744868       129.1144 
 698   0.0000       4.756771       129.4383 
 699   0.0000       4.763302       129.6160 
 700   0.0000       4.784275       130.1867 
 701   0.0000       4.791821       130.3921 
 702   0.0000       4.801265       130.6491 
 703   0.0000       4.812075       130.9432 
 704   0.0000       4.823641       131.2579 
 705   0.0000       4.826591       131.3382 
 706   0.0000       4.845345       131.8485 
 707   0.0000       4.849424       131.9595 
 708   0.0000       4.867856       132.4611 
 709   0.0000       4.918501       133.8392 
 710   0.0000       4.941408       134.4625 
 711   0.0000       4.960924       134.9936 
 712   0.0000       5.014826       136.4604 
 713   0.0000       5.031283       136.9082 
 714   0.0000       5.082253       138.2951 
 715   0.0000       5.089863       138.5022 
 716   0.0000       5.095230       138.6482 
 717   0.0000       5.119127       139.2985 
 718   0.0000       5.134224       139.7093 
 719   0.0000       5.144853       139.9986 
 720   0.0000       5.153159       140.2246 
 721   0.0000       5.156742       140.3221 
 722   0.0000       5.179415       140.9390 
 723   0.0000       5.185510       141.1049 
 724   0.0000       5.200566       141.5146 
 725   0.0000       5.225410       142.1906 
 726   0.0000       5.230943       142.3412 
 727   0.0000       5.252459       142.9267 
 728   0.0000       5.266807       143.3171 
 729   0.0000       5.279179       143.6538 
 730   0.0000       5.293263       144.0370 
 731   0.0000       5.304799       144.3509 
 732   0.0000       5.335463       145.1853 
 733   0.0000       5.346861       145.4955 
 734   0.0000       5.358630       145.8157 
 735   0.0000       5.389052       146.6436 
 736   0.0000       5.396554       146.8477 
 737   0.0000       5.409972       147.2128 
 738   0.0000       5.414882       147.3464 
 739   0.0000       5.433118       147.8427 
 740   0.0000       5.449149       148.2789 
 741   0.0000       5.468167       148.7964 
 742   0.0000       5.481618       149.1624 
 743   0.0000       5.484314       149.2358 
 744   0.0000       5.499615       149.6521 
 745   0.0000       5.505798       149.8204 
 746   0.0000       5.529178       150.4566 
 747   0.0000       5.540719       150.7706 
 748   0.0000       5.552924       151.1028 
 749   0.0000       5.574528       151.6906 
 750   0.0000       5.585900       152.0001 
 751   0.0000       5.623493       153.0230 
 752   0.0000       5.642461       153.5392 
 753   0.0000       5.674317       154.4060 
 754   0.0000       5.682067       154.6169 
 755   0.0000       5.699343       155.0870 
 756   0.0000       5.704393       155.2244 
 757   0.0000       5.719210       155.6276 
 758   0.0000       5.735473       156.0702 
 759   0.0000       5.742716       156.2673 
 760   0.0000       5.756620       156.6456 
 761   0.0000       5.761106       156.7677 
 762   0.0000       5.776432       157.1847 
 763   0.0000       5.793115       157.6387 
 764   0.0000       5.802211       157.8862 
 765   0.0000       5.834845       158.7742 
 766   0.0000       5.864834       159.5902 
 767   0.0000       5.949670       161.8988 
 768   0.0000       6.030904       164.1092 
 769   0.0000       6.107278       166.1875 
 770   0.0000       6.206231       168.8801 
 771   0.0000       6.223697       169.3554 
 772   0.0000       6.312543       171.7730 
 773   0.0000       6.406069       174.3180 
 774   0.0000       6.434266       175.0853 
 775   0.0000       6.439325       175.2229 
 776   0.0000       6.458487       175.7444 
 777   0.0000       6.495330       176.7469 
 778   0.0000       6.509511       177.1328 
 779   0.0000       6.574186       178.8927 
 780   0.0000       6.633701       180.5122 
 781   0.0000       6.694339       182.1622 
 782   0.0000       6.751227       183.7102 
 783   0.0000       6.791381       184.8029 
 784   0.0000       6.819558       185.5696 
 785   0.0000       6.852410       186.4636 
 786   0.0000       6.967232       189.5880 
 787   0.0000       6.978143       189.8849 
 788   0.0000       7.105033       193.3378 
 789   0.0000       7.168903       195.0758 
 790   0.0000       7.194276       195.7662 
 791   0.0000       7.242261       197.0719 
 792   0.0000       7.440285       202.4604 
 793   0.0000       7.551951       205.4990 
 794   0.0000       7.789620       211.9663 
 795   0.0000       7.812027       212.5761 
 796   0.0000       7.828283       213.0184 
 797   0.0000      16.221537       441.4105 
 798   0.0000      22.986764       625.5016 
 799   0.0000      23.142748       629.7462 
 800   0.0000      23.411003       637.0458 
 801   0.0000      23.531060       640.3127 
 802   0.0000      23.571601       641.4159 
 803   0.0000      23.709073       645.1567 
 804   0.0000      23.766919       646.7307 
 805   0.0000      23.806089       647.7966 
 806   0.0000      23.897978       650.2970 
 807   0.0000      29.115615       792.2762 
 808   0.0000      31.611751       860.1995 
 809   0.0000      34.264498       932.3844 
 810   0.0000      44.338282      1206.5060 
 811   0.0000      44.432227      1209.0624 
 812   0.0000      44.705721      1216.5045 
 813   0.0000      44.745012      1217.5737 
 814   0.0000     205.347225      5587.7821 

                    ********************************
                    * MULLIKEN POPULATION ANALYSIS *
                    ********************************

-----------------------
MULLIKEN ATOMIC CHARGES
-----------------------
   0 C :    0.569630
   1 C :   -0.914028
   2 C :   -0.300306
   3 H :    0.033608
   4 H :    0.093183
   5 H :    0.094615
   6 C :    2.449942
   7 O :   -0.494423
   8 C :    0.634551
   9 O :   -0.563992
  10 C :    0.328034
  11 O :   -0.603124
  12 C :   -0.134098
  13 H :    0.075268
  14 H :    0.016512
  15 H :    0.077723
  16 C :   -0.229615
  17 H :    0.041344
  18 H :    0.071321
  19 H :    0.064503
  20 C :   -0.604911
  21 H :    0.060434
  22 H :    0.069634
  23 H :    0.091897
  24 Au:   -0.290329
  25 P :    0.063798
  26 H :    0.099139
  27 H :    0.099275
  28 H :    0.100416
Sum of atomic charges:    1.0000000

--------------------------------
MULLIKEN REDUCED ORBITAL CHARGES
--------------------------------
  0 C s       :     3.198517  s :     3.198517
      pz      :     0.907155  p :     2.246786
      px      :     0.798101
      py      :     0.541530
      dz2     :    -0.014252  d :    -0.024237
      dxz     :     0.004773
      dyz     :     0.016588
      dx2y2   :     0.041372
      dxy     :    -0.072718
      f0      :     0.001410  f :     0.009304
      f+1     :     0.000673
      f-1     :     0.001194
      f+2     :     0.000876
      f-2     :     0.001057
      f+3     :     0.001923
      f-3     :     0.002170
  1 C s       :     4.066548  s :     4.066548
      pz      :     1.152066  p :     2.780102
      px      :     0.588409
      py      :     1.039627
      dz2     :     0.015581  d :     0.056741
      dxz     :     0.010405
      dyz     :    -0.007397
      dx2y2   :     0.091895
      dxy     :    -0.053744
      f0      :     0.001345  f :     0.010638
      f+1     :     0.000872
      f-1     :     0.001257
      f+2     :     0.000597
      f-2     :     0.001728
      f+3     :     0.002250
      f-3     :     0.002589
  2 C s       :     3.261492  s :     3.261492
      pz      :     0.989695  p :     2.971314
      px      :     1.007068
      py      :     0.974551
      dz2     :     0.014158  d :     0.063488
      dxz     :     0.014074
      dyz     :     0.007092
      dx2y2   :     0.005418
      dxy     :     0.022747
      f0      :     0.000310  f :     0.004012
      f+1     :     0.000603
      f-1     :     0.000523
      f+2     :     0.000467
      f-2     :     0.000355
      f+3     :     0.000862
      f-3     :     0.000893
  3 H s       :     0.932624  s :     0.932624
      pz      :    -0.000265  p :     0.032182
      px      :     0.029678
      py      :     0.002768
      dz2     :     0.000072  d :     0.001586
      dxz     :     0.000551
      dyz     :     0.000080
      dx2y2   :     0.000488
      dxy     :     0.000394
  4 H s       :     0.880488  s :     0.880488
      pz      :     0.016429  p :     0.024752
      px      :     0.000279
      py      :     0.008043
      dz2     :     0.000548  d :     0.001577
      dxz     :     0.000226
      dyz     :     0.000251
      dx2y2   :     0.000352
      dxy     :     0.000202
  5 H s       :     0.881442  s :     0.881442
      pz      :     0.019077  p :     0.022372
      px      :    -0.003885
      py      :     0.007181
      dz2     :     0.000479  d :     0.001571
      dxz     :     0.000334
      dyz     :     0.000462
      dx2y2   :     0.000176
      dxy     :     0.000120
  6 C s       :     2.223117  s :     2.223117
      pz      :     0.388322  p :     1.258179
      px      :     0.376779
      py      :     0.493077
      dz2     :     0.147911  d :     0.054333
      dxz     :     0.035321
      dyz     :    -0.032046
      dx2y2   :    -0.074239
      dxy     :    -0.022613
      f0      :     0.001786  f :     0.014430
      f+1     :     0.003096
      f-1     :     0.001665
      f+2     :     0.001977
      f-2     :     0.001347
      f+3     :     0.002190
      f-3     :     0.002369
  7 O s       :     3.997716  s :     3.997716
      pz      :     1.700048  p :     4.457234
      px      :     1.301096
      py      :     1.456090
      dz2     :     0.006221  d :     0.037361
      dxz     :     0.008007
      dyz     :     0.013303
      dx2y2   :     0.010449
      dxy     :    -0.000619
      f0      :     0.000304  f :     0.002112
      f+1     :     0.000289
      f-1     :     0.000206
      f+2     :     0.000271
      f-2     :     0.000177
      f+3     :     0.000448
      f-3     :     0.000417
  8 C s       :     3.080136  s :     3.080136
      pz      :     0.683792  p :     1.932515
      px      :     0.670004
      py      :     0.578719
      dz2     :     0.007827  d :     0.326756
      dxz     :     0.023669
      dyz     :     0.091040
      dx2y2   :     0.111762
      dxy     :     0.092457
      f0      :     0.002497  f :     0.026042
      f+1     :     0.001509
      f-1     :     0.001880
      f+2     :     0.001944
      f-2     :     0.004163
      f+3     :     0.004638
      f-3     :     0.009411
  9 O s       :     4.057745  s :     4.057745
      pz      :     1.480453  p :     4.467820
      px      :     1.540366
      py      :     1.447001
      dz2     :     0.004057  d :     0.036552
      dxz     :     0.007345
      dyz     :     0.011401
      dx2y2   :     0.002562
      dxy     :     0.011188
      f0      :     0.000195  f :     0.001874
      f+1     :     0.000105
      f-1     :     0.000217
      f+2     :     0.000115
      f-2     :     0.000341
      f+3     :     0.000383
      f-3     :     0.000518
 10 C s       :     3.473443  s :     3.473443
      pz      :     0.477491  p :     1.948989
      px      :     0.751473
      py      :     0.720026
      dz2     :     0.047424  d :     0.231330
      dxz     :     0.109345
      dyz     :    -0.003912
      dx2y2   :     0.021508
      dxy     :     0.056965
      f0      :     0.001462  f :     0.018204
      f+1     :     0.003844
      f-1     :     0.001613
      f+2     :     0.003033
      f-2     :     0.002466
      f+3     :     0.002671
      f-3     :     0.003116
 11 O s       :     4.108098  s :     4.108098
      pz      :     1.577810  p :     4.452488
      px      :     1.291647
      py      :     1.583031
      dz2     :     0.005576  d :     0.040627
      dxz     :     0.008959
      dyz     :     0.005902
      dx2y2   :     0.009622
      dxy     :     0.010568
      f0      :     0.000136  f :     0.001912
      f+1     :     0.000437
      f-1     :     0.000084
      f+2     :     0.000266
      f-2     :     0.000265
      f+3     :     0.000415
      f-3     :     0.000309
 12 C s       :     3.069270  s :     3.069270
      pz      :     0.959314  p :     2.989007
      px      :     1.011206
      py      :     1.018487
      dz2     :     0.007345  d :     0.072052
      dxz     :     0.017631
      dyz     :     0.018827
      dx2y2   :     0.014138
      dxy     :     0.014111
      f0      :     0.000482  f :     0.003769
      f+1     :     0.000584
      f-1     :     0.000570
      f+2     :     0.000710
      f-2     :     0.000729
      f+3     :     0.000258
      f-3     :     0.000436
 13 H s       :     0.899729  s :     0.899729
      pz      :     0.012404  p :     0.023386
      px      :    -0.003203
      py      :     0.014185
      dz2     :     0.000524  d :     0.001618
      dxz     :     0.000341
      dyz     :     0.000228
      dx2y2   :     0.000221
      dxy     :     0.000305
 14 H s       :     0.948451  s :     0.948451
      pz      :     0.005941  p :     0.033373
      px      :     0.017308
      py      :     0.010124
      dz2     :     0.000248  d :     0.001663
      dxz     :     0.000261
      dyz     :     0.000355
      dx2y2   :     0.000564
      dxy     :     0.000236
 15 H s       :     0.893439  s :     0.893439
      pz      :     0.009374  p :     0.027218
      px      :     0.008648
      py      :     0.009196
      dz2     :     0.000122  d :     0.001620
      dxz     :     0.000467
      dyz     :     0.000195
      dx2y2   :     0.000424
      dxy     :     0.000412
 16 C s       :     3.170731  s :     3.170731
      pz      :     1.019340  p :     3.009216
      px      :     1.001691
      py      :     0.988185
      dz2     :     0.012663  d :     0.045875
      dxz     :     0.010495
      dyz     :     0.006916
      dx2y2   :     0.006563
      dxy     :     0.009238
      f0      :     0.000282  f :     0.003792
      f+1     :     0.000521
      f-1     :     0.000477
      f+2     :     0.000557
      f-2     :     0.000392
      f+3     :     0.000781
      f-3     :     0.000783
 17 H s       :     0.923987  s :     0.923987
      pz      :     0.004407  p :     0.033025
      px      :     0.005430
      py      :     0.023188
      dz2     :     0.000123  d :     0.001643
      dxz     :     0.000089
      dyz     :     0.000539
      dx2y2   :     0.000389
      dxy     :     0.000503
 18 H s       :     0.900449  s :     0.900449
      pz      :     0.018719  p :     0.026642
      px      :     0.006208
      py      :     0.001715
      dz2     :     0.000517  d :     0.001588
      dxz     :     0.000404
      dyz     :     0.000209
      dx2y2   :     0.000235
      dxy     :     0.000223
 19 H s       :     0.905840  s :     0.905840
      pz      :     0.021771  p :     0.028070
      px      :     0.007609
      py      :    -0.001309
      dz2     :     0.000516  d :     0.001587
      dxz     :     0.000251
      dyz     :     0.000334
      dx2y2   :     0.000309
      dxy     :     0.000178
 20 C s       :     3.342506  s :     3.342506
      pz      :     1.044932  p :     3.128469
      px      :     1.024858
      py      :     1.058680
      dz2     :     0.013037  d :     0.129802
      dxz     :     0.038240
      dyz     :     0.024642
      dx2y2   :     0.026679
      dxy     :     0.027204
      f0      :     0.001159  f :     0.004133
      f+1     :     0.000839
      f-1     :     0.000970
      f+2     :     0.000273
      f-2     :     0.000296
      f+3     :     0.000566
      f-3     :     0.000030
 21 H s       :     0.921465  s :     0.921465
      pz      :    -0.001981  p :     0.016534
      px      :    -0.000038
      py      :     0.018553
      dz2     :     0.000184  d :     0.001568
      dxz     :     0.000175
      dyz     :     0.000411
      dx2y2   :     0.000523
      dxy     :     0.000274
 22 H s       :     0.901991  s :     0.901991
      pz      :     0.002835  p :     0.026738
      px      :     0.026526
      py      :    -0.002622
      dz2     :     0.000319  d :     0.001636
      dxz     :     0.000459
      dyz     :     0.000083
      dx2y2   :     0.000219
      dxy     :     0.000556
 23 H s       :     0.878579  s :     0.878579
      pz      :     0.008427  p :     0.027931
      px      :    -0.001628
      py      :     0.021131
      dz2     :     0.000423  d :     0.001593
      dxz     :     0.000166
      dyz     :     0.000274
      dx2y2   :     0.000426
      dxy     :     0.000305
 24 Aus       :     3.498769  s :     3.498769
      pz      :     2.030586  p :     6.255751
      px      :     2.151922
      py      :     2.073244
      dz2     :     1.924398  d :     9.519180
      dxz     :     1.933107
      dyz     :     1.978084
      dx2y2   :     1.880900
[...]
      dyz     :     0.118448
      dx2y2   :     0.271116
      dxy     :     0.203476
      f0      :     0.004216  f :     0.048543
      f+1     :     0.003739
      f-1     :     0.005117
      f+2     :     0.002494
      f-2     :     0.006865
      f+3     :     0.012691
      f-3     :     0.013421
  2 C s       :     2.639278  s :     2.639278
      pz      :     0.923449  p :     2.701099
      px      :     0.928421
      py      :     0.849229
      dz2     :     0.080388  d :     0.490416
      dxz     :     0.059233
      dyz     :     0.097122
      dx2y2   :     0.108661
      dxy     :     0.145012
      f0      :     0.002276  f :     0.033581
      f+1     :     0.005306
      f-1     :     0.005126
      f+2     :     0.003633
      f-2     :     0.004063
      f+3     :     0.005750
      f-3     :     0.007427
  3 H s       :     0.685364  s :     0.685364
      pz      :     0.074917  p :     0.290409
      px      :     0.135018
      py      :     0.080474
      dz2     :     0.002707  d :     0.029470
      dxz     :     0.008333
      dyz     :     0.001280
      dx2y2   :     0.008462
      dxy     :     0.008688
  4 H s       :     0.694855  s :     0.694855
      pz      :     0.105469  p :     0.280646
      px      :     0.093132
      py      :     0.082044
      dz2     :     0.008217  d :     0.029317
      dxz     :     0.006583
      dyz     :     0.005632
      dx2y2   :     0.004784
      dxy     :     0.004101
  5 H s       :     0.697275  s :     0.697275
      pz      :     0.120215  p :     0.280532
      px      :     0.087100
      py      :     0.073217
      dz2     :     0.009903  d :     0.029295
      dxz     :     0.008265
      dyz     :     0.006809
      dx2y2   :     0.002375
      dxy     :     0.001943
  6 C s       :     2.583498  s :     2.583498
      pz      :     0.873775  p :     2.442913
      px      :     0.714444
      py      :     0.854694
      dz2     :     0.260805  d :     1.223670
      dxz     :     0.252773
      dyz     :     0.241461
      dx2y2   :     0.224538
      dxy     :     0.244093
      f0      :     0.010081  f :     0.094407
      f+1     :     0.017626
      f-1     :     0.010299
      f+2     :     0.015520
      f-2     :     0.011125
      f+3     :     0.015498
      f-3     :     0.014257
  7 O s       :     3.159438  s :     3.159438
      pz      :     1.480369  p :     4.224605
      px      :     1.299978
      py      :     1.444258
      dz2     :     0.078501  d :     0.525250
      dxz     :     0.090536
      dyz     :     0.067717
      dx2y2   :     0.137295
      dxy     :     0.151201
      f0      :     0.000580  f :     0.007283
      f+1     :     0.000864
      f-1     :     0.000589
      f+2     :     0.001005
      f-2     :     0.000485
      f+3     :     0.001609
      f-3     :     0.002151
  8 C s       :     2.615500  s :     2.615500
      pz      :     0.627465  p :     2.324340
      px      :     0.873978
      py      :     0.822897
      dz2     :     0.125208  d :     1.313423
      dxz     :     0.175859
      dyz     :     0.234522
      dx2y2   :     0.419129
      dxy     :     0.358705
      f0      :     0.010509  f :     0.162956
      f+1     :     0.007783
      f-1     :     0.015458
      f+2     :     0.011766
      f-2     :     0.028173
      f+3     :     0.030232
      f-3     :     0.059035
  9 O s       :     3.276318  s :     3.276318
      pz      :     1.318220  p :     4.237996
      px      :     1.426968
      py      :     1.492808
      dz2     :     0.042750  d :     0.322019
      dxz     :     0.035177
      dyz     :     0.039381
      dx2y2   :     0.101464
      dxy     :     0.103248
      f0      :     0.000511  f :     0.006535
      f+1     :     0.000335
      f-1     :     0.000759
      f+2     :     0.000358
      f-2     :     0.000858
      f+3     :     0.001695
      f-3     :     0.002019
 10 C s       :     2.648951  s :     2.648951
      pz      :     0.787964  p :     2.367913
      px      :     0.834781
      py      :     0.745169
      dz2     :     0.247415  d :     1.200266
      dxz     :     0.278643
      dyz     :     0.167190
      dx2y2   :     0.222738
      dxy     :     0.284280
      f0      :     0.009508  f :     0.110714
      f+1     :     0.022488
      f-1     :     0.009788
      f+2     :     0.021074
      f-2     :     0.011919
      f+3     :     0.016015
      f-3     :     0.019922
 11 O s       :     3.325807  s :     3.325807
      pz      :     1.438777  p :     4.315347
      px      :     1.443050
      py      :     1.433520
      dz2     :     0.045462  d :     0.285794
      dxz     :     0.077425
      dyz     :     0.023175
      dx2y2   :     0.055784
      dxy     :     0.083948
      f0      :     0.000591  f :     0.006500
      f+1     :     0.001296
      f-1     :     0.000195
      f+2     :     0.001175
      f-2     :     0.000787
      f+3     :     0.001094
      f-3     :     0.001362
 12 C s       :     2.622550  s :     2.622550
      pz      :     0.871217  p :     2.676799
      px      :     0.909507
      py      :     0.896075
      dz2     :     0.071408  d :     0.426756
      dxz     :     0.090954
      dyz     :     0.122048
      dx2y2   :     0.050614
      dxy     :     0.091732
      f0      :     0.004176  f :     0.031639
      f+1     :     0.005453
      f-1     :     0.004784
      f+2     :     0.005105
      f-2     :     0.004843
      f+3     :     0.002726
      f-3     :     0.004552
 13 H s       :     0.680728  s :     0.680728
      pz      :     0.095682  p :     0.276835
      px      :     0.077940
      py      :     0.103213
      dz2     :     0.007372  d :     0.029479
      dxz     :     0.005104
      dyz     :     0.007726
      dx2y2   :     0.004141
      dxy     :     0.005135
 14 H s       :     0.689501  s :     0.689501
      pz      :     0.076373  p :     0.271259
      px      :     0.095935
      py      :     0.098950
      dz2     :     0.003961  d :     0.029860
      dxz     :     0.004753
      dyz     :     0.005907
      dx2y2   :     0.008197
      dxy     :     0.007043
 15 H s       :     0.677457  s :     0.677457
      pz      :     0.075487  p :     0.278480
      px      :     0.117419
      py      :     0.085574
      dz2     :     0.003201  d :     0.029612
      dxz     :     0.007190
      dyz     :     0.002622
      dx2y2   :     0.008206
      dxy     :     0.008392
 16 C s       :     2.620938  s :     2.620938
      pz      :     0.911435  p :     2.674486
      px      :     0.836923
      py      :     0.926127
      dz2     :     0.058783  d :     0.395864
      dxz     :     0.083138
      dyz     :     0.066182
      dx2y2   :     0.100228
      dxy     :     0.087533
      f0      :     0.002635  f :     0.031681
      f+1     :     0.005029
      f-1     :     0.004433
      f+2     :     0.003909
      f-2     :     0.003709
      f+3     :     0.006958
      f-3     :     0.005008
 17 H s       :     0.688933  s :     0.688933
      pz      :     0.075166  p :     0.268771
      px      :     0.069578
      py      :     0.124028
      dz2     :     0.003152  d :     0.029715
      dxz     :     0.001215
      dyz     :     0.008759
      dx2y2   :     0.008130
      dxy     :     0.008458
 18 H s       :     0.685424  s :     0.685424
      pz      :     0.107508  p :     0.270552
      px      :     0.066531
      py      :     0.096513
      dz2     :     0.008860  d :     0.029505
      dxz     :     0.005592
      dyz     :     0.007735
      dx2y2   :     0.003832
      dxy     :     0.003486
 19 H s       :     0.682018  s :     0.682018
      pz      :     0.107964  p :     0.268396
      px      :     0.078848
      py      :     0.081584
      dz2     :     0.008393  d :     0.029368
      dxz     :     0.006987
      dyz     :     0.006522
      dx2y2   :     0.004066
      dxy     :     0.003400
 20 C s       :     2.613231  s :     2.613231
      pz      :     0.813537  p :     2.632871
      px      :     0.911091
      py      :     0.908244
      dz2     :     0.120060  d :     0.474054
      dxz     :     0.101196
      dyz     :     0.113448
      dx2y2   :     0.062409
      dxy     :     0.076940
      f0      :     0.008588  f :     0.031601
      f+1     :     0.004270
      f-1     :     0.005713
      f+2     :     0.003759
      f-2     :     0.003668
      f+3     :     0.005358
      f-3     :     0.000246
 21 H s       :     0.685623  s :     0.685623
      pz      :     0.065030  p :     0.264670
      px      :     0.088264
      py      :     0.111376
      dz2     :     0.003303  d :     0.029419
      dxz     :     0.002643
      dyz     :     0.006447
      dx2y2   :     0.009104
      dxy     :     0.007923
 22 H s       :     0.675971  s :     0.675971
      pz      :     0.077379  p :     0.286288
      px      :     0.130727
      py      :     0.078183
      dz2     :     0.004207  d :     0.029927
      dxz     :     0.008779
      dyz     :     0.001109
      dx2y2   :     0.007002
      dxy     :     0.008830
 23 H s       :     0.681609  s :     0.681609
      pz      :     0.076182  p :     0.273132
      px      :     0.085749
      py      :     0.111200
      dz2     :     0.005035  d :     0.029579
      dxz     :     0.003296
      dyz     :     0.006877
      dx2y2   :     0.007454
      dxy     :     0.006918
 24 Aus       :     2.408427  s :     2.408427
      pz      :     2.031486  p :     6.402770
      px      :     2.271496
      py      :     2.099787
      dz2     :     1.944161  d :     9.531904
      dxz     :     1.905367
      dyz     :     1.955331
      dx2y2   :     1.879360
      dxy     :     1.847686
      f0      :     0.002243  f :     0.038398
      f+1     :     0.008344
      f-1     :     0.002756
      f+2     :     0.001236
      f-2     :     0.002427
      f+3     :     0.005106
      f-3     :     0.016285
      g0      :     0.000047  g :     0.000557
      g+1     :     0.000049
      g-1     :     0.000015
      g+2     :     0.000041
      g-2     :     0.000075
      g+3     :     0.000010
      g-3     :     0.000043
      g+4     :     0.000118
      g-4     :     0.000158
 25 P s       :     4.797528  s :     4.797528
      pz      :     2.854765  p :     8.764772
      px      :     3.016436
      py      :     2.893570
      dz2     :     0.083621  d :     0.526208
      dxz     :     0.063118
      dyz     :     0.142696
      dx2y2   :     0.080530
      dxy     :     0.156244
      f0      :     0.003828  f :     0.059251
      f+1     :     0.008593
      f-1     :     0.009157
      f+2     :     0.009466
      f-2     :     0.007118
      f+3     :     0.009523
      f-3     :     0.011565
 26 H s       :     0.852241  s :     0.852241
      pz      :     0.107816  p :     0.296027
      px      :     0.082469
      py      :     0.105741
      dz2     :     0.002623  d :     0.012180
      dxz     :     0.001906
      dyz     :     0.004326
      dx2y2   :     0.001470
      dxy     :     0.001855
 27 H s       :     0.853013  s :     0.853013
      pz      :     0.059083  p :     0.299219
      px      :     0.141163
      py      :     0.098973
      dz2     :     0.001562  d :     0.012164
      dxz     :     0.001511
      dyz     :     0.001204
      dx2y2   :     0.003497
      dxy     :     0.004390
 28 H s       :     0.851261  s :     0.851261
      pz      :     0.121663  p :     0.295495
      px      :     0.082637
      py      :     0.091195
      dz2     :     0.003314  d :     0.012185
      dxz     :     0.002519
      dyz     :     0.004144
      dx2y2   :     0.000887
      dxy     :     0.001320


                      *****************************
                      * MAYER POPULATION ANALYSIS *
                      *****************************

  NA   - Mulliken gross atomic population
  ZA   - Total nuclear charge
  QA   - Mulliken gross atomic charge
  VA   - Mayer's total valence
  BVA  - Mayer's bonded valence
  FA   - Mayer's free valence

  ATOM       NA         ZA         QA         VA         BVA        FA
  0 C      5.4304     6.0000     0.5696     2.8190     2.8190    -0.0000
  1 C      6.9140     6.0000    -0.9140     1.8568     1.8568    -0.0000
  2 C      6.3003     6.0000    -0.3003     3.9539     3.9539    -0.0000
  3 H      0.9664     1.0000     0.0336     1.0449     1.0449    -0.0000
  4 H      0.9068     1.0000     0.0932     0.9787     0.9787    -0.0000
  5 H      0.9054     1.0000     0.0946     0.9849     0.9849    -0.0000
  6 C      3.5501     6.0000     2.4499     1.4078     1.4078     0.0000
  7 O      8.4944     8.0000    -0.4944     1.7077     1.7077    -0.0000
  8 C      5.3654     6.0000     0.6346     3.8561     3.8561    -0.0000
  9 O      8.5640     8.0000    -0.5640     1.7772     1.7772    -0.0000
 10 C      5.6720     6.0000     0.3280     3.1436     3.1436     0.0000
 11 O      8.6031     8.0000    -0.6031     1.6370     1.6370     0.0000
 12 C      6.1341     6.0000    -0.1341     4.3473     4.3473    -0.0000
 13 H      0.9247     1.0000     0.0753     0.9920     0.9920     0.0000
 14 H      0.9835     1.0000     0.0165     1.0247     1.0247    -0.0000
 15 H      0.9223     1.0000     0.0777     0.9880     0.9880     0.0000
 16 C      6.2296     6.0000    -0.2296     3.8871     3.8871    -0.0000
 17 H      0.9587     1.0000     0.0413     1.0272     1.0272    -0.0000
 18 H      0.9287     1.0000     0.0713     1.0037     1.0037     0.0000
 19 H      0.9355     1.0000     0.0645     1.0040     1.0040     0.0000
 20 C      6.6049     6.0000    -0.6049     4.1786     4.1786    -0.0000
 21 H      0.9396     1.0000     0.0604     0.9731     0.9731     0.0000
 22 H      0.9304     1.0000     0.0696     1.0401     1.0401    -0.0000
 23 H      0.9081     1.0000     0.0919     0.9883     0.9883    -0.0000
 24 Au    19.2903    19.0000    -0.2903     1.8939     1.8939    -0.0000
 25 P     14.9362    15.0000     0.0638     3.8163     3.8163     0.0000
 26 H      0.9009     1.0000     0.0991     0.9656     0.9656     0.0000
 27 H      0.9007     1.0000     0.0993     0.9508     0.9508     0.0000
 28 H      0.8996     1.0000     0.1004     0.9665     0.9665     0.0000

  Mayer bond orders larger than 0.100000
B(  0-C ,  1-C ) :   0.9865 B(  0-C ,  2-C ) :   1.3028 B(  0-C , 24-Au) :   0.5555 
B(  1-C ,  2-C ) :  -0.3423 B(  1-C ,  6-C ) :   0.3034 B(  1-C , 10-C ) :   0.2926 
B(  1-C , 20-C ) :   0.3012 B(  1-C , 24-Au) :   0.1820 B(  2-C ,  3-H ) :   1.0424 
B(  2-C ,  4-H ) :   0.9180 B(  2-C ,  5-H ) :   0.9230 B(  6-C ,  7-O ) :   0.2031 
B(  6-C ,  8-C ) :  -0.1175 B(  6-C , 10-C ) :   0.3167 B(  6-C , 20-C ) :   0.7177 
B(  7-O ,  8-C ) :   1.0861 B(  7-O ,  9-O ) :   0.1266 B(  7-O , 10-C ) :   0.1050 
B(  7-O , 20-C ) :   0.1974 B(  8-C ,  9-O ) :   1.5266 B(  8-C , 16-C ) :   1.1797 
B( 10-C , 11-O ) :   1.2567 B( 10-C , 12-C ) :   1.2823 B( 11-O , 12-C ) :   0.1294 
B( 12-C , 13-H ) :   0.8996 B( 12-C , 14-H ) :   1.0571 B( 12-C , 15-H ) :   0.8774 
B( 16-C , 17-H ) :   0.9982 B( 16-C , 18-H ) :   0.9418 B( 16-C , 19-H ) :   0.9158 
B( 20-C , 21-H ) :   0.9934 B( 20-C , 22-H ) :   0.9542 B( 20-C , 23-H ) :   0.9410 
B( 24-Au, 25-P ) :   1.0348 B( 25-P , 26-H ) :   0.9342 B( 25-P , 27-H ) :   0.9305 
B( 25-P , 28-H ) :   0.9354 

-------
TIMINGS
-------

Total SCF time: 0 days 0 hours 5 min 49 sec 

Total time                  ....     349.608 sec
Sum of individual times     ....     348.677 sec  ( 99.7%)

Fock matrix formation       ....     342.342 sec  ( 97.9%)
  XC integration            ....       9.367 sec  (  2.7% of F)
    Basis function eval.    ....       0.872 sec  (  9.3% of XC)
    Density eval.           ....       2.900 sec  ( 31.0% of XC)
    XC-Functional eval.     ....       0.104 sec  (  1.1% of XC)
    XC-Potential eval.      ....       4.476 sec  ( 47.8% of XC)
Diagonalization             ....       2.329 sec  (  0.7%)
Density matrix formation    ....       0.109 sec  (  0.0%)
Population analysis         ....       0.178 sec  (  0.1%)
Initial guess               ....       1.788 sec  (  0.5%)
Orbital Transformation      ....       0.000 sec  (  0.0%)
Orbital Orthonormalization  ....       0.000 sec  (  0.0%)
DIIS solution               ....       1.226 sec  (  0.4%)
Grid generation             ....       0.704 sec  (  0.2%)


-------------------------------------------------------------------------------
                          DFT DISPERSION CORRECTION                            
                                                                               
                              DFTD3 V3.1  Rev 1                                
                          USING Becke-Johnson damping                          
-------------------------------------------------------------------------------
The TPSSH functional is recognized
Active option DFTDOPT                   ...         4   

molecular C6(AA) [au] = 11646.249776 


            DFT-D V3
 parameters
 s6 scaling factor         :     1.0000 
 a1 scaling factor         :     0.4529 
 s8 scaling factor         :     2.2382 
 a2 scaling factor         :     4.6550 
 ad hoc parameters k1-k3   :    16.0000     1.3333    -4.0000 

 Edisp/kcal,au: -26.248961586784  -0.041830378459 
 E6   /kcal   : -11.915220784 
 E8   /kcal   : -14.333740802 
 % E8         :  54.606887039 

-------------------------   ----------------
Dispersion correction           -0.041830378
-------------------------   ----------------


-------------------------   --------------------
FINAL SINGLE POINT ENERGY     -1054.806580762622
-------------------------   --------------------


                            ***************************************
                            *     ORCA property calculations      *
                            ***************************************

                                    ---------------------
                                    Active property flags
                                    ---------------------
   (+) Dipole Moment


------------------------------------------------------------------------------
                       ORCA ELECTRIC PROPERTIES CALCULATION
------------------------------------------------------------------------------

Dipole Moment Calculation                       ... on
Quadrupole Moment Calculation                   ... off
Polarizability Calculation                      ... off
GBWName                                         ... TMB29_T1.gbw
Electron density file                           ... TMB29_T1.scfp
The origin for moment calculation is the CENTER OF MASS  = (-0.362876, -0.065725 -0.005009)

-------------
DIPOLE MOMENT
-------------
                                X             Y             Z
Electronic contribution:   -212.00059     -43.02715      -5.71953
Nuclear contribution   :    212.91002      43.46471       5.39034
                        -----------------------------------------
Total Dipole Moment    :      0.90943       0.43756      -0.32919
                        -----------------------------------------
Magnitude (a.u.)       :      1.06155
Magnitude (Debye)      :      2.69824



--------------------
Rotational spectrum 
--------------------
 
Rotational constants in cm-1:     0.027720     0.008314     0.006995 
Rotational constants in MHz :   831.016337   249.254276   209.717578 

 Dipole components along the rotational axes: 
x,y,z [a.u.] :     0.912246    -0.427035    -0.335166 
x,y,z [Debye]:     2.318745    -1.085436    -0.851924 

 

Timings for individual modules:

Sum of individual times         ...      353.438 sec (=   5.891 min)
GTO integral calculation        ...        3.442 sec (=   0.057 min)   1.0 %
SCF iterations                  ...      349.996 sec (=   5.833 min)  99.0 %
                             ****ORCA TERMINATED NORMALLY****
TOTAL RUN TIME: 0 days 0 hours 5 minutes 54 seconds 99 msec
