
                                 *****************
                                 * O   R   C   A *
                                 *****************

           --- An Ab Initio, DFT and Semiempirical electronic structure package ---

                  #######################################################
                  #                        -***-                        #
                  #          Department of theory and spectroscopy      #
                  #               Directorship: Frank Neese             #
                  #        Max Planck Institute fuer Kohlenforschung    #
                  #                Kaiser Wilhelm Platz 1               #
                  #                 D-45470 Muelheim/Ruhr               #
                  #                      Germany                        #
                  #                                                     #
                  #                  All rights reserved                #
                  #                        -***-                        #
                  #######################################################


                         Program Version 4.2.0 -  RELEASE  -


 With contributions from (in alphabetic order):
   Daniel Aravena         : Magnetic Suceptibility
   Michael Atanasov       : Ab Initio Ligand Field Theory (pilot matlab implementation)
   Alexander A. Auer      : GIAO ZORA, VPT2
   Ute Becker             : Parallelization
   Giovanni Bistoni       : ED, misc. LED, open-shell LED, HFLED
   Martin Brehm           : Molecular dynamics
   Dmytro Bykov           : SCF Hessian
   Vijay G. Chilkuri      : MRCI spin determinant printing, contributions to CSF-ICE
   Dipayan Datta          : RHF DLPNO-CCSD density
   Achintya Kumar Dutta   : EOM-CC, STEOM-CC
   Dmitry Ganyushin       : Spin-Orbit,Spin-Spin,Magnetic field MRCI
   Miquel Garcia          : C-PCM Hessian, Gaussian charge scheme
   Yang Guo               : DLPNO-NEVPT2, CIM, IAO-localization
   Andreas Hansen         : Spin unrestricted coupled pair/coupled cluster methods
   Benjamin Helmich-Paris : CASSCF linear response (MC-RPA)
   Lee Huntington         : MR-EOM, pCC
   Robert Izsak           : Overlap fitted RIJCOSX, COSX-SCS-MP3, EOM
   Christian Kollmar      : KDIIS, OOCD, Brueckner-CCSD(T), CCSD density
   Simone Kossmann        : Meta GGA functionals, TD-DFT gradient, OOMP2, MP2 Hessian
   Martin Krupicka        : AUTO-CI
   Lucas Lang             : DCDCAS
   Dagmar Lenk            : GEPOL surface, SMD
   Dimitrios Liakos       : Extrapolation schemes; Compound Job, initial MDCI parallelization
   Dimitrios Manganas     : Further ROCIS development; embedding schemes
   Dimitrios Pantazis     : SARC Basis sets
   Taras Petrenko         : DFT Hessian,TD-DFT gradient, ASA, ECA, R-Raman, ABS, FL, XAS/XES, NRVS
   Peter Pinski           : DLPNO-MP2, DLPNO-MP2 Gradient
   Christoph Reimann      : Effective Core Potentials
   Marius Retegan         : Local ZFS, SOC
   Christoph Riplinger    : Optimizer, TS searches, QM/MM, DLPNO-CCSD(T), (RO)-DLPNO pert. Triples
   Tobias Risthaus        : Range-separated hybrids, TD-DFT gradient, RPA, STAB
   Michael Roemelt        : Original ROCIS implementation
   Masaaki Saitow         : Open-shell DLPNO-CCSD energy and density
   Barbara Sandhoefer     : DKH picture change effects
   Avijit Sen             : IP-ROCIS
   Kantharuban Sivalingam : CASSCF convergence, NEVPT2, FIC-MRCI
   Bernardo de Souza      : ESD, SOC TD-DFT
   Georgi Stoychev        : AutoAux, RI-MP2 NMR
   Willem Van den Heuvel  : Paramagnetic NMR
   Boris Wezisla          : Elementary symmetry handling
   Frank Wennmohs         : Technical directorship


 We gratefully acknowledge several colleagues who have allowed us to
 interface, adapt or use parts of their codes:
   Stefan Grimme, W. Hujo, H. Kruse,             : VdW corrections, initial TS optimization,
                  C. Bannwarth                     DFT functionals, gCP, sTDA/sTD-DF
   Ed Valeev, F. Pavosevic, A. Kumar             : LibInt (2-el integral package), F12 methods
   Garnet Chan, S. Sharma, J. Yang, R. Olivares  : DMRG
   Ulf Ekstrom                                   : XCFun DFT Library
   Mihaly Kallay                                 : mrcc  (arbitrary order and MRCC methods)
   Andreas Klamt, Michael Diedenhofen            : otool_cosmo (COSMO solvation model)
   Jiri Pittner, Ondrej Demel                    : Mk-CCSD
   Frank Weinhold                                : gennbo (NPA and NBO analysis)
   Christopher J. Cramer and Donald G. Truhlar   : smd solvation model
   Lars Goerigk                                  : TD-DFT with DH, B97 family of functionals
   V. Asgeirsson, H. Jonsson                     : NEB implementation
   FAccTs GmbH                                   : IRC, NEB, NEB-TS, Multilevel, MM, QM/MM, CI optimization
   S Lehtola, MJT Oliveira, MAL Marques          : LibXC Library


 Your calculation uses the libint2 library for the computation of 2-el integrals
 For citations please refer to: http://libint.valeyev.net

 Your ORCA version has been built with support for libXC version: 4.2.3
 For citations please refer to: https://tddft.org/programs/libxc/

 This ORCA versions uses:
   CBLAS   interface :  Fast vector & matrix operations
   LAPACKE interface :  Fast linear algebra routines
   SCALAPACK package :  Parallel linear algebra routines


Your calculation utilizes the atom-pairwise dispersion correction
with the Becke-Johnson damping scheme (D3BJ)
Cite in your paper:
S.Grimme, S.Ehrlich, L.Goerigk, J Comput Chem, (2011), 32, 1456–1465 
S.Grimme, J.Antony, S.Ehrlich and H.Krieg, J.Chem.Phys., 132, (2010), 154104 
   

----- Orbital basis set information -----
Your calculation utilizes the basis: def2-TZVPPD
   F. Weigend and R. Ahlrichs, Phys. Chem. Chem. Phys. 7, 3297 (2005).
   D. Rappoport and F. Furche, J. Chem. Phys. 133 134105 (2010).

----- AuxJK basis set information -----
Your calculation utilizes the auxiliary basis: def2/JK
   H-Ba, Hf-Rn: F. Weigend, J. Comput. Chem. 29, 167 (2008).

cite the ECPs for Ir [Def2-ECP] as follows:
Ce-Yb(ecp-28): M. Dolg, H. Stoll, H.Preuss, J. Chem. Phys., 1989, 90, 1730-1734.
Y-Cd(ecp-28), Hf-Hg(ecp-46): D. Andrae,U. Haeussermann, M. Dolg, H. Stoll, H. Preuss, Theor. Chim. Acta, 1990, 77, 123-141.
In-Sb(ecp-28), Tl-Bi(ecp-46): B. Metz, H. Stoll, M. Dolg, J. Chem. Phys., 2000, 113, 2563-2569.
Te-Xe(ecp-28), Po-Rn(ecp-46): K. A. Peterson, D. Figgen, E. Goll, H. Stoll, M. Dolg, J. Chem. Phys., 2003, 119, 11113-11123.
Rb(ecp-28), Cs(ecp-46): T. Leininger, A. Nicklass, W. Kuechle, H. Stoll, M. Dolg, A. Bergner, Chem. Phys. Lett., 1996, 255, 274-280.
Sr(ecp-28), Ba(ecp-46): M. Kaupp, P. V. Schleyer, H. Stoll and H. Preuss, J. Chem. Phys., 1991, 94, 1360-1366.
La(ecp-46): M. Dolg, H. Stoll, A. Savin, H. Preuss, Theor. Chim. Acta, 1989, 75, 173-194.
Lu(ecp-28): X. Cao, M. Dolg, J. Chem. Phys., 2001, 115, 7348-7355.

ECP parameters for Ir [Def2-ECP] have been obtained from:
TURBOMOLE (7.0.2)

================================================================================
                                        WARNINGS
                       Please study these warnings very carefully!
================================================================================


INFO   : the flag for use of LIBINT has been found!

================================================================================
                                       INPUT FILE
================================================================================
NAME = TMB31_T1.in
|  1> #
|  2> # TMB31_T1 TPSSh-D3BJ/Def2-TZVPPD
|  3> #
|  4> ! tpssh d3bj def2-tzvppd def2/jk grid4 nofinalgrid
|  5> 
|  6> *xyz 1 1
|  7> Ir       0.050361    0.056236   -0.150076 
|  8> C        0.978842   -1.302743   -1.517387 
|  9> C       -1.864665    1.028637    0.563211 
| 10> C       -1.426558    0.128925    1.555248 
| 11> C       -1.389999   -1.187568    0.972706 
| 12> C       -1.852948   -1.076424   -0.368776 
| 13> C       -2.115280    0.291316   -0.640524 
| 14> H        0.395138   -1.326753   -2.435403 
| 15> H        2.003015   -1.039631   -1.784042 
| 16> H        0.978935   -2.299217   -1.075482 
| 17> H       -1.949414   -1.889112   -1.072248 
| 18> H       -2.488115    0.695321   -1.568578 
| 19> H       -1.982151    2.094988    0.682898 
| 20> H       -1.179131    0.379256    2.575311 
| 21> H       -1.144965   -2.105263    1.484015 
| 22> C        0.981659    2.033847   -0.552795 
| 23> H        0.609290    0.819803   -1.428069 
| 24> H        0.362656    2.677374   -1.174650 
| 25> H        1.003724    2.445002    0.454509 
| 26> H        1.994491    2.026607   -0.953376 
| 27> P        1.998129   -0.331589    0.938590 
| 28> H        2.205383    0.285042    2.190624 
| 29> H        2.302734   -1.672090    1.247762 
| 30> H        3.172367    0.056392    0.263634 
| 31> *
| 32> 
| 33> %maxcore 5000
| 34> 
| 35> %pal
| 36> nprocs = 24
| 37> end
| 38> 
| 39> 
| 40>                          ****END OF INPUT****
================================================================================

                       ****************************
                       * Single Point Calculation *
                       ****************************

---------------------------------
CARTESIAN COORDINATES (ANGSTROEM)
---------------------------------
  Ir     0.050361    0.056236   -0.150076
  C      0.978842   -1.302743   -1.517387
  C     -1.864665    1.028637    0.563211
  C     -1.426558    0.128925    1.555248
  C     -1.389999   -1.187568    0.972706
  C     -1.852948   -1.076424   -0.368776
  C     -2.115280    0.291316   -0.640524
  H      0.395138   -1.326753   -2.435403
  H      2.003015   -1.039631   -1.784042
  H      0.978935   -2.299217   -1.075482
  H     -1.949414   -1.889112   -1.072248
  H     -2.488115    0.695321   -1.568578
  H     -1.982151    2.094988    0.682898
  H     -1.179131    0.379256    2.575311
  H     -1.144965   -2.105263    1.484015
  C      0.981659    2.033847   -0.552795
  H      0.609290    0.819803   -1.428069
  H      0.362656    2.677374   -1.174650
  H      1.003724    2.445002    0.454509
  H      1.994491    2.026607   -0.953376
  P      1.998129   -0.331589    0.938590
  H      2.205383    0.285042    2.190624
  H      2.302734   -1.672090    1.247762
  H      3.172367    0.056392    0.263634

----------------------------
CARTESIAN COORDINATES (A.U.)
----------------------------
  NO LB      ZA    FRAG     MASS         X           Y           Z
   0 Ir   17.0000*   0   192.220    0.095168    0.106271   -0.283603
   1 C     6.0000    0    12.011    1.849743   -2.461827   -2.867446
   2 C     6.0000    0    12.011   -3.523706    1.943842    1.064315
   3 C     6.0000    0    12.011   -2.695804    0.243633    2.938993
   4 C     6.0000    0    12.011   -2.626717   -2.244178    1.838148
   5 C     6.0000    0    12.011   -3.501564   -2.034147   -0.696886
   6 C     6.0000    0    12.011   -3.997300    0.550507   -1.210415
   7 H     1.0000    0     1.008    0.746703   -2.507200   -4.602245
   8 H     1.0000    0     1.008    3.785150   -1.964618   -3.371351
   9 H     1.0000    0     1.008    1.849919   -4.344890   -2.032366
  10 H     1.0000    0     1.008   -3.683859   -3.569904   -2.026255
  11 H     1.0000    0     1.008   -4.701856    1.313966   -2.964183
  12 H     1.0000    0     1.008   -3.745723    3.958954    1.290490
  13 H     1.0000    0     1.008   -2.228235    0.716690    4.866632
  14 H     1.0000    0     1.008   -2.163670   -3.978371    2.804382
  15 C     6.0000    0    12.011    1.855067    3.843414   -1.044631
  16 H     1.0000    0     1.008    1.151391    1.549203   -2.698659
  17 H     1.0000    0     1.008    0.685321    5.059504   -2.219767
  18 H     1.0000    0     1.008    1.896763    4.620384    0.858898
  19 H     1.0000    0     1.008    3.769042    3.829732   -1.801620
  20 P    15.0000    0    30.974    3.775917   -0.626612    1.773678
  21 H     1.0000    0     1.008    4.167570    0.538651    4.139679
  22 H     1.0000    0     1.008    4.351537   -3.159792    2.357928
  23 H     1.0000    0     1.008    5.994905    0.106565    0.498196
* core charge reduced due to ECP

--------------------------------
INTERNAL COORDINATES (ANGSTROEM)
--------------------------------
 Ir     0   0   0     0.000000000000     0.00000000     0.00000000
 C      1   0   0     2.139729015675     0.00000000     0.00000000
 C      1   2   0     2.263109946478   147.29684165     0.00000000
 C      3   1   2     1.409097880121    71.60618925   109.95483900
 C      4   3   1     1.440085261814   107.86687635   299.51713212
 C      5   4   3     1.423463635525   107.55290156   358.13589628
 C      6   5   4     1.418935432403   108.41371098     2.61785804
 H      2   1   3     1.088136120149   108.68430622    28.89272371
 H      2   1   3     1.090533423375   114.23846180   149.07972475
 H      2   1   3     1.090064434036   108.75811861   270.61756156
 H      6   5   4     1.079185030143   125.77369162   180.32651451
 H      7   6   5     1.078661301877   126.13625043   180.71690752
 H      3   1   2     1.079459306026   123.47003648   231.36290723
 H      4   3   1     1.079080281471   126.06378854   120.50322017
 H      5   4   3     1.078722701931   126.28049873   183.31563958
 C      1   2   3     2.222710918020   105.51514942   240.74066631
 H     16   1   2     1.542292475885    45.67694378    34.08344470
 H     16   1   2     1.088115506168   113.04101722    99.90861638
 H     16   1   2     1.088207997887   100.19195419   215.15867565
 H     16   1   2     1.089195214544   116.76534690   332.51219958
 P      1   2   3     2.264818330905    79.93455623   160.91820452
 H     21   1   2     1.410949023825   118.55720729   181.75620396
 H     21   1   2     1.409011874545   117.02035915   303.05502782
 H     21   1   2     1.408875345423   116.06190261    61.93680212

---------------------------
INTERNAL COORDINATES (A.U.)
---------------------------
 Ir     0   0   0     0.000000000000     0.00000000     0.00000000
 C      1   0   0     4.043501840431     0.00000000     0.00000000
 C      1   2   0     4.276658009796   147.29684165     0.00000000
 C      3   1   2     2.662809089318    71.60618925   109.95483900
 C      4   3   1     2.721366754325   107.86687635   299.51713212
 C      5   4   3     2.689956432737   107.55290156   358.13589628
 C      6   5   4     2.681399368958   108.41371098     2.61785804
 H      2   1   3     2.056279263508   108.68430622    28.89272371
 H      2   1   3     2.060809510066   114.23846180   149.07972475
 H      2   1   3     2.059923248656   108.75811861   270.61756156
 H      6   5   4     2.039364154797   125.77369162   180.32651451
 H      7   6   5     2.038374451806   126.13625043   180.71690752
 H      3   1   2     2.039882461102   123.47003648   231.36290723
 H      4   3   1     2.039166208494   126.06378854   120.50322017
 H      5   4   3     2.038490481094   126.28049873   183.31563958
 C      1   2   3     4.200314909935   105.51514942   240.74066631
 H     16   1   2     2.914510397831    45.67694378    34.08344470
 H     16   1   2     2.056240308730   113.04101722    99.90861638
 H     16   1   2     2.056415092750   100.19195419   215.15867565
 H     16   1   2     2.058280661865   116.76534690   332.51219958
 P      1   2   3     4.279886388496    79.93455623   160.91820452
 H     21   1   2     2.666307243953   118.55720729   181.75620396
 H     21   1   2     2.662646562334   117.02035915   303.05502782
 H     21   1   2     2.662388559683   116.06190261    61.93680212

---------------------
BASIS SET INFORMATION
---------------------
There are 4 groups of distinct atoms

 Group   1 Type Ir  : 8s8p6d2f1g contracted to 6s5p3d2f1g pattern {311111/41111/411/11/1}
 Group   2 Type C   : 12s6p3d1f contracted to 6s3p3d1f pattern {621111/411/111/1}
 Group   3 Type H   : 5s3p1d contracted to 3s3p1d pattern {311/111/1}
 Group   4 Type P   : 15s9p4d1f contracted to 6s5p4d1f pattern {732111/51111/1111/1}

Atom   0Ir   basis set group =>   1
Atom   1C    basis set group =>   2
Atom   2C    basis set group =>   2
Atom   3C    basis set group =>   2
Atom   4C    basis set group =>   2
Atom   5C    basis set group =>   2
Atom   6C    basis set group =>   2
Atom   7H    basis set group =>   3
Atom   8H    basis set group =>   3
Atom   9H    basis set group =>   3
Atom  10H    basis set group =>   3
Atom  11H    basis set group =>   3
Atom  12H    basis set group =>   3
Atom  13H    basis set group =>   3
Atom  14H    basis set group =>   3
Atom  15C    basis set group =>   2
Atom  16H    basis set group =>   3
Atom  17H    basis set group =>   3
Atom  18H    basis set group =>   3
Atom  19H    basis set group =>   3
Atom  20P    basis set group =>   4
Atom  21H    basis set group =>   3
Atom  22H    basis set group =>   3
Atom  23H    basis set group =>   3
----------------------------------
AUXILIARY/JK BASIS SET INFORMATION
----------------------------------
There are 4 groups of distinct atoms

 Group   1 Type Ir  : 13s12p11d9f5g3h2i contracted to 11s9p9d7f4g3h2i pattern {31111111111/411111111/311111111/3111111/2111/111/11}
 Group   2 Type C   : 14s10p6d2f1g contracted to 10s8p5d1f1g pattern {5111111111/31111111/21111/2/1}
 Group   3 Type H   : 4s2p2d contracted to 2s2p2d pattern {31/11/11}
 Group   4 Type P   : 16s12p10d4f1g contracted to 13s11p9d4f1g pattern {4111111111111/21111111111/211111111/1111/1}

Atom   0Ir   basis set group =>   1
Atom   1C    basis set group =>   2
Atom   2C    basis set group =>   2
Atom   3C    basis set group =>   2
Atom   4C    basis set group =>   2
Atom   5C    basis set group =>   2
Atom   6C    basis set group =>   2
Atom   7H    basis set group =>   3
Atom   8H    basis set group =>   3
Atom   9H    basis set group =>   3
Atom  10H    basis set group =>   3
Atom  11H    basis set group =>   3
Atom  12H    basis set group =>   3
Atom  13H    basis set group =>   3
Atom  14H    basis set group =>   3
Atom  15C    basis set group =>   2
Atom  16H    basis set group =>   3
Atom  17H    basis set group =>   3
Atom  18H    basis set group =>   3
Atom  19H    basis set group =>   3
Atom  20P    basis set group =>   4
Atom  21H    basis set group =>   3
Atom  22H    basis set group =>   3
Atom  23H    basis set group =>   3
-------------------------
ECP PARAMETER INFORMATION
-------------------------

 Group 1, Type Ir ECP Def2-ECP (replacing 60 core electrons, lmax=3)

Atom   0Ir   ECP group =>   1



           ************************************************************
           *        Program running with 24 parallel MPI-processes    *
           *              working on a common directory               *
           ************************************************************
------------------------------------------------------------------------------
                           ORCA GTO INTEGRAL CALCULATION
------------------------------------------------------------------------------

                         BASIS SET STATISTICS AND STARTUP INFO

 # of primitive gaussian shells          ...  343
 # of primitive gaussian functions       ...  803
 # of contracted shells                  ...  229
 # of contracted basis functions         ...  621
 Highest angular momentum                ...    4
 Maximum contraction depth               ...    7
 Integral package used                   ... LIBINT
 Integral threshhold            Thresh   ...  1.000e-10
 Primitive cut-off              TCut     ...  1.000e-11


------------------------------ INTEGRAL EVALUATION ----------------------------


 * One electron integrals 

   ECP integrals                         ... done
 Pre-screening matrix                    ... done
 Shell pair data                         ... done (   0.006 sec)



           ************************************************************
           *        Program running with 24 parallel MPI-processes    *
           *              working on a common directory               *
           ************************************************************
-------------------------------------------------------------------------------
                                 ORCA SCF
-------------------------------------------------------------------------------

------------
SCF SETTINGS
------------
Hamiltonian:
 Density Functional     Method          .... DFT(GTOs)
 Exchange Functional    Exchange        .... TPSS
 Correlation Functional Correlation     .... TPSS
 LDA part of GGA corr.  LDAOpt          .... PW91-LDA
 Gradients option       PostSCFGGA      .... off
 Hybrid DFT is turned on
   Fraction HF Exchange ScalHFX         ....  0.100000
   Scaling of DF-GGA-X  ScalDFX         ....  0.900000
   Scaling of DF-GGA-C  ScalDFC         ....  1.000000
   Scaling of DF-LDA-C  ScalLDAC        ....  1.000000
   Perturbative correction              ....  0.000000
   Density functional embedding theory  .... OFF
   NL short-range parameter             ....  5.200000


General Settings:
 Integral files         IntName         .... TMB31_T1
 Hartree-Fock type      HFTyp           .... RHF
 Total Charge           Charge          ....    1
 Multiplicity           Mult            ....    1
 Number of Electrons    NEL             ....   88
 Basis Dimension        Dim             ....  621
 Nuclear Repulsion      ENuc            ....    712.9282020928 Eh

Convergence Acceleration:
 DIIS                   CNVDIIS         .... on
   Start iteration      DIISMaxIt       ....    12
   Startup error        DIISStart       ....  0.200000
   # of expansion vecs  DIISMaxEq       ....     5
   Bias factor          DIISBfac        ....   1.050
   Max. coefficient     DIISMaxC        ....  10.000
 Newton-Raphson         CNVNR           .... off
 SOSCF                  CNVSOSCF        .... off
 Level Shifting         CNVShift        .... on
   Level shift para.    LevelShift      ....    0.2500
   Turn off err/grad.   ShiftErr        ....    0.0010
 Zerner damping         CNVZerner       .... off
 Static damping         CNVDamp         .... on
   Fraction old density DampFac         ....    0.7000
   Max. Damping (<1)    DampMax         ....    0.9800
   Min. Damping (>=0)   DampMin         ....    0.0000
   Turn off err/grad.   DampErr         ....    0.1000
 Fernandez-Rico         CNVRico         .... off

SCF Procedure:
 Maximum # iterations   MaxIter         ....   125
 SCF integral mode      SCFMode         .... Direct
   Integral package                     .... LIBINT
 Reset frequency        DirectResetFreq ....    20
 Integral Threshold     Thresh          ....  1.000e-10 Eh
 Primitive CutOff       TCut            ....  1.000e-11 Eh

Convergence Tolerance:
 Convergence Check Mode ConvCheckMode   .... Total+1el-Energy
 Convergence forced     ConvForced      .... 0
 Energy Change          TolE            ....  1.000e-06 Eh
 1-El. energy change                    ....  1.000e-03 Eh
 DIIS Error             TolErr          ....  1.000e-06


Diagonalization of the overlap matrix:
Smallest eigenvalue                        ... 9.569e-07
Time for diagonalization                   ...    0.057 sec
Threshold for overlap eigenvalues          ... 1.000e-08
Number of eigenvalues below threshold      ... 0
Time for construction of square roots      ...    0.062 sec
Total time needed                          ...    0.120 sec

-------------------
DFT GRID GENERATION
-------------------

General Integration Accuracy     IntAcc      ...  4.670
Radial Grid Type                 RadialGrid  ... Gauss-Chebyshev
Angular Grid (max. acc.)         AngularGrid ... Lebedev-302
Angular grid pruning method      GridPruning ... 3 (G Style)
Weight generation scheme         WeightScheme... Becke
Basis function cutoff            BFCut       ...    1.0000e-10
Integration weight cutoff        WCut        ...    1.0000e-14
Grids for H and He will be reduced by one unit

# of grid points (after initial pruning)     ... 112892 (   0.0 sec)
# of grid points (after weights+screening)   ...  99836 (   0.1 sec)
nearest neighbour list constructed           ...    0.0 sec
Grid point re-assignment to atoms done       ...    0.0 sec
Grid point division into batches done        ...    0.3 sec
Reduced shell lists constructed in    0.4 sec

Total number of grid points                  ...    99836
Total number of batches                      ...     1573
Average number of points per batch           ...       63
Average number of grid points per atom       ...     4160
Average number of shells per batch           ...   182.21 (79.57%)
Average number of basis functions per batch  ...   513.91 (82.76%)
Average number of large shells per batch     ...   151.07 (82.91%)
Average number of large basis fcns per batch ...   420.87 (81.89%)
Maximum spatial batch extension              ...   1.80,  1.97,  1.92 au
Average spatial batch extension              ...   0.05,  0.05,  0.05 au

Time for grid setup =    0.468 sec

------------------------------
INITIAL GUESS: MODEL POTENTIAL
------------------------------
Loading Hartree-Fock densities                     ... done
  calling /sw/apps/orca/orca_4_2_0_linux_x86-64_openmpi314/orca TMB31_T1_atom77.inp > TMB31_T1_atom77.out in order to generate an atomic fitting density for atom 0 (Ir with ECP) on-the-fly... 
    atom 0 (Ir), assumed electronic state with S=4: 1s2 2s2 2p6 3s2 3p6 4s2 3d10 4p6 5s2 4d10 5p6 6s2 4f14 5d7           ... done
Calculating cut-offs                               ... done
Setting up the integral package                    ... done
Initializing the effective Hamiltonian             ... done
Starting the Coulomb interaction                   ... done (   0.0 sec)
Reading the grid                                   ... done
Mapping shells                                     ... done
Starting the XC term evaluation                    ... done (   0.2 sec)
  promolecular density results
     # of electrons  =    148.995325330
     EX              =   -411.943533239
     EC              =     -7.155192426
     EX+EC           =   -419.098725665
Transforming the Hamiltonian                       ... done (   0.0 sec)
Diagonalizing the Hamiltonian                      ... done (   0.1 sec)
Back transforming the eigenvectors                 ... done (   0.0 sec)
Now organizing SCF variables                       ... done
                      ------------------
                      INITIAL GUESS DONE (   2.1 sec)
                      ------------------
--------------
SCF ITERATIONS
--------------
ITER       Energy         Delta-E        Max-DP      RMS-DP      [F,P]     Damp
               ***  Starting incremental Fock matrix formation  ***
  0   -716.2500314011   0.00000000000031.83665872  0.17163431  1.0449384 0.7000
  1   -718.7549558575  -2.50492445644610.01185680  0.05165219  0.3290139 0.7000
                               ***Turning on DIIS***
  2   -719.4596920028  -0.704736145291 7.08122918  0.03750015  0.1657120 0.7000
  3   -720.0749891297  -0.615297126933 5.01927338  0.02649317  0.1142333 0.7000
  4   -720.4834428361  -0.40845370642211.77413819  0.06200618  0.0811590 0.0000
  5   -721.4060713846  -0.922628548485 0.15491539  0.00111156  0.0222869 0.0000
  6   -721.4165094599  -0.010438075253 0.04791666  0.00034563  0.0148961 0.0000
  7   -721.4178599531  -0.001350493188 0.02285857  0.00016396  0.0157523 0.0000
  8   -721.4186781868  -0.000818233755 0.00525422  0.00006175  0.0021347 0.0000
  9   -721.4187341327  -0.000055945842 0.00345788  0.00003884  0.0024976 0.0000
 10   -721.4187595920  -0.000025459315 0.00297772  0.00003096  0.0004813 0.0000
 11   -721.4187628896  -0.000003297584 0.00215865  0.00001266  0.0002537 0.0000
                 **** Energy Check signals convergence ****

               *****************************************************
               *                     SUCCESS                       *
               *           SCF CONVERGED AFTER  12 CYCLES          *
               *****************************************************


----------------
TOTAL SCF ENERGY
----------------

Total Energy       :         -721.41876318 Eh          -19630.80256 eV

Components:
Nuclear Repulsion  :          712.92820209 Eh           19399.76264 eV
Electronic Energy  :        -1434.34696527 Eh          -39030.56520 eV
One Electron Energy:        -2425.29080618 Eh          -65995.51798 eV
Two Electron Energy:          990.94384091 Eh           26964.95278 eV

Virial components:
Potential Energy   :        -1371.63418310 Eh          -37324.06364 eV
Kinetic Energy     :          650.21541992 Eh           17693.26108 eV
Virial Ratio       :            2.10950731


DFT components:
N(Alpha)           :       44.000118737766 electrons
N(Beta)            :       44.000118737766 electrons
N(Total)           :       88.000237475531 electrons
E(X)               :      -66.780101061195 Eh       
E(C)               :       -3.161369251727 Eh       
E(XC)              :      -69.941470312921 Eh       
DFET-embed. en.    :        0.000000000000 Eh       

---------------
SCF CONVERGENCE
---------------

  Last Energy change         ...   -2.8934e-07  Tolerance :   1.0000e-06
  Last MAX-Density change    ...    5.3649e-03  Tolerance :   1.0000e-05
  Last RMS-Density change    ...    2.2891e-05  Tolerance :   1.0000e-06
  Last DIIS Error            ...    1.0767e-04  Tolerance :   1.0000e-06

             **** THE GBW FILE WAS UPDATED (TMB31_T1.gbw) ****
             **** DENSITY FILE WAS UPDATED (TMB31_T1.scfp) ****
             **** ENERGY FILE WAS UPDATED (TMB31_T1.en.tmp) ****
             **** THE GBW FILE WAS UPDATED (TMB31_T1.gbw) ****
             **** DENSITY FILE WAS UPDATED (TMB31_T1.scfp) ****
----------------
ORBITAL ENERGIES
----------------

  NO   OCC          E(Eh)            E(eV) 
   0   2.0000     -77.123030     -2098.6243 
   1   2.0000     -10.303698      -280.3779 
   2   2.0000     -10.302120      -280.3349 
   3   2.0000     -10.301336      -280.3136 
   4   2.0000     -10.300253      -280.2841 
   5   2.0000     -10.298845      -280.2458 
   6   2.0000     -10.284678      -279.8603 
   7   2.0000     -10.252060      -278.9727 
   8   2.0000      -6.678619      -181.7345 
   9   2.0000      -4.827566      -131.3648 
  10   2.0000      -4.827477      -131.3623 
  11   2.0000      -4.825140      -131.2987 
  12   2.0000      -3.836209      -104.3886 
  13   2.0000      -2.197851       -59.8066 
  14   2.0000      -2.183581       -59.4183 
  15   2.0000      -2.176236       -59.2184 
  16   2.0000      -1.046817       -28.4853 
  17   2.0000      -0.875560       -23.8252 
  18   2.0000      -0.870677       -23.6923 
  19   2.0000      -0.841219       -22.8907 
  20   2.0000      -0.816560       -22.2197 
  21   2.0000      -0.795969       -21.6594 
  22   2.0000      -0.701806       -19.0971 
  23   2.0000      -0.700784       -19.0693 
  24   2.0000      -0.688893       -18.7457 
  25   2.0000      -0.608296       -16.5526 
  26   2.0000      -0.585231       -15.9250 
  27   2.0000      -0.576941       -15.6994 
  28   2.0000      -0.574433       -15.6311 
  29   2.0000      -0.566045       -15.4029 
  30   2.0000      -0.559284       -15.2189 
  31   2.0000      -0.539407       -14.6780 
  32   2.0000      -0.537766       -14.6334 
  33   2.0000      -0.536147       -14.5893 
  34   2.0000      -0.524989       -14.2857 
  35   2.0000      -0.522784       -14.2257 
  36   2.0000      -0.515409       -14.0250 
  37   2.0000      -0.507785       -13.8175 
  38   2.0000      -0.481698       -13.1077 
  39   2.0000      -0.447524       -12.1777 
  40   2.0000      -0.433060       -11.7841 
  41   2.0000      -0.410714       -11.1761 
  42   2.0000      -0.403907       -10.9909 
  43   2.0000      -0.385443       -10.4884 
  44   0.0000      -0.202507        -5.5105 
  45   0.0000      -0.182562        -4.9678 
  46   0.0000      -0.151882        -4.1329 
  47   0.0000      -0.142948        -3.8898 
  48   0.0000      -0.141829        -3.8594 
  49   0.0000      -0.129882        -3.5343 
  50   0.0000      -0.114468        -3.1148 
  51   0.0000      -0.113680        -3.0934 
  52   0.0000      -0.103718        -2.8223 
  53   0.0000      -0.102838        -2.7984 
  54   0.0000      -0.088825        -2.4171 
  55   0.0000      -0.079505        -2.1634 
  56   0.0000      -0.073790        -2.0079 
  57   0.0000      -0.070661        -1.9228 
  58   0.0000      -0.061964        -1.6861 
  59   0.0000      -0.056405        -1.5349 
  60   0.0000      -0.053641        -1.4597 
  61   0.0000      -0.048380        -1.3165 
  62   0.0000      -0.040310        -1.0969 
  63   0.0000      -0.032946        -0.8965 
  64   0.0000      -0.024199        -0.6585 
  65   0.0000      -0.018567        -0.5052 
  66   0.0000      -0.017680        -0.4811 
  67   0.0000      -0.013069        -0.3556 
  68   0.0000      -0.007982        -0.2172 
  69   0.0000       0.000416         0.0113 
  70   0.0000       0.006608         0.1798 
  71   0.0000       0.006935         0.1887 
  72   0.0000       0.009207         0.2505 
  73   0.0000       0.017200         0.4680 
  74   0.0000       0.020369         0.5543 
  75   0.0000       0.022184         0.6037 
  76   0.0000       0.026054         0.7090 
  77   0.0000       0.037247         1.0135 
  78   0.0000       0.039184         1.0663 
  79   0.0000       0.045665         1.2426 
  80   0.0000       0.048949         1.3320 
  81   0.0000       0.059907         1.6302 
  82   0.0000       0.064752         1.7620 
  83   0.0000       0.070689         1.9236 
  84   0.0000       0.073398         1.9973 
  85   0.0000       0.077372         2.1054 
  86   0.0000       0.079871         2.1734 
  87   0.0000       0.087552         2.3824 
  88   0.0000       0.089009         2.4221 
  89   0.0000       0.097765         2.6603 
  90   0.0000       0.114066         3.1039 
  91   0.0000       0.119364         3.2481 
  92   0.0000       0.122047         3.3211 
  93   0.0000       0.123753         3.3675 
  94   0.0000       0.132806         3.6138 
  95   0.0000       0.136444         3.7128 
  96   0.0000       0.138292         3.7631 
  97   0.0000       0.140797         3.8313 
  98   0.0000       0.148216         4.0332 
  99   0.0000       0.151486         4.1221 
 100   0.0000       0.153947         4.1891 
 101   0.0000       0.156926         4.2702 
 102   0.0000       0.160416         4.3651 
 103   0.0000       0.161369         4.3911 
 104   0.0000       0.165219         4.4958 
 105   0.0000       0.172564         4.6957 
 106   0.0000       0.174129         4.7383 
 107   0.0000       0.179857         4.8942 
 108   0.0000       0.184363         5.0168 
 109   0.0000       0.186023         5.0620 
 110   0.0000       0.188812         5.1378 
 111   0.0000       0.196982         5.3602 
 112   0.0000       0.201542         5.4842 
 113   0.0000       0.204844         5.5741 
 114   0.0000       0.206396         5.6163 
 115   0.0000       0.209073         5.6892 
 116   0.0000       0.213946         5.8218 
 117   0.0000       0.214765         5.8441 
 118   0.0000       0.216973         5.9041 
 119   0.0000       0.223729         6.0880 
 120   0.0000       0.224131         6.0989 
 121   0.0000       0.226167         6.1543 
 122   0.0000       0.231406         6.2969 
 123   0.0000       0.236056         6.4234 
 124   0.0000       0.242384         6.5956 
 125   0.0000       0.244587         6.6555 
 126   0.0000       0.246586         6.7100 
 127   0.0000       0.248099         6.7511 
 128   0.0000       0.253708         6.9038 
 129   0.0000       0.256404         6.9771 
 130   0.0000       0.263953         7.1825 
 131   0.0000       0.271838         7.3971 
 132   0.0000       0.273129         7.4322 
 133   0.0000       0.279219         7.5979 
 134   0.0000       0.290661         7.9093 
 135   0.0000       0.293127         7.9764 
 136   0.0000       0.297362         8.0916 
 137   0.0000       0.301343         8.2000 
 138   0.0000       0.308011         8.3814 
 139   0.0000       0.312355         8.4996 
 140   0.0000       0.314879         8.5683 
 141   0.0000       0.321041         8.7360 
 142   0.0000       0.324299         8.8246 
 143   0.0000       0.328048         8.9266 
 144   0.0000       0.328895         8.9497 
 145   0.0000       0.333182         9.0664 
 146   0.0000       0.341802         9.3009 
 147   0.0000       0.343256         9.3405 
 148   0.0000       0.347535         9.4569 
 149   0.0000       0.358187         9.7468 
 150   0.0000       0.362061         9.8522 
 151   0.0000       0.366289         9.9672 
 152   0.0000       0.370022        10.0688 
 153   0.0000       0.376982        10.2582 
 154   0.0000       0.385451        10.4886 
 155   0.0000       0.388069        10.5599 
 156   0.0000       0.391533        10.6541 
 157   0.0000       0.396345        10.7851 
 158   0.0000       0.400697        10.9035 
 159   0.0000       0.402386        10.9495 
 160   0.0000       0.408073        11.1042 
 161   0.0000       0.419282        11.4092 
 162   0.0000       0.423631        11.5276 
 163   0.0000       0.430942        11.7265 
 164   0.0000       0.432505        11.7691 
 165   0.0000       0.434942        11.8354 
 166   0.0000       0.445121        12.1123 
 167   0.0000       0.451045        12.2736 
 168   0.0000       0.456598        12.4246 
 169   0.0000       0.462055        12.5732 
 170   0.0000       0.464259        12.6331 
 171   0.0000       0.465764        12.6741 
 172   0.0000       0.473575        12.8866 
 173   0.0000       0.478661        13.0250 
 174   0.0000       0.481252        13.0955 
 175   0.0000       0.487145        13.2559 
 176   0.0000       0.491931        13.3861 
 177   0.0000       0.501966        13.6592 
 178   0.0000       0.507922        13.8213 
 179   0.0000       0.509814        13.8727 
 180   0.0000       0.515974        14.0404 
 181   0.0000       0.521296        14.1852 
 182   0.0000       0.525176        14.2908 
 183   0.0000       0.529299        14.4030 
 184   0.0000       0.534402        14.5418 
 185   0.0000       0.535960        14.5842 
 186   0.0000       0.539273        14.6744 
 187   0.0000       0.545042        14.8314 
 188   0.0000       0.554356        15.0848 
 189   0.0000       0.559340        15.2204 
 190   0.0000       0.566538        15.4163 
 191   0.0000       0.567572        15.4444 
 192   0.0000       0.571490        15.5510 
 193   0.0000       0.582933        15.8624 
 194   0.0000       0.587693        15.9919 
 195   0.0000       0.593449        16.1486 
 196   0.0000       0.593489        16.1497 
 197   0.0000       0.597330        16.2542 
 198   0.0000       0.602647        16.3988 
 199   0.0000       0.608497        16.5580 
 200   0.0000       0.611068        16.6280 
 201   0.0000       0.617054        16.7909 
 202   0.0000       0.619436        16.8557 
 203   0.0000       0.624683        16.9985 
 204   0.0000       0.628975        17.1153 
 205   0.0000       0.632388        17.2081 
 206   0.0000       0.633656        17.2427 
 207   0.0000       0.638938        17.3864 
 208   0.0000       0.641992        17.4695 
 209   0.0000       0.646047        17.5798 
 210   0.0000       0.653922        17.7941 
 211   0.0000       0.657466        17.8906 
 212   0.0000       0.667669        18.1682 
 213   0.0000       0.672180        18.2910 
 214   0.0000       0.684605        18.6290 
 215   0.0000       0.697119        18.9696 
 216   0.0000       0.699527        19.0351 
 217   0.0000       0.716632        19.5005 
 218   0.0000       0.726421        19.7669 
 219   0.0000       0.727673        19.8010 
 220   0.0000       0.743406        20.2291 
 221   0.0000       0.747475        20.3398 
 222   0.0000       0.754683        20.5360 
 223   0.0000       0.774545        21.0764 
 224   0.0000       0.790832        21.5196 
 225   0.0000       0.795295        21.6411 
 226   0.0000       0.801870        21.8200 
 227   0.0000       0.807447        21.9718 
 228   0.0000       0.815414        22.1885 
 229   0.0000       0.831619        22.6295 
 230   0.0000       0.833618        22.6839 
 231   0.0000       0.845907        23.0183 
 232   0.0000       0.856601        23.3093 
 233   0.0000       0.861004        23.4291 
 234   0.0000       0.874494        23.7962 
 235   0.0000       0.884470        24.0676 
 236   0.0000       0.902308        24.5531 
 237   0.0000       0.909644        24.7527 
 238   0.0000       0.914176        24.8760 
 239   0.0000       0.927588        25.2410 
 240   0.0000       0.939275        25.5590 
 241   0.0000       0.949835        25.8463 
 242   0.0000       0.956218        26.0200 
 243   0.0000       0.966205        26.2918 
 244   0.0000       0.985953        26.8291 
 245   0.0000       0.992868        27.0173 
 246   0.0000       0.995335        27.0845 
 247   0.0000       1.007327        27.4108 
 248   0.0000       1.013039        27.5662 
 249   0.0000       1.026359        27.9286 
 250   0.0000       1.028514        27.9873 
 251   0.0000       1.047100        28.4930 
 252   0.0000       1.049646        28.5623 
 253   0.0000       1.066834        29.0300 
 254   0.0000       1.076591        29.2955 
 255   0.0000       1.085881        29.5483 
 256   0.0000       1.103176        30.0189 
 257   0.0000       1.108012        30.1505 
 258   0.0000       1.113064        30.2880 
 259   0.0000       1.119470        30.4623 
 260   0.0000       1.128356        30.7041 
 261   0.0000       1.130268        30.7562 
 262   0.0000       1.143182        31.1076 
 263   0.0000       1.152616        31.3643 
 264   0.0000       1.156780        31.4776 
 265   0.0000       1.160068        31.5671 
 266   0.0000       1.178900        32.0795 
 267   0.0000       1.190695        32.4005 
 268   0.0000       1.195849        32.5407 
 269   0.0000       1.206481        32.8300 
 270   0.0000       1.220195        33.2032 
 271   0.0000       1.234007        33.5790 
 272   0.0000       1.240251        33.7490 
 273   0.0000       1.255414        34.1615 
 274   0.0000       1.257569        34.2202 
 275   0.0000       1.266902        34.4742 
 276   0.0000       1.269785        34.5526 
 277   0.0000       1.279303        34.8116 
 278   0.0000       1.289358        35.0852 
 279   0.0000       1.294217        35.2174 
 280   0.0000       1.310382        35.6573 
 281   0.0000       1.316030        35.8110 
 282   0.0000       1.322634        35.9907 
 283   0.0000       1.330622        36.2081 
 284   0.0000       1.337925        36.4068 
 285   0.0000       1.339297        36.4441 
 286   0.0000       1.346445        36.6386 
 287   0.0000       1.348992        36.7079 
 288   0.0000       1.360228        37.0137 
 289   0.0000       1.366853        37.1940 
 290   0.0000       1.374075        37.3905 
 291   0.0000       1.378554        37.5124 
 292   0.0000       1.388367        37.7794 
 293   0.0000       1.406504        38.2729 
 294   0.0000       1.415287        38.5119 
 295   0.0000       1.427500        38.8442 
 296   0.0000       1.454770        39.5863 
 297   0.0000       1.464093        39.8400 
 298   0.0000       1.469839        39.9964 
 299   0.0000       1.476932        40.1894 
 300   0.0000       1.483891        40.3787 
 301   0.0000       1.490274        40.5524 
 302   0.0000       1.508444        41.0468 
 303   0.0000       1.512832        41.1662 
 304   0.0000       1.530054        41.6349 
 305   0.0000       1.533932        41.7404 
 306   0.0000       1.542649        41.9776 
 307   0.0000       1.545661        42.0596 
 308   0.0000       1.562404        42.5152 
 309   0.0000       1.574396        42.8415 
 310   0.0000       1.579239        42.9733 
 311   0.0000       1.592730        43.3404 
 312   0.0000       1.604665        43.6651 
 313   0.0000       1.613088        43.8944 
 314   0.0000       1.621171        44.1143 
 315   0.0000       1.638958        44.5983 
 316   0.0000       1.645592        44.7788 
 317   0.0000       1.667736        45.3814 
 318   0.0000       1.684517        45.8380 
 319   0.0000       1.685456        45.8636 
 320   0.0000       1.694918        46.1211 
 321   0.0000       1.704177        46.3730 
 322   0.0000       1.728721        47.0409 
 323   0.0000       1.735342        47.2210 
 324   0.0000       1.740646        47.3654 
 325   0.0000       1.769226        48.1431 
 326   0.0000       1.777373        48.3648 
 327   0.0000       1.785994        48.5994 
 328   0.0000       1.787995        48.6538 
 329   0.0000       1.807838        49.1938 
 330   0.0000       1.818849        49.4934 
 331   0.0000       1.824109        49.6365 
 332   0.0000       1.839174        50.0465 
 333   0.0000       1.842710        50.1427 
 334   0.0000       1.854177        50.4547 
 335   0.0000       1.873422        50.9784 
 336   0.0000       1.887462        51.3604 
 337   0.0000       1.891217        51.4626 
 338   0.0000       1.931066        52.5470 
 339   0.0000       1.944765        52.9198 
 340   0.0000       1.945166        52.9307 
 341   0.0000       1.960900        53.3588 
 342   0.0000       1.965230        53.4766 
 343   0.0000       1.998845        54.3913 
 344   0.0000       2.023769        55.0695 
 345   0.0000       2.043357        55.6026 
 346   0.0000       2.063707        56.1563 
 347   0.0000       2.078918        56.5702 
 348   0.0000       2.084669        56.7267 
 349   0.0000       2.112814        57.4926 
 350   0.0000       2.136931        58.1489 
 351   0.0000       2.158236        58.7286 
 352   0.0000       2.207774        60.0766 
 353   0.0000       2.233018        60.7635 
 354   0.0000       2.307928        62.8019 
 355   0.0000       2.330004        63.4026 
 356   0.0000       2.356269        64.1173 
 357   0.0000       2.362994        64.3003 
 358   0.0000       2.376061        64.6559 
 359   0.0000       2.405986        65.4702 
 360   0.0000       2.415445        65.7276 
 361   0.0000       2.429737        66.1165 
 362   0.0000       2.468599        67.1740 
 363   0.0000       2.479620        67.4739 
 364   0.0000       2.485400        67.6312 
 365   0.0000       2.510538        68.3152 
 366   0.0000       2.558390        69.6173 
 367   0.0000       2.584254        70.3211 
 368   0.0000       2.628270        71.5189 
 369   0.0000       2.653938        72.2173 
 370   0.0000       2.662144        72.4406 
 371   0.0000       2.675594        72.8066 
 372   0.0000       2.681573        72.9693 
 373   0.0000       2.692110        73.2560 
 374   0.0000       2.693425        73.2918 
 375   0.0000       2.710496        73.7563 
 376   0.0000       2.724569        74.1393 
 377   0.0000       2.730523        74.3013 
 378   0.0000       2.746203        74.7280 
 379   0.0000       2.766031        75.2675 
 380   0.0000       2.773158        75.4615 
 381   0.0000       2.775628        75.5287 
 382   0.0000       2.795936        76.0813 
 383   0.0000       2.808445        76.4217 
 384   0.0000       2.815928        76.6253 
 385   0.0000       2.822780        76.8117 
 386   0.0000       2.842762        77.3555 
 387   0.0000       2.854801        77.6831 
 388   0.0000       2.860047        77.8258 
 389   0.0000       2.874521        78.2197 
 390   0.0000       2.890517        78.6550 
 391   0.0000       2.895147        78.7810 
 392   0.0000       2.912625        79.2566 
 393   0.0000       2.923209        79.5446 
 394   0.0000       2.928669        79.6931 
 395   0.0000       2.941520        80.0428 
 396   0.0000       2.945413        80.1488 
 397   0.0000       2.966246        80.7157 
 398   0.0000       2.973880        80.9234 
 399   0.0000       2.982877        81.1682 
 400   0.0000       2.990213        81.3678 
 401   0.0000       2.992229        81.4227 
 402   0.0000       3.007141        81.8285 
 403   0.0000       3.020596        82.1946 
 404   0.0000       3.033370        82.5422 
 405   0.0000       3.039433        82.7072 
 406   0.0000       3.066788        83.4515 
 407   0.0000       3.073351        83.6301 
 408   0.0000       3.085571        83.9627 
 409   0.0000       3.095580        84.2350 
 410   0.0000       3.100789        84.3768 
 411   0.0000       3.107745        84.5660 
 412   0.0000       3.129100        85.1471 
 413   0.0000       3.137168        85.3667 
 414   0.0000       3.147724        85.6539 
 415   0.0000       3.156004        85.8792 
 416   0.0000       3.166043        86.1524 
 417   0.0000       3.181565        86.5748 
 418   0.0000       3.186076        86.6975 
 419   0.0000       3.193474        86.8988 
 420   0.0000       3.202073        87.1328 
 421   0.0000       3.211121        87.3790 
 422   0.0000       3.217840        87.5619 
 423   0.0000       3.236905        88.0807 
 424   0.0000       3.247488        88.3686 
 425   0.0000       3.262486        88.7767 
 426   0.0000       3.266637        88.8897 
 427   0.0000       3.270774        89.0023 
 428   0.0000       3.289084        89.5005 
 429   0.0000       3.299350        89.7799 
 430   0.0000       3.307191        89.9932 
 431   0.0000       3.314010        90.1788 
 432   0.0000       3.321491        90.3824 
 433   0.0000       3.328465        90.5721 
 434   0.0000       3.335786        90.7714 
 435   0.0000       3.348492        91.1171 
 436   0.0000       3.351254        91.1923 
 437   0.0000       3.367232        91.6271 
 438   0.0000       3.379392        91.9579 
 439   0.0000       3.388323        92.2010 
 440   0.0000       3.398439        92.4762 
 441   0.0000       3.418762        93.0292 
 442   0.0000       3.422081        93.1196 
 443   0.0000       3.431948        93.3880 
 444   0.0000       3.441481        93.6475 
 445   0.0000       3.446799        93.7922 
 446   0.0000       3.455178        94.0202 
 447   0.0000       3.470575        94.4392 
 448   0.0000       3.475473        94.5724 
 449   0.0000       3.486711        94.8782 
 450   0.0000       3.500292        95.2478 
 451   0.0000       3.505508        95.3897 
 452   0.0000       3.531026        96.0841 
 453   0.0000       3.534482        96.1781 
 454   0.0000       3.545415        96.4756 
 455   0.0000       3.556061        96.7653 
 456   0.0000       3.570391        97.1553 
 457   0.0000       3.575876        97.3045 
 458   0.0000       3.580122        97.4201 
 459   0.0000       3.593946        97.7962 
 460   0.0000       3.601513        98.0022 
 461   0.0000       3.614432        98.3537 
 462   0.0000       3.630378        98.7876 
 463   0.0000       3.650708        99.3408 
 464   0.0000       3.664667        99.7207 
 465   0.0000       3.673058        99.9490 
 466   0.0000       3.687608       100.3449 
 467   0.0000       3.694781       100.5401 
 468   0.0000       3.705920       100.8432 
 469   0.0000       3.738556       101.7313 
 470   0.0000       3.745748       101.9270 
 471   0.0000       3.773871       102.6923 
 472   0.0000       3.779494       102.8453 
 473   0.0000       3.787487       103.0628 
 474   0.0000       3.799557       103.3912 
 475   0.0000       3.806217       103.5724 
 476   0.0000       3.818085       103.8954 
 477   0.0000       3.826459       104.1232 
 478   0.0000       3.833551       104.3162 
 479   0.0000       3.841941       104.5445 
 480   0.0000       3.846146       104.6589 
 481   0.0000       3.852866       104.8418 
 482   0.0000       3.868461       105.2662 
 483   0.0000       3.874355       105.4266 
 484   0.0000       3.896383       106.0260 
 485   0.0000       3.916939       106.5853 
 486   0.0000       3.923186       106.7553 
 487   0.0000       3.937892       107.1555 
 488   0.0000       3.941548       107.2550 
 489   0.0000       3.951852       107.5354 
 490   0.0000       3.954619       107.6107 
 491   0.0000       3.973762       108.1316 
 492   0.0000       3.987478       108.5048 
 493   0.0000       4.008322       109.0720 
 494   0.0000       4.015945       109.2794 
 495   0.0000       4.027706       109.5995 
 496   0.0000       4.033174       109.7482 
 497   0.0000       4.045203       110.0756 
 498   0.0000       4.053500       110.3013 
 499   0.0000       4.058512       110.4377 
 500   0.0000       4.064153       110.5912 
 501   0.0000       4.073472       110.8448 
 502   0.0000       4.080887       111.0466 
 503   0.0000       4.091724       111.3415 
 504   0.0000       4.107757       111.7777 
 505   0.0000       4.114538       111.9623 
 506   0.0000       4.129140       112.3596 
 507   0.0000       4.130079       112.3852 
 508   0.0000       4.144910       112.7887 
 509   0.0000       4.152237       112.9881 
 510   0.0000       4.161469       113.2393 
 511   0.0000       4.169903       113.4688 
 512   0.0000       4.178829       113.7117 
 513   0.0000       4.182267       113.8053 
 514   0.0000       4.188963       113.9875 
 515   0.0000       4.195026       114.1525 
 516   0.0000       4.202847       114.3653 
 517   0.0000       4.210264       114.5671 
 518   0.0000       4.214317       114.6774 
 519   0.0000       4.219806       114.8268 
 520   0.0000       4.228062       115.0514 
 521   0.0000       4.234447       115.2252 
 522   0.0000       4.269007       116.1656 
 523   0.0000       4.271737       116.2399 
 524   0.0000       4.287645       116.6728 
 525   0.0000       4.298860       116.9779 
 526   0.0000       4.306327       117.1811 
 527   0.0000       4.325154       117.6934 
 528   0.0000       4.330986       117.8521 
 529   0.0000       4.349241       118.3489 
 530   0.0000       4.357963       118.5862 
 531   0.0000       4.376133       119.0806 
 532   0.0000       4.389918       119.4557 
 533   0.0000       4.412819       120.0789 
 534   0.0000       4.428548       120.5069 
 535   0.0000       4.440031       120.8194 
 536   0.0000       4.447170       121.0136 
 537   0.0000       4.468368       121.5905 
 538   0.0000       4.478071       121.8545 
 539   0.0000       4.486853       122.0935 
 540   0.0000       4.500396       122.4620 
 541   0.0000       4.538843       123.5082 
 542   0.0000       4.569251       124.3356 
 543   0.0000       4.590764       124.9210 
 544   0.0000       4.597424       125.1023 
 545   0.0000       4.613336       125.5353 
 546   0.0000       4.662240       126.8660 
 547   0.0000       4.670404       127.0881 
 548   0.0000       4.702590       127.9640 
 549   0.0000       4.722850       128.5153 
 550   0.0000       4.760824       129.5486 
 551   0.0000       4.767346       129.7261 
 552   0.0000       4.778831       130.0386 
 553   0.0000       4.779758       130.0638 
 554   0.0000       4.788554       130.3032 
 555   0.0000       4.796907       130.5305 
 556   0.0000       4.806250       130.7847 
 557   0.0000       4.892441       133.1301 
 558   0.0000       4.900817       133.3580 
 559   0.0000       4.913605       133.7060 
 560   0.0000       4.933429       134.2454 
 561   0.0000       4.944599       134.5494 
 562   0.0000       4.973608       135.3388 
 563   0.0000       5.037162       137.0681 
 564   0.0000       5.091895       138.5575 
 565   0.0000       5.093879       138.6115 
 566   0.0000       5.137917       139.8098 
 567   0.0000       5.150718       140.1582 
 568   0.0000       5.163613       140.5091 
 569   0.0000       5.167557       140.6164 
 570   0.0000       5.220484       142.0566 
 571   0.0000       5.227434       142.2457 
 572   0.0000       5.246371       142.7610 
 573   0.0000       5.264087       143.2431 
 574   0.0000       5.278890       143.6459 
 575   0.0000       5.293963       144.0561 
 576   0.0000       5.300569       144.2358 
 577   0.0000       5.317077       144.6850 
 578   0.0000       5.337855       145.2504 
 579   0.0000       5.341316       145.3446 
 580   0.0000       5.351804       145.6300 
 581   0.0000       5.370058       146.1267 
 582   0.0000       5.393450       146.7632 
 583   0.0000       5.414234       147.3288 
 584   0.0000       5.446024       148.1939 
 585   0.0000       5.448486       148.2608 
 586   0.0000       5.484778       149.2484 
 587   0.0000       5.520085       150.2092 
 588   0.0000       5.585482       151.9887 
 589   0.0000       5.636768       153.3843 
 590   0.0000       5.680567       154.5761 
 591   0.0000       5.686487       154.7372 
 592   0.0000       5.738378       156.1492 
 593   0.0000       5.746650       156.3743 
 594   0.0000       5.786908       157.4698 
 595   0.0000       5.797918       157.7694 
 596   0.0000       5.840489       158.9278 
 597   0.0000       5.897312       160.4740 
 598   0.0000       5.912449       160.8859 
 599   0.0000       5.944107       161.7474 
 600   0.0000       5.950686       161.9264 
 601   0.0000       5.959900       162.1771 
 602   0.0000       6.520052       177.4196 
 603   0.0000       6.552795       178.3106 
 604   0.0000       6.595866       179.4826 
 605   0.0000       7.888046       214.6446 
 606   0.0000       7.915561       215.3934 
 607   0.0000       7.968630       216.8374 
 608   0.0000      16.346621       444.8142 
 609   0.0000      23.151615       629.9875 
 610   0.0000      23.331022       634.8694 
 611   0.0000      23.362177       635.7172 
 612   0.0000      23.719332       645.4358 
 613   0.0000      23.723110       645.5386 
 614   0.0000      23.763494       646.6375 
 615   0.0000      23.805548       647.7819 
 616   0.0000      40.032196      1089.3314 
 617   0.0000      40.829960      1111.0397 
 618   0.0000      43.016199      1170.5303 
 619   0.0000      59.608026      1622.0169 
 620   0.0000     363.577206      9893.4388 

                    ********************************
                    * MULLIKEN POPULATION ANALYSIS *
                    ********************************

-----------------------
MULLIKEN ATOMIC CHARGES
-----------------------
   0 Ir:    0.234648
   1 C :   -0.611019
   2 C :    0.034370
   3 C :    0.162296
   4 C :    0.375506
   5 C :   -0.067157
   6 C :    0.279616
   7 H :    0.157031
   8 H :    0.220391
   9 H :    0.171577
  10 H :   -0.039364
  11 H :   -0.106206
  12 H :   -0.032099
  13 H :   -0.058214
  14 H :   -0.047637
  15 C :   -0.449767
  16 H :    0.054873
  17 H :    0.106310
  18 H :    0.186738
  19 H :    0.194067
  20 P :   -0.009542
  21 H :    0.074350
  22 H :    0.085306
  23 H :    0.083926
Sum of atomic charges:    1.0000000

--------------------------------
MULLIKEN REDUCED ORBITAL CHARGES
--------------------------------
  0 Irs       :     2.462564  s :     2.462564
      pz      :     2.251617  p :     6.767708
      px      :     2.247651
      py      :     2.268440
      dz2     :     1.643462  d :     7.456647
      dxz     :     1.332346
      dyz     :     1.540240
      dx2y2   :     1.600967
      dxy     :     1.339631
      f0      :     0.006648  f :     0.076202
      f+1     :     0.012130
      f-1     :     0.006651
      f+2     :     0.012176
      f-2     :     0.012767
      f+3     :     0.012306
      f-3     :     0.013524
      g0      :     0.000188  g :     0.002231
      g+1     :     0.000189
      g-1     :     0.000161
      g+2     :     0.000238
      g-2     :     0.000291
      g+3     :     0.000265
      g-3     :     0.000279
      g+4     :     0.000282
      g-4     :     0.000337
  1 C s       :     3.216601  s :     3.216601
      pz      :     1.085993  p :     3.318861
      px      :     1.165498
      py      :     1.067370
      dz2     :     0.005221  d :     0.072306
      dxz     :     0.016151
      dyz     :     0.008725
      dx2y2   :     0.049196
      dxy     :    -0.006986
      f0      :     0.000426  f :     0.003250
      f+1     :     0.000621
      f-1     :     0.000362
      f+2     :     0.000619
      f-2     :     0.000424
      f+3     :     0.000330
      f-3     :     0.000468
  2 C s       :     3.302191  s :     3.302191
      pz      :     0.810270  p :     2.552526
      px      :     0.946758
      py      :     0.795497
      dz2     :     0.063324  d :     0.102388
      dxz     :     0.025266
      dyz     :    -0.016893
      dx2y2   :     0.022055
      dxy     :     0.008635
      f0      :     0.001449  f :     0.008524
      f+1     :     0.000785
      f-1     :     0.001416
      f+2     :     0.001468
      f-2     :     0.001328
      f+3     :     0.000813
      f-3     :     0.001264
  3 C s       :     3.282775  s :     3.282775
      pz      :     0.785637  p :     2.498746
      px      :     0.934487
      py      :     0.778623
      dz2     :     0.024372  d :     0.047664
      dxz     :    -0.015303
      dyz     :     0.012018
      dx2y2   :     0.015706
      dxy     :     0.010871
      f0      :     0.001290  f :     0.008519
      f+1     :     0.001048
      f-1     :     0.001796
      f+2     :     0.001345
      f-2     :     0.001400
      f+3     :     0.000934
      f-3     :     0.000706
  4 C s       :     3.092735  s :     3.092735
      pz      :     0.772826  p :     2.488817
      px      :     0.947167
      py      :     0.768824
      dz2     :     0.010265  d :     0.034402
      dxz     :     0.003474
      dyz     :     0.046702
      dx2y2   :    -0.020824
      dxy     :    -0.005215
      f0      :     0.001104  f :     0.008541
      f+1     :     0.001064
      f-1     :     0.001987
      f+2     :     0.001107
      f-2     :     0.001007
      f+3     :     0.001361
      f-3     :     0.000911
  5 C s       :     3.354260  s :     3.354260
      pz      :     0.793453  p :     2.594367
      px      :     0.952801
      py      :     0.848114
      dz2     :    -0.018952  d :     0.109725
      dxz     :     0.017380
      dyz     :     0.075095
      dx2y2   :     0.021810
      dxy     :     0.014391
      f0      :     0.001692  f :     0.008805
      f+1     :     0.000903
      f-1     :     0.001674
      f+2     :     0.001410
      f-2     :     0.000763
      f+3     :     0.001405
      f-3     :     0.000960
  6 C s       :     3.129286  s :     3.129286
      pz      :     0.762551  p :     2.537436
      px      :     0.940311
      py      :     0.834573
      dz2     :    -0.012265  d :     0.045144
      dxz     :    -0.008594
      dyz     :     0.003859
      dx2y2   :     0.036680
      dxy     :     0.025465
      f0      :     0.001736  f :     0.008517
      f+1     :     0.001087
      f-1     :     0.001332
      f+2     :     0.001502
      f-2     :     0.000944
      f+3     :     0.000840
      f-3     :     0.001077
  7 H s       :     0.784248  s :     0.784248
      pz      :     0.022150  p :     0.057221
      px      :     0.019107
      py      :     0.015965
      dz2     :     0.000387  d :     0.001500
      dxz     :     0.000275
      dyz     :     0.000483
      dx2y2   :     0.000205
      dxy     :     0.000150
  8 H s       :     0.713667  s :     0.713667
      pz      :     0.013004  p :     0.064506
      px      :     0.033088
      py      :     0.018414
      dz2     :     0.000124  d :     0.001436
      dxz     :     0.000443
      dyz     :     0.000102
      dx2y2   :     0.000278
      dxy     :     0.000489
  9 H s       :     0.762834  s :     0.762834
      pz      :     0.019122  p :     0.064129
      px      :     0.016122
      py      :     0.028885
      dz2     :     0.000243  d :     0.001459
      dxz     :     0.000137
      dyz     :     0.000455
      dx2y2   :     0.000129
      dxy     :     0.000495
 10 H s       :     0.983955  s :     0.983955
      pz      :     0.012538  p :     0.053900
      px      :     0.025272
      py      :     0.016090
      dz2     :     0.000540  d :     0.001509
      dxz     :     0.000219
      dyz     :     0.000160
      dx2y2   :     0.000277
      dxy     :     0.000313
 11 H s       :     1.056192  s :     1.056192
      pz      :     0.014522  p :     0.048508
      px      :     0.027723
      py      :     0.006262
      dz2     :     0.000461  d :     0.001506
      dxz     :     0.000331
      dyz     :     0.000389
      dx2y2   :     0.000179
      dxy     :     0.000147
 12 H s       :     0.980559  s :     0.980559
      pz      :     0.001945  p :     0.050057
      px      :     0.023584
      py      :     0.024528
      dz2     :     0.000073  d :     0.001483
      dxz     :     0.000029
      dyz     :     0.000695
      dx2y2   :     0.000205
      dxy     :     0.000482
 13 H s       :     0.997750  s :     0.997750
      pz      :     0.028700  p :     0.058972
      px      :     0.028463
      py      :     0.001809
      dz2     :     0.000348  d :     0.001492
      dxz     :     0.000431
      dyz     :     0.000588
      dx2y2   :     0.000068
      dxy     :     0.000057
 14 H s       :     0.996756  s :     0.996756
      pz      :     0.004263  p :     0.049370
      px      :     0.023638
      py      :     0.021469
      dz2     :     0.000374  d :     0.001512
      dxz     :     0.000169
      dyz     :     0.000322
      dx2y2   :     0.000307
      dxy     :     0.000339
 15 C s       :     3.135387  s :     3.135387
      pz      :     1.136286  p :     3.253775
      px      :     1.140571
      py      :     0.976919
      dz2     :     0.019314  d :     0.057168
      dxz     :     0.013809
      dyz     :     0.021412
      dx2y2   :     0.008028
      dxy     :    -0.005395
      f0      :     0.000625  f :     0.003436
      f+1     :     0.000121
      f-1     :     0.000560
      f+2     :     0.000530
      f-2     :     0.000568
      f+3     :     0.000619
      f-3     :     0.000413
 16 H s       :     0.880150  s :     0.880150
      pz      :    -0.022389  p :     0.060997
      px      :     0.004855
      py      :     0.078532
      dz2     :     0.000852  d :     0.003980
      dxz     :     0.000911
      dyz     :     0.001157
      dx2y2   :     0.000489
      dxy     :     0.000571
 17 H s       :     0.830269  s :     0.830269
      pz      :     0.015621  p :     0.061946
      px      :     0.018580
      py      :     0.027745
      dz2     :     0.000476  d :     0.001475
      dxz     :     0.000221
      dyz     :     0.000146
      dx2y2   :     0.000426
      dxy     :     0.000205
 18 H s       :     0.760990  s :     0.760990
      pz      :     0.031204  p :     0.050929
      px      :     0.008136
      py      :     0.011590
      dz2     :     0.000422  d :     0.001343
      dxz     :     0.000507
      dyz     :     0.000251
      dx2y2   :     0.000083
      dxy     :     0.000079
 19 H s       :     0.738188  s :     0.738188
      pz      :     0.007767  p :     0.066312
      px      :     0.030913
      py      :     0.027632
      dz2     :     0.000248  d :     0.001433
      dxz     :     0.000392
      dyz     :     0.000082
      dx2y2   :     0.000192
      dxy     :     0.000519
 20 P s       :     5.597296  s :     5.597296
      pz      :     2.989209  p :     9.052693
      px      :     3.119662
      py      :     2.943822
      dz2     :     0.075774  d :     0.336864
      dxz     :     0.065131
      dyz     :     0.059199
      dx2y2   :     0.076438
      dxy     :     0.060322
      f0      :     0.002714  f :     0.022688
      f+1     :     0.003799
      f-1     :     0.002974
      f+2     :     0.002770
      f-2     :     0.003157
      f+3     :     0.002824
      f-3     :     0.004448
 21 H s       :     0.903051  s :     0.903051
      pz      :     0.010128  p :     0.021510
      px      :     0.005522
      py      :     0.005860
      dz2     :     0.000362  d :     0.001088
      dxz     :     0.000269
      dyz     :     0.000298
      dx2y2   :     0.000112
      dxy     :     0.000046
 22 H s       :     0.893625  s :     0.893625
      pz      :     0.002540  p :     0.019989
      px      :     0.003836
      py      :     0.013613
      dz2     :     0.000097  d :     0.001081
      dxz     :     0.000034
      dyz     :     0.000331
      dx2y2   :     0.000331
      dxy     :     0.000288
 23 H s       :     0.897657  s :     0.897657
      pz      :     0.002763  p :     0.017302
      px      :     0.010789
      py      :     0.003750
      dz2     :     0.000209  d :     0.001114
      dxz     :     0.000314
      dyz     :     0.000114
      dx2y2   :     0.000271
      dxy     :     0.000207


                     *******************************
                     * LOEWDIN POPULATION ANALYSIS *
                     *******************************

----------------------
LOEWDIN ATOMIC CHARGES
----------------------
   0 Ir:    1.042794
   1 C :    0.008019
   2 C :   -0.049430
   3 C :   -0.061483
   4 C :   -0.077870
   5 C :   -0.058887
   6 C :   -0.046044
   7 H :   -0.075173
   8 H :   -0.090139
   9 H :   -0.081276
  10 H :    0.026195
  11 H :    0.021588
  12 H :    0.023950
  13 H :    0.017003
  14 H :    0.017050
  15 C :    0.090608
  16 H :   -0.102841
  17 H :   -0.050592
  18 H :   -0.069185
  19 H :   -0.062266
  20 P :    0.925981
  21 H :   -0.122716
  22 H :   -0.115023
  23 H :   -0.110262

-------------------------------
LOEWDIN REDUCED ORBITAL CHARGES
-------------------------------
  0 Irs       :     2.002632  s :     2.002632
      pz      :     2.122499  p :     6.396389
      px      :     2.147535
      py      :     2.126355
      dz2     :     1.575237  d :     7.384500
      dxz     :     1.371293
      dyz     :     1.511641
      dx2y2   :     1.584292
      dxy     :     1.342036
      f0      :     0.015021  f :     0.168624
      f+1     :     0.025758
      f-1     :     0.015183
      f+2     :     0.028820
      f-2     :     0.027463
      f+3     :     0.027307
      f-3     :     0.029072
      g0      :     0.000459  g :     0.005062
      g+1     :     0.000413
      g-1     :     0.000335
      g+2     :     0.000615
      g-2     :     0.000601
      g+3     :     0.000643
      g-3     :     0.000637
      g+4     :     0.000622
      g-4     :     0.000737
  1 C s       :     2.701500  s :     2.701500
      pz      :     0.924730  p :     2.773816
      px      :     0.945572
      py      :     0.903515
      dz2     :     0.119321  d :     0.493795
      dxz     :     0.103377
      dyz     :     0.082742
      dx2y2   :     0.137659
      dxy     :     0.050697
      f0      :     0.003396  f :     0.022869
      f+1     :     0.005078
      f-1     :     0.002084
      f+2     :     0.003721
      f-2     :     0.001966
      f+3     :     0.002594
      f-3     :     0.004030
  2 C s       :     2.645786  s :     2.645786
      pz      :     0.897068  p :     2.570691
      px      :     0.736260
      py      :     0.937362
      dz2     :     0.215364  d :     0.782224
      dxz     :     0.155700
      dyz     :     0.176669
      dx2y2   :     0.142882
      dxy     :     0.091609
      f0      :     0.008977  f :     0.050729
      f+1     :     0.004485
      f-1     :     0.009985
      f+2     :     0.009646
      f-2     :     0.009184
      f+3     :     0.003175
      f-3     :     0.005278
  3 C s       :     2.647636  s :     2.647636
      pz      :     0.915265  p :     2.584142
      px      :     0.761543
      py      :     0.907334
      dz2     :     0.191268  d :     0.779170
      dxz     :     0.105495
      dyz     :     0.188009
      dx2y2   :     0.148008
      dxy     :     0.146390
      f0      :     0.006564  f :     0.050535
      f+1     :     0.004820
      f-1     :     0.012175
      f+2     :     0.009040
      f-2     :     0.009269
      f+3     :     0.004703
      f-3     :     0.003964
  4 C s       :     2.645555  s :     2.645555
      pz      :     0.896049  p :     2.592954
      px      :     0.777115
      py      :     0.919790
      dz2     :     0.169478  d :     0.788961
      dxz     :     0.137795
      dyz     :     0.233030
      dx2y2   :     0.126360
      dxy     :     0.122298
      f0      :     0.007530  f :     0.050400
      f+1     :     0.006763
      f-1     :     0.013085
      f+2     :     0.005601
      f-2     :     0.005714
      f+3     :     0.006574
      f-3     :     0.005134
  5 C s       :     2.644238  s :     2.644238
      pz      :     0.912580  p :     2.561917
      px      :     0.727873
      py      :     0.921464
      dz2     :     0.160652  d :     0.800415
      dxz     :     0.123888
      dyz     :     0.243899
      dx2y2   :     0.139924
      dxy     :     0.132051
      f0      :     0.010762  f :     0.052318
      f+1     :     0.006389
      f-1     :     0.010896
      f+2     :     0.006595
      f-2     :     0.003968
      f+3     :     0.007275
      f-3     :     0.006433
  6 C s       :     2.644239  s :     2.644239
      pz      :     0.919803  p :     2.584791
      px      :     0.751659
      py      :     0.913329
      dz2     :     0.165327  d :     0.766759
      dxz     :     0.108597
      dyz     :     0.208783
      dx2y2   :     0.148219
      dxy     :     0.135833
      f0      :     0.010799  f :     0.050255
      f+1     :     0.005377
      f-1     :     0.008849
      f+2     :     0.008421
      f-2     :     0.005462
      f+3     :     0.004829
      f-3     :     0.006518
  7 H s       :     0.722297  s :     0.722297
      pz      :     0.129891  p :     0.322590
      px      :     0.104123
      py      :     0.088575
      dz2     :     0.009690  d :     0.030286
      dxz     :     0.008101
      dyz     :     0.007084
      dx2y2   :     0.002834
      dxy     :     0.002576
  8 H s       :     0.722188  s :     0.722188
      pz      :     0.102717  p :     0.337943
      px      :     0.143232
      py      :     0.091995
      dz2     :     0.003142  d :     0.030008
      dxz     :     0.009247
      dyz     :     0.001302
      dx2y2   :     0.008319
      dxy     :     0.007998
  9 H s       :     0.723400  s :     0.723400
      pz      :     0.101142  p :     0.327744
      px      :     0.087603
      py      :     0.138999
      dz2     :     0.004593  d :     0.030132
      dxz     :     0.001722
      dyz     :     0.008355
      dx2y2   :     0.007299
      dxy     :     0.008164
 10 H s       :     0.691546  s :     0.691546
      pz      :     0.089004  p :     0.253341
      px      :     0.067511
      py      :     0.096826
      dz2     :     0.006497  d :     0.028919
      dxz     :     0.003402
      dyz     :     0.009208
      dx2y2   :     0.005132
      dxy     :     0.004680
 11 H s       :     0.697770  s :     0.697770
      pz      :     0.109205  p :     0.251594
      px      :     0.075437
      py      :     0.066952
      dz2     :     0.009469  d :     0.029048
      dxz     :     0.007249
      dyz     :     0.007755
      dx2y2   :     0.002371
      dxy     :     0.002203
 12 H s       :     0.695705  s :     0.695705
      pz      :     0.060047  p :     0.251503
      px      :     0.067119
      py      :     0.124337
      dz2     :     0.003205  d :     0.028842
      dxz     :     0.000233
      dyz     :     0.008458
      dx2y2   :     0.008983
      dxy     :     0.007964
 13 H s       :     0.699430  s :     0.699430
      pz      :     0.118949  p :     0.254693
      px      :     0.073837
      py      :     0.061907
      dz2     :     0.010808  d :     0.028874
      dxz     :     0.008106
      dyz     :     0.008246
      dx2y2   :     0.000857
      dxy     :     0.000857
 14 H s       :     0.699344  s :     0.699344
      pz      :     0.072973  p :     0.254452
      px      :     0.073628
      py      :     0.107852
      dz2     :     0.004689  d :     0.029154
      dxz     :     0.002507
      dyz     :     0.008527
      dx2y2   :     0.006723
      dxy     :     0.006709
 15 C s       :     2.680851  s :     2.680851
      pz      :     0.964257  p :     2.721644
      px      :     0.946541
      py      :     0.810846
      dz2     :     0.059489  d :     0.483791
      dxz     :     0.067595
      dyz     :     0.156999
      dx2y2   :     0.113422
      dxy     :     0.086287
      f0      :     0.004205  f :     0.023106
      f+1     :     0.000847
      f-1     :     0.003604
      f+2     :     0.004490
      f-2     :     0.004876
      f+3     :     0.003232
      f-3     :     0.001851
 16 H s       :     0.614721  s :     0.614721
      pz      :     0.122110  p :     0.448921
      px      :     0.114205
      py      :     0.212607
      dz2     :     0.008266  d :     0.039198
      dxz     :     0.008324
      dyz     :     0.013775
      dx2y2   :     0.004461
      dxy     :     0.004372
 17 H s       :     0.711980  s :     0.711980
      pz      :     0.103554  p :     0.308886
      px      :     0.101288
      py      :     0.104044
      dz2     :     0.006719  d :     0.029726
      dxz     :     0.005168
      dyz     :     0.005886
      dx2y2   :     0.006038
      dxy     :     0.005915
 18 H s       :     0.710835  s :     0.710835
      pz      :     0.134656  p :     0.327995
      px      :     0.086264
      py      :     0.107075
      dz2     :     0.009855  d :     0.030355
      dxz     :     0.008665
      dyz     :     0.008853
      dx2y2   :     0.001543
      dxy     :     0.001440
 19 H s       :     0.711309  s :     0.711309
      pz      :     0.095251  p :     0.321317
      px      :     0.138941
      py      :     0.087125
      dz2     :     0.004600  d :     0.029641
      dxz     :     0.009155
      dyz     :     0.001081
      dx2y2   :     0.007339
      dxy     :     0.007467
 20 P s       :     4.725580  s :     4.725580
      pz      :     2.830237  p :     8.549890
      px      :     2.900561
      py      :     2.819093
      dz2     :     0.166761  d :     0.735984
      dxz     :     0.138319
      dyz     :     0.133808
      dx2y2   :     0.173112
      dxy     :     0.123984
      f0      :     0.007692  f :     0.062564
      f+1     :     0.009687
      f-1     :     0.008617
      f+2     :     0.007973
      f-2     :     0.008596
      f+3     :     0.007831
      f-3     :     0.012167
 21 H s       :     0.844195  s :     0.844195
      pz      :     0.129057  p :     0.266722
      px      :     0.063843
      py      :     0.073822
      dz2     :     0.004236  d :     0.011799
      dxz     :     0.002717
      dyz     :     0.003532
      dx2y2   :     0.000745
      dxy     :     0.000569
 22 H s       :     0.834728  s :     0.834728
      pz      :     0.060222  p :     0.268389
      px      :     0.065174
      py      :     0.142993
      dz2     :     0.001394  d :     0.011906
      dxz     :     0.000318
      dyz     :     0.003087
      dx2y2   :     0.003813
      dxy     :     0.003294
 23 H s       :     0.823625  s :     0.823625
      pz      :     0.084277  p :     0.274573
      px      :     0.124464
      py      :     0.065833
      dz2     :     0.001866  d :     0.012064
      dxz     :     0.003636
      dyz     :     0.000970
      dx2y2   :     0.003361
      dxy     :     0.002232


                      *****************************
                      * MAYER POPULATION ANALYSIS *
                      *****************************

  NA   - Mulliken gross atomic population
  ZA   - Total nuclear charge
  QA   - Mulliken gross atomic charge
  VA   - Mayer's total valence
  BVA  - Mayer's bonded valence
  FA   - Mayer's free valence

  ATOM       NA         ZA         QA         VA         BVA        FA
  0 Ir    16.7654    17.0000     0.2346     5.3838     5.3838     0.0000
  1 C      6.6110     6.0000    -0.6110     3.9239     3.9239     0.0000
  2 C      5.9656     6.0000     0.0344     3.5907     3.5907     0.0000
  3 C      5.8377     6.0000     0.1623     3.2059     3.2059     0.0000
  4 C      5.6245     6.0000     0.3755     2.9434     2.9434     0.0000
  5 C      6.0672     6.0000    -0.0672     3.6372     3.6372     0.0000
  6 C      5.7204     6.0000     0.2796     3.1082     3.1082     0.0000
  7 H      0.8430     1.0000     0.1570     1.1114     1.1114     0.0000
  8 H      0.7796     1.0000     0.2204     1.0818     1.0818     0.0000
  9 H      0.8284     1.0000     0.1716     1.1147     1.1147    -0.0000
 10 H      1.0394     1.0000    -0.0394     1.0744     1.0744     0.0000
 11 H      1.1062     1.0000    -0.1062     1.0819     1.0819     0.0000
 12 H      1.0321     1.0000    -0.0321     1.0698     1.0698     0.0000
 13 H      1.0582     1.0000    -0.0582     1.0992     1.0992     0.0000
 14 H      1.0476     1.0000    -0.0476     1.0714     1.0714     0.0000
 15 C      6.4498     6.0000    -0.4498     3.9533     3.9533     0.0000
 16 H      0.9451     1.0000     0.0549     1.0617     1.0617     0.0000
 17 H      0.8937     1.0000     0.1063     1.1429     1.1429    -0.0000
 18 H      0.8133     1.0000     0.1867     1.0351     1.0351     0.0000
 19 H      0.8059     1.0000     0.1941     1.0692     1.0692     0.0000
 20 P     15.0095    15.0000    -0.0095     3.9855     3.9855    -0.0000
 21 H      0.9256     1.0000     0.0744     0.9649     0.9649     0.0000
 22 H      0.9147     1.0000     0.0853     0.9587     0.9587    -0.0000
 23 H      0.9161     1.0000     0.0839     0.9696     0.9696    -0.0000

  Mayer bond orders larger than 0.100000
B(  0-Ir,  1-C ) :   0.6638 B(  0-Ir,  2-C ) :   0.4191 B(  0-Ir,  3-C ) :   0.4459 
B(  0-Ir,  4-C ) :   0.4885 B(  0-Ir,  5-C ) :   0.4609 B(  0-Ir,  6-C ) :   0.4487 
B(  0-Ir, 15-C ) :   0.5143 B(  0-Ir, 16-H ) :   0.5592 B(  0-Ir, 20-P ) :   0.9254 
B(  1-C ,  5-C ) :   0.1329 B(  1-C ,  7-H ) :   0.9767 B(  1-C ,  8-H ) :   0.9287 
B(  1-C ,  9-H ) :   0.9787 B(  2-C ,  3-C ) :   1.1391 B(  2-C ,  4-C ) :  -0.1502 
B(  2-C ,  6-C ) :   0.9640 B(  2-C , 12-H ) :   1.0585 B(  2-C , 15-C ) :   0.1361 
B(  3-C ,  4-C ) :   0.8901 B(  3-C ,  5-C ) :  -0.1097 B(  3-C ,  6-C ) :  -0.1580 
B(  3-C , 13-H ) :   1.0717 B(  4-C ,  5-C ) :   0.9825 B(  4-C ,  6-C ) :  -0.1835 
B(  4-C , 14-H ) :   0.9848 B(  5-C ,  6-C ) :   1.0909 B(  5-C , 10-H ) :   1.0580 
B(  6-C , 11-H ) :   0.9915 B( 15-C , 16-H ) :   0.3474 B( 15-C , 17-H ) :   0.9890 
B( 15-C , 18-H ) :   0.9389 B( 15-C , 19-H ) :   0.9303 B( 20-P , 21-H ) :   0.9396 
B( 20-P , 22-H ) :   0.9343 B( 20-P , 23-H ) :   0.9492 

-------
TIMINGS
-------

Total SCF time: 0 days 0 hours 3 min 16 sec 

Total time                  ....     196.584 sec
Sum of individual times     ....     195.969 sec  ( 99.7%)

Fock matrix formation       ....     191.806 sec  ( 97.6%)
  XC integration            ....       7.859 sec  (  4.1% of F)
    Basis function eval.    ....       0.677 sec  (  8.6% of XC)
    Density eval.           ....       2.475 sec  ( 31.5% of XC)
    XC-Functional eval.     ....       0.096 sec  (  1.2% of XC)
    XC-Potential eval.      ....       4.001 sec  ( 50.9% of XC)
Diagonalization             ....       1.248 sec  (  0.6%)
Density matrix formation    ....       0.051 sec  (  0.0%)
Population analysis         ....       0.076 sec  (  0.0%)
Initial guess               ....       1.587 sec  (  0.8%)
Orbital Transformation      ....       0.000 sec  (  0.0%)
Orbital Orthonormalization  ....       0.000 sec  (  0.0%)
DIIS solution               ....       0.733 sec  (  0.4%)
Grid generation             ....       0.468 sec  (  0.2%)


-------------------------------------------------------------------------------
                          DFT DISPERSION CORRECTION                            
                                                                               
                              DFTD3 V3.1  Rev 1                                
                          USING Becke-Johnson damping                          
-------------------------------------------------------------------------------
The TPSSH functional is recognized
Active option DFTDOPT                   ...         4   

molecular C6(AA) [au] = 7346.273217 


            DFT-D V3
 parameters
 s6 scaling factor         :     1.0000 
 a1 scaling factor         :     0.4529 
 s8 scaling factor         :     2.2382 
 a2 scaling factor         :     4.6550 
 ad hoc parameters k1-k3   :    16.0000     1.3333    -4.0000 

 Edisp/kcal,au: -23.566982064571  -0.037556372493 
 E6   /kcal   : -10.302625995 
 E8   /kcal   : -13.264356070 
 % E8         :  56.283643080 

-------------------------   ----------------
Dispersion correction           -0.037556372
-------------------------   ----------------


-------------------------   --------------------
FINAL SINGLE POINT ENERGY      -721.456319551397
-------------------------   --------------------


                            ***************************************
                            *     ORCA property calculations      *
                            ***************************************

                                    ---------------------
                                    Active property flags
                                    ---------------------
   (+) Dipole Moment


------------------------------------------------------------------------------
                       ORCA ELECTRIC PROPERTIES CALCULATION
------------------------------------------------------------------------------

Dipole Moment Calculation                       ... on
Quadrupole Moment Calculation                   ... off
Polarizability Calculation                      ... off
GBWName                                         ... TMB31_T1.gbw
Electron density file                           ... TMB31_T1.scfp
The origin for moment calculation is the CENTER OF MASS  = (-0.014281,  0.004026 -0.013184)

-------------
DIPOLE MOMENT
-------------
                                X             Y             Z
Electronic contribution:      4.75541       6.82977     -17.57339
Nuclear contribution   :     -4.43915      -6.73459      18.18954
                        -----------------------------------------
Total Dipole Moment    :      0.31626       0.09518       0.61615
                        -----------------------------------------
Magnitude (a.u.)       :      0.69909
Magnitude (Debye)      :      1.77694



--------------------
Rotational spectrum 
--------------------
 
Rotational constants in cm-1:     0.054508     0.031967     0.031168 
Rotational constants in MHz :  1634.105298   958.356108   934.407674 

 Dipole components along the rotational axes: 
x,y,z [a.u.] :     0.319723     0.012519     0.621568 
x,y,z [Debye]:     0.812671     0.031822     1.579901 

 

Timings for individual modules:

Sum of individual times         ...      200.081 sec (=   3.335 min)
GTO integral calculation        ...        3.128 sec (=   0.052 min)   1.6 %
SCF iterations                  ...      196.953 sec (=   3.283 min)  98.4 %
                             ****ORCA TERMINATED NORMALLY****
TOTAL RUN TIME: 0 days 0 hours 3 minutes 20 seconds 712 msec
