
                                 *****************
                                 * O   R   C   A *
                                 *****************

           --- An Ab Initio, DFT and Semiempirical electronic structure package ---

                  #######################################################
                  #                        -***-                        #
                  #          Department of theory and spectroscopy      #
                  #               Directorship: Frank Neese             #
                  #        Max Planck Institute fuer Kohlenforschung    #
                  #                Kaiser Wilhelm Platz 1               #
                  #                 D-45470 Muelheim/Ruhr               #
                  #                      Germany                        #
                  #                                                     #
                  #                  All rights reserved                #
                  #                        -***-                        #
                  #######################################################


                         Program Version 4.2.0 -  RELEASE  -


 With contributions from (in alphabetic order):
   Daniel Aravena         : Magnetic Suceptibility
   Michael Atanasov       : Ab Initio Ligand Field Theory (pilot matlab implementation)
   Alexander A. Auer      : GIAO ZORA, VPT2
   Ute Becker             : Parallelization
   Giovanni Bistoni       : ED, misc. LED, open-shell LED, HFLED
   Martin Brehm           : Molecular dynamics
   Dmytro Bykov           : SCF Hessian
   Vijay G. Chilkuri      : MRCI spin determinant printing, contributions to CSF-ICE
   Dipayan Datta          : RHF DLPNO-CCSD density
   Achintya Kumar Dutta   : EOM-CC, STEOM-CC
   Dmitry Ganyushin       : Spin-Orbit,Spin-Spin,Magnetic field MRCI
   Miquel Garcia          : C-PCM Hessian, Gaussian charge scheme
   Yang Guo               : DLPNO-NEVPT2, CIM, IAO-localization
   Andreas Hansen         : Spin unrestricted coupled pair/coupled cluster methods
   Benjamin Helmich-Paris : CASSCF linear response (MC-RPA)
   Lee Huntington         : MR-EOM, pCC
   Robert Izsak           : Overlap fitted RIJCOSX, COSX-SCS-MP3, EOM
   Christian Kollmar      : KDIIS, OOCD, Brueckner-CCSD(T), CCSD density
   Simone Kossmann        : Meta GGA functionals, TD-DFT gradient, OOMP2, MP2 Hessian
   Martin Krupicka        : AUTO-CI
   Lucas Lang             : DCDCAS
   Dagmar Lenk            : GEPOL surface, SMD
   Dimitrios Liakos       : Extrapolation schemes; Compound Job, initial MDCI parallelization
   Dimitrios Manganas     : Further ROCIS development; embedding schemes
   Dimitrios Pantazis     : SARC Basis sets
   Taras Petrenko         : DFT Hessian,TD-DFT gradient, ASA, ECA, R-Raman, ABS, FL, XAS/XES, NRVS
   Peter Pinski           : DLPNO-MP2, DLPNO-MP2 Gradient
   Christoph Reimann      : Effective Core Potentials
   Marius Retegan         : Local ZFS, SOC
   Christoph Riplinger    : Optimizer, TS searches, QM/MM, DLPNO-CCSD(T), (RO)-DLPNO pert. Triples
   Tobias Risthaus        : Range-separated hybrids, TD-DFT gradient, RPA, STAB
   Michael Roemelt        : Original ROCIS implementation
   Masaaki Saitow         : Open-shell DLPNO-CCSD energy and density
   Barbara Sandhoefer     : DKH picture change effects
   Avijit Sen             : IP-ROCIS
   Kantharuban Sivalingam : CASSCF convergence, NEVPT2, FIC-MRCI
   Bernardo de Souza      : ESD, SOC TD-DFT
   Georgi Stoychev        : AutoAux, RI-MP2 NMR
   Willem Van den Heuvel  : Paramagnetic NMR
   Boris Wezisla          : Elementary symmetry handling
   Frank Wennmohs         : Technical directorship


 We gratefully acknowledge several colleagues who have allowed us to
 interface, adapt or use parts of their codes:
   Stefan Grimme, W. Hujo, H. Kruse,             : VdW corrections, initial TS optimization,
                  C. Bannwarth                     DFT functionals, gCP, sTDA/sTD-DF
   Ed Valeev, F. Pavosevic, A. Kumar             : LibInt (2-el integral package), F12 methods
   Garnet Chan, S. Sharma, J. Yang, R. Olivares  : DMRG
   Ulf Ekstrom                                   : XCFun DFT Library
   Mihaly Kallay                                 : mrcc  (arbitrary order and MRCC methods)
   Andreas Klamt, Michael Diedenhofen            : otool_cosmo (COSMO solvation model)
   Jiri Pittner, Ondrej Demel                    : Mk-CCSD
   Frank Weinhold                                : gennbo (NPA and NBO analysis)
   Christopher J. Cramer and Donald G. Truhlar   : smd solvation model
   Lars Goerigk                                  : TD-DFT with DH, B97 family of functionals
   V. Asgeirsson, H. Jonsson                     : NEB implementation
   FAccTs GmbH                                   : IRC, NEB, NEB-TS, Multilevel, MM, QM/MM, CI optimization
   S Lehtola, MJT Oliveira, MAL Marques          : LibXC Library


 Your calculation uses the libint2 library for the computation of 2-el integrals
 For citations please refer to: http://libint.valeyev.net

 Your ORCA version has been built with support for libXC version: 4.2.3
 For citations please refer to: https://tddft.org/programs/libxc/

 This ORCA versions uses:
   CBLAS   interface :  Fast vector & matrix operations
   LAPACKE interface :  Fast linear algebra routines
   SCALAPACK package :  Parallel linear algebra routines


Your calculation utilizes the atom-pairwise dispersion correction
with the Becke-Johnson damping scheme (D3BJ)
Cite in your paper:
S.Grimme, S.Ehrlich, L.Goerigk, J Comput Chem, (2011), 32, 1456–1465 
S.Grimme, J.Antony, S.Ehrlich and H.Krieg, J.Chem.Phys., 132, (2010), 154104 
   

----- Orbital basis set information -----
Your calculation utilizes the basis: def2-TZVPPD
   F. Weigend and R. Ahlrichs, Phys. Chem. Chem. Phys. 7, 3297 (2005).
   D. Rappoport and F. Furche, J. Chem. Phys. 133 134105 (2010).

----- AuxJK basis set information -----
Your calculation utilizes the auxiliary basis: def2/JK
   H-Ba, Hf-Rn: F. Weigend, J. Comput. Chem. 29, 167 (2008).

================================================================================
                                        WARNINGS
                       Please study these warnings very carefully!
================================================================================


WARNING: your system is open-shell and RHF/RKS was chosen
  ===> : WILL SWITCH to UHF/UKS


INFO   : the flag for use of LIBINT has been found!

================================================================================
                                       INPUT FILE
================================================================================
NAME = TMD05_Cl.in
|  1> #
|  2> # TMD05_Cl TPSSh-D3BJ/Def2-TZVPPD
|  3> #
|  4> ! tpssh d3bj def2-tzvppd def2/jk grid4 nofinalgrid
|  5> 
|  6> *xyz 0 2
|  7> Cl       0.000000    0.000000    0.000000 
|  8> *
|  9> 
| 10> %maxcore 5000
| 11> 
| 12> %pal
| 13> nprocs = 24
| 14> end
| 15> 
| 16> 
| 17>                          ****END OF INPUT****
================================================================================

                       ****************************
                       * Single Point Calculation *
                       ****************************

---------------------------------
CARTESIAN COORDINATES (ANGSTROEM)
---------------------------------
  Cl     0.000000    0.000000    0.000000

----------------------------
CARTESIAN COORDINATES (A.U.)
----------------------------
  NO LB      ZA    FRAG     MASS         X           Y           Z
   0 Cl   17.0000    0    35.453    0.000000    0.000000    0.000000

--------------------------------
INTERNAL COORDINATES (ANGSTROEM)
--------------------------------
 Cl     0   0   0     0.000000000000     0.00000000     0.00000000

---------------------------
INTERNAL COORDINATES (A.U.)
---------------------------
 Cl     0   0   0     0.000000000000     0.00000000     0.00000000

---------------------
BASIS SET INFORMATION
---------------------
There are 1 groups of distinct atoms

 Group   1 Type Cl  : 15s10p4d1f contracted to 6s6p4d1f pattern {732111/511111/1111/1}

Atom   0Cl   basis set group =>   1
----------------------------------
AUXILIARY/JK BASIS SET INFORMATION
----------------------------------
There are 1 groups of distinct atoms

 Group   1 Type Cl  : 16s12p10d4f1g contracted to 13s11p9d4f1g pattern {4111111111111/21111111111/211111111/1111/1}

Atom   0Cl   basis set group =>   1


           ************************************************************
           *        Program running with 24 parallel MPI-processes    *
           *              working on a common directory               *
           ************************************************************
------------------------------------------------------------------------------
                           ORCA GTO INTEGRAL CALCULATION
------------------------------------------------------------------------------

                         BASIS SET STATISTICS AND STARTUP INFO

 # of primitive gaussian shells          ...   30
 # of primitive gaussian functions       ...   72
 # of contracted shells                  ...   17
 # of contracted basis functions         ...   51
 Highest angular momentum                ...    3
 Maximum contraction depth               ...    7
 Integral package used                   ... LIBINT
 Integral threshhold            Thresh   ...  1.000e-10
 Primitive cut-off              TCut     ...  1.000e-11


------------------------------ INTEGRAL EVALUATION ----------------------------


 * One electron integrals 
 Pre-screening matrix                    ... done
 Shell pair data                         ... done (   0.000 sec)



           ************************************************************
           *        Program running with 24 parallel MPI-processes    *
           *              working on a common directory               *
           ************************************************************
-------------------------------------------------------------------------------
                                 ORCA SCF
-------------------------------------------------------------------------------

------------
SCF SETTINGS
------------
Hamiltonian:
 Density Functional     Method          .... DFT(GTOs)
 Exchange Functional    Exchange        .... TPSS
 Correlation Functional Correlation     .... TPSS
 LDA part of GGA corr.  LDAOpt          .... PW91-LDA
 Gradients option       PostSCFGGA      .... off
 Hybrid DFT is turned on
   Fraction HF Exchange ScalHFX         ....  0.100000
   Scaling of DF-GGA-X  ScalDFX         ....  0.900000
   Scaling of DF-GGA-C  ScalDFC         ....  1.000000
   Scaling of DF-LDA-C  ScalLDAC        ....  1.000000
   Perturbative correction              ....  0.000000
   Density functional embedding theory  .... OFF
   NL short-range parameter             ....  5.200000


General Settings:
 Integral files         IntName         .... TMD05_Cl
 Hartree-Fock type      HFTyp           .... UHF
 Total Charge           Charge          ....    0
 Multiplicity           Mult            ....    2
 Number of Electrons    NEL             ....   17
 Basis Dimension        Dim             ....   51
 Nuclear Repulsion      ENuc            ....      0.0000000000 Eh

Convergence Acceleration:
 DIIS                   CNVDIIS         .... on
   Start iteration      DIISMaxIt       ....    12
   Startup error        DIISStart       ....  0.200000
   # of expansion vecs  DIISMaxEq       ....     5
   Bias factor          DIISBfac        ....   1.050
   Max. coefficient     DIISMaxC        ....  10.000
 Newton-Raphson         CNVNR           .... off
 SOSCF                  CNVSOSCF        .... off
 Level Shifting         CNVShift        .... on
   Level shift para.    LevelShift      ....    0.2500
   Turn off err/grad.   ShiftErr        ....    0.0010
 Zerner damping         CNVZerner       .... off
 Static damping         CNVDamp         .... on
   Fraction old density DampFac         ....    0.7000
   Max. Damping (<1)    DampMax         ....    0.9800
   Min. Damping (>=0)   DampMin         ....    0.0000
   Turn off err/grad.   DampErr         ....    0.1000
 Fernandez-Rico         CNVRico         .... off

SCF Procedure:
 Maximum # iterations   MaxIter         ....   125
 SCF integral mode      SCFMode         .... Direct
   Integral package                     .... LIBINT
 Reset frequency        DirectResetFreq ....    20
 Integral Threshold     Thresh          ....  1.000e-10 Eh
 Primitive CutOff       TCut            ....  1.000e-11 Eh

Convergence Tolerance:
 Convergence Check Mode ConvCheckMode   .... Total+1el-Energy
 Convergence forced     ConvForced      .... 0
 Energy Change          TolE            ....  1.000e-06 Eh
 1-El. energy change                    ....  1.000e-03 Eh
 DIIS Error             TolErr          ....  1.000e-06


Diagonalization of the overlap matrix:
Smallest eigenvalue                        ... 3.142e-02
Time for diagonalization                   ...    0.002 sec
Threshold for overlap eigenvalues          ... 1.000e-08
Number of eigenvalues below threshold      ... 0
Time for construction of square roots      ...    0.001 sec
Total time needed                          ...    0.003 sec

-------------------
DFT GRID GENERATION
-------------------

General Integration Accuracy     IntAcc      ...  4.670
Radial Grid Type                 RadialGrid  ... Gauss-Chebyshev
Angular Grid (max. acc.)         AngularGrid ... Lebedev-302
Angular grid pruning method      GridPruning ... 3 (G Style)
Weight generation scheme         WeightScheme... Becke
Basis function cutoff            BFCut       ...    1.0000e-10
Integration weight cutoff        WCut        ...    1.0000e-14
Grids for H and He will be reduced by one unit

# of grid points (after initial pruning)     ...   6738 (   0.0 sec)
# of grid points (after weights+screening)   ...   6738 (   0.0 sec)
Grid point division into batches done        ...    0.0 sec
Reduced shell lists constructed in    0.0 sec

Total number of grid points                  ...     6738
Total number of batches                      ...      106
Average number of points per batch           ...       63
Average number of grid points per atom       ...     6738
Average number of shells per batch           ...     3.33 (19.61%)
Average number of basis functions per batch  ...    10.00 (19.61%)
Average number of large shells per batch     ...     2.50 (75.00%)
Average number of large basis fcns per batch ...     7.50 (75.00%)
Maximum spatial batch extension              ...  17.78, 17.78, 17.78 au
Average spatial batch extension              ...   0.72,  0.72,  0.74 au

Time for grid setup =    0.069 sec

------------------------------
INITIAL GUESS: MODEL POTENTIAL
------------------------------
Loading Hartree-Fock densities                     ... done
Calculating cut-offs                               ... done
Setting up the integral package                    ... done
Initializing the effective Hamiltonian             ... done
Starting the Coulomb interaction                   ... done (   0.0 sec)
Reading the grid                                   ... done
Mapping shells                                     ... done
Starting the XC term evaluation                    ... done (   0.0 sec)
  promolecular density results
     # of electrons  =     17.000000665
     EX              =    -27.332812851
     EC              =     -0.649439552
     EX+EC           =    -27.982252403
Transforming the Hamiltonian                       ... done (   0.0 sec)
Diagonalizing the Hamiltonian                      ... done (   0.0 sec)
Back transforming the eigenvectors                 ... done (   0.0 sec)
Now organizing SCF variables                       ... done
                      ------------------
                      INITIAL GUESS DONE (   0.2 sec)
                      ------------------
--------------
SCF ITERATIONS
--------------
ITER       Energy         Delta-E        Max-DP      RMS-DP      [F,P]     Damp
               ***  Starting incremental Fock matrix formation  ***
  0   -460.1599164929   0.000000000000 0.00675119  0.00023224  0.0495925 0.7000
  1   -460.1613012416  -0.001384748756 0.00562342  0.00020136  0.0347837 0.7000
                               ***Turning on DIIS***
  2   -460.1623371990  -0.001035957370 0.01366346  0.00050458  0.0243771 0.0000
  3   -460.1649269448  -0.002589745783 0.00149708  0.00006713  0.0032901 0.0000
  4   -460.1649774530  -0.000050508169 0.00154241  0.00004249  0.0006102 0.0000
  5   -460.1649852081  -0.000007755124 0.00031226  0.00000887  0.0002613 0.0000
  6   -460.1649854586  -0.000000250485 0.00008165  0.00000193  0.0000658 0.0000
                 **** Energy Check signals convergence ****

               *****************************************************
               *                     SUCCESS                       *
               *           SCF CONVERGED AFTER   7 CYCLES          *
               *****************************************************


----------------
TOTAL SCF ENERGY
----------------

Total Energy       :         -460.16498547 Eh          -12521.72585 eV

Components:
Nuclear Repulsion  :            0.00000000 Eh               0.00000 eV
Electronic Energy  :         -460.16498547 Eh          -12521.72585 eV
One Electron Energy:         -634.99630206 Eh          -17279.12783 eV
Two Electron Energy:          174.83131659 Eh            4757.40199 eV

Virial components:
Potential Energy   :         -919.58613987 Eh          -25023.21102 eV
Kinetic Energy     :          459.42115439 Eh           12501.48517 eV
Virial Ratio       :            2.00161906


DFT components:
N(Alpha)           :        8.999999961372 electrons
N(Beta)            :        7.999999946149 electrons
N(Total)           :       16.999999907521 electrons
E(X)               :      -24.816864098679 Eh       
E(C)               :       -0.648518487565 Eh       
E(XC)              :      -25.465382586244 Eh       
DFET-embed. en.    :        0.000000000000 Eh       

---------------
SCF CONVERGENCE
---------------

  Last Energy change         ...   -1.2278e-08  Tolerance :   1.0000e-06
  Last MAX-Density change    ...    2.8384e-06  Tolerance :   1.0000e-05
  Last RMS-Density change    ...    9.6527e-08  Tolerance :   1.0000e-06
  Last DIIS Error            ...    2.6088e-06  Tolerance :   1.0000e-06

             **** THE GBW FILE WAS UPDATED (TMD05_Cl.gbw) ****
             **** DENSITY FILE WAS UPDATED (TMD05_Cl.scfp) ****
             **** ENERGY FILE WAS UPDATED (TMD05_Cl.en.tmp) ****
----------------------
UHF SPIN CONTAMINATION
----------------------

Warning: in a DFT calculation there is little theoretical justification to 
         calculate <S**2> as in Hartree-Fock theory. We will do it anyways
         but you should keep in mind that the values have only limited relevance

Expectation value of <S**2>     :     0.754167
Ideal value S*(S+1) for S=0.5   :     0.750000
Deviation                       :     0.004167

             **** THE GBW FILE WAS UPDATED (TMD05_Cl.gbw) ****
             **** DENSITY FILE WAS UPDATED (TMD05_Cl.scfp) ****
----------------
ORBITAL ENERGIES
----------------
                 SPIN UP ORBITALS
  NO   OCC          E(Eh)            E(eV) 
   0   1.0000    -101.428017     -2759.9967 
   1   1.0000      -9.425684      -256.4859 
   2   1.0000      -7.184723      -195.5063 
   3   1.0000      -7.161476      -194.8737 
   4   1.0000      -7.161476      -194.8737 
   5   1.0000      -0.826783       -22.4979 
   6   1.0000      -0.398458       -10.8426 
   7   1.0000      -0.339533        -9.2392 
   8   1.0000      -0.339533        -9.2392 
   9   0.0000       0.045635         1.2418 
  10   0.0000       0.048417         1.3175 
  11   0.0000       0.054473         1.4823 
  12   0.0000       0.054474         1.4823 
  13   0.0000       0.150723         4.1014 
  14   0.0000       0.155130         4.2213 
  15   0.0000       0.155130         4.2213 
  16   0.0000       0.170948         4.6517 
  17   0.0000       0.170948         4.6517 
  18   0.0000       0.423516        11.5245 
  19   0.0000       0.447611        12.1801 
  20   0.0000       0.447612        12.1801 
  21   0.0000       0.505259        13.7488 
  22   0.0000       0.514251        13.9935 
  23   0.0000       0.514251        13.9935 
  24   0.0000       0.547502        14.8983 
  25   0.0000       0.547502        14.8983 
  26   0.0000       0.778283        21.1782 
  27   0.0000       1.811791        49.3013 
  28   0.0000       1.820960        49.5508 
  29   0.0000       1.820960        49.5508 
  30   0.0000       1.852979        50.4221 
  31   0.0000       1.852979        50.4221 
  32   0.0000       2.002449        54.4894 
  33   0.0000       2.008987        54.6673 
  34   0.0000       2.008988        54.6673 
  35   0.0000       2.029365        55.2218 
  36   0.0000       2.029365        55.2218 
  37   0.0000       2.064838        56.1871 
  38   0.0000       2.064838        56.1871 
  39   0.0000       2.210319        60.1458 
  40   0.0000       2.254349        61.3440 
  41   0.0000       2.254349        61.3440 
  42   0.0000       8.023839       218.3398 
  43   0.0000       8.032511       218.5757 
  44   0.0000       8.032511       218.5757 
  45   0.0000       8.058902       219.2939 
  46   0.0000       8.058902       219.2939 
  47   0.0000      10.639731       289.5218 
  48   0.0000      10.677163       290.5404 
  49   0.0000      10.677163       290.5404 
  50   0.0000      24.256448       660.0515 

                 SPIN DOWN ORBITALS
  NO   OCC          E(Eh)            E(eV) 
   0   1.0000    -101.420892     -2759.8028 
   1   1.0000      -9.419930      -256.3293 
   2   1.0000      -7.164138      -194.9461 
   3   1.0000      -7.157960      -194.7780 
   4   1.0000      -7.157960      -194.7780 
   5   1.0000      -0.772250       -21.0140 
   6   1.0000      -0.324818        -8.8387 
   7   1.0000      -0.324818        -8.8387 
   8   0.0000      -0.256695        -6.9850 
   9   0.0000       0.053830         1.4648 
  10   0.0000       0.055739         1.5167 
  11   0.0000       0.055739         1.5167 
  12   0.0000       0.059768         1.6264 
  13   0.0000       0.172645         4.6979 
  14   0.0000       0.172645         4.6979 
  15   0.0000       0.175169         4.7666 
  16   0.0000       0.175171         4.7666 
  17   0.0000       0.179708         4.8901 
  18   0.0000       0.453198        12.3322 
  19   0.0000       0.453199        12.3322 
  20   0.0000       0.458735        12.4828 
  21   0.0000       0.552349        15.0302 
  22   0.0000       0.552349        15.0302 
  23   0.0000       0.558701        15.2030 
  24   0.0000       0.558702        15.2030 
  25   0.0000       0.569081        15.4855 
  26   0.0000       0.803136        21.8544 
  27   0.0000       1.858232        50.5651 
  28   0.0000       1.858233        50.5651 
  29   0.0000       1.861842        50.6633 
  30   0.0000       1.864282        50.7297 
  31   0.0000       1.864282        50.7297 
  32   0.0000       2.068373        56.2833 
  33   0.0000       2.068374        56.2833 
  34   0.0000       2.070411        56.3387 
  35   0.0000       2.070412        56.3388 
  36   0.0000       2.075054        56.4651 
  37   0.0000       2.075593        56.4798 
  38   0.0000       2.075593        56.4798 
  39   0.0000       2.263895        61.6037 
  40   0.0000       2.275447        61.9181 
  41   0.0000       2.275448        61.9181 
  42   0.0000       8.048683       219.0158 
  43   0.0000       8.051989       219.1058 
  44   0.0000       8.051990       219.1058 
  45   0.0000       8.065691       219.4786 
  46   0.0000       8.065691       219.4786 
  47   0.0000      10.677520       290.5501 
  48   0.0000      10.689344       290.8718 
  49   0.0000      10.689344       290.8718 
  50   0.0000      24.270950       660.4461 

                    ********************************
                    * MULLIKEN POPULATION ANALYSIS *
                    ********************************

--------------------------------------------
MULLIKEN ATOMIC CHARGES AND SPIN POPULATIONS
--------------------------------------------
   0 Cl:   -0.000000    1.000000
Sum of atomic charges         :   -0.0000000
Sum of atomic spin populations:    1.0000000

-----------------------------------------------------
MULLIKEN REDUCED ORBITAL CHARGES AND SPIN POPULATIONS
-----------------------------------------------------
CHARGE
  0 Cls       :     5.998100  s :     5.998100
      pz      :     3.582925  p :    10.999356
      px      :     3.995134
      py      :     3.421296
      dz2     :     0.000030  d :     0.001900
      dxz     :     0.000011
      dyz     :     0.001374
      dx2y2   :     0.000469
      dxy     :     0.000015
      f0      :     0.000072  f :     0.000644
      f+1     :     0.000015
      f-1     :     0.000178
      f+2     :     0.000143
      f-2     :     0.000117
      f+3     :     0.000061
      f-3     :     0.000058

SPIN
  0 Cls       :    -0.001119  s :    -0.001119
      pz      :     0.416638  p :     0.999373
      px      :     0.004492
      py      :     0.578243
      dz2     :     0.000018  d :     0.001119
      dxz     :     0.000007
      dyz     :     0.000810
      dx2y2   :     0.000276
      dxy     :     0.000009
      f0      :     0.000070  f :     0.000627
      f+1     :     0.000015
      f-1     :     0.000173
      f+2     :     0.000143
      f-2     :     0.000112
      f+3     :     0.000058
      f-3     :     0.000057


                     *******************************
                     * LOEWDIN POPULATION ANALYSIS *
                     *******************************

-------------------------------------------
LOEWDIN ATOMIC CHARGES AND SPIN POPULATIONS
-------------------------------------------
   0 Cl:   -0.000000    1.000000

----------------------------------------------------
LOEWDIN REDUCED ORBITAL CHARGES AND SPIN POPULATIONS
----------------------------------------------------
CHARGE
  0 Cls       :     5.998100  s :     5.998100
      pz      :     3.582925  p :    10.999356
      px      :     3.995134
      py      :     3.421296
      dz2     :     0.000030  d :     0.001900
      dxz     :     0.000011
      dyz     :     0.001374
      dx2y2   :     0.000469
      dxy     :     0.000015
      f0      :     0.000072  f :     0.000644
      f+1     :     0.000015
      f-1     :     0.000178
      f+2     :     0.000143
      f-2     :     0.000117
      f+3     :     0.000061
      f-3     :     0.000058

SPIN
  0 Cls       :    -0.001119  s :    -0.001119
      pz      :     0.416638  p :     0.999373
      px      :     0.004492
      py      :     0.578243
      dz2     :     0.000018  d :     0.001119
      dxz     :     0.000007
      dyz     :     0.000810
      dx2y2   :     0.000276
      dxy     :     0.000009
      f0      :     0.000070  f :     0.000627
      f+1     :     0.000015
      f-1     :     0.000173
      f+2     :     0.000143
      f-2     :     0.000112
      f+3     :     0.000058
      f-3     :     0.000057


                      *****************************
                      * MAYER POPULATION ANALYSIS *
                      *****************************

  NA   - Mulliken gross atomic population
  ZA   - Total nuclear charge
  QA   - Mulliken gross atomic charge
  VA   - Mayer's total valence
  BVA  - Mayer's bonded valence
  FA   - Mayer's free valence

  ATOM       NA         ZA         QA         VA         BVA        FA
  0 Cl    17.0000    17.0000    -0.0000     1.0083     0.0000     1.0083

  Mayer bond orders larger than 0.100000


-------
TIMINGS
-------

Total SCF time: 0 days 0 hours 0 min 1 sec 

Total time                  ....       1.073 sec
Sum of individual times     ....       0.894 sec  ( 83.3%)

Fock matrix formation       ....       0.713 sec  ( 66.5%)
  XC integration            ....       0.061 sec  (  8.5% of F)
    Basis function eval.    ....       0.003 sec  (  4.5% of XC)
    Density eval.           ....       0.006 sec  ( 10.3% of XC)
    XC-Functional eval.     ....       0.005 sec  (  7.7% of XC)
    XC-Potential eval.      ....       0.009 sec  ( 14.2% of XC)
Diagonalization             ....       0.007 sec  (  0.6%)
Density matrix formation    ....       0.002 sec  (  0.2%)
Population analysis         ....       0.003 sec  (  0.3%)
Initial guess               ....       0.094 sec  (  8.8%)
Orbital Transformation      ....       0.000 sec  (  0.0%)
Orbital Orthonormalization  ....       0.000 sec  (  0.0%)
DIIS solution               ....       0.004 sec  (  0.4%)
Grid generation             ....       0.069 sec  (  6.5%)


-------------------------------------------------------------------------------
                          DFT DISPERSION CORRECTION                            
                                                                               
                              DFTD3 V3.1  Rev 1                                
                          USING Becke-Johnson damping                          
-------------------------------------------------------------------------------
The TPSSH functional is recognized
Active option DFTDOPT                   ...         4   

molecular C6(AA) [au] = 92.309994 


            DFT-D V3
 parameters
 s6 scaling factor         :     1.0000 
 a1 scaling factor         :     0.4529 
 s8 scaling factor         :     2.2382 
 a2 scaling factor         :     4.6550 
 ad hoc parameters k1-k3   :    16.0000     1.3333    -4.0000 

 Edisp/kcal,au: -0.000000000000  -0.000000000000 
 E6   /kcal   :  -0.000000000 
 E8   /kcal   :  -0.000000000 
 % E8         :          -nan 

-------------------------   ----------------
Dispersion correction            0.000000000
-------------------------   ----------------


-------------------------   --------------------
FINAL SINGLE POINT ENERGY      -460.164985470856
-------------------------   --------------------


                            ***************************************
                            *     ORCA property calculations      *
                            ***************************************

                                    ---------------------
                                    Active property flags
                                    ---------------------
   (+) Dipole Moment


------------------------------------------------------------------------------
                       ORCA ELECTRIC PROPERTIES CALCULATION
------------------------------------------------------------------------------

Dipole Moment Calculation                       ... on
Quadrupole Moment Calculation                   ... off
Polarizability Calculation                      ... off
GBWName                                         ... TMD05_Cl.gbw
Electron density file                           ... TMD05_Cl.scfp
The origin for moment calculation is the CENTER OF MASS  = ( 0.000000,  0.000000  0.000000)

-------------
DIPOLE MOMENT
-------------
                                X             Y             Z
Electronic contribution:      0.00000       0.00000       0.00000
Nuclear contribution   :      0.00000       0.00000       0.00000
                        -----------------------------------------
Total Dipole Moment    :      0.00000       0.00000       0.00000
                        -----------------------------------------
Magnitude (a.u.)       :      0.00000
Magnitude (Debye)      :      0.00000



--------------------
Rotational spectrum 
--------------------
 
Rotational constants in cm-1:     0.000000     0.000000     0.000000 
Rotational constants in MHz :     0.000000     0.000000     0.000000 

 Dipole components along the rotational axes: 
x,y,z [a.u.] :     0.000000     0.000000     0.000000 
x,y,z [Debye]:     0.000000     0.000000     0.000000 

 

Timings for individual modules:

Sum of individual times         ...        2.108 sec (=   0.035 min)
GTO integral calculation        ...        0.676 sec (=   0.011 min)  32.1 %
SCF iterations                  ...        1.432 sec (=   0.024 min)  67.9 %
                             ****ORCA TERMINATED NORMALLY****
TOTAL RUN TIME: 0 days 0 hours 0 minutes 2 seconds 612 msec
