
                                 *****************
                                 * O   R   C   A *
                                 *****************

           --- An Ab Initio, DFT and Semiempirical electronic structure package ---

                  #######################################################
                  #                        -***-                        #
                  #          Department of theory and spectroscopy      #
                  #               Directorship: Frank Neese             #
                  #        Max Planck Institute fuer Kohlenforschung    #
                  #                Kaiser Wilhelm Platz 1               #
                  #                 D-45470 Muelheim/Ruhr               #
                  #                      Germany                        #
                  #                                                     #
                  #                  All rights reserved                #
                  #                        -***-                        #
                  #######################################################


                         Program Version 4.2.0 -  RELEASE  -


 With contributions from (in alphabetic order):
   Daniel Aravena         : Magnetic Suceptibility
   Michael Atanasov       : Ab Initio Ligand Field Theory (pilot matlab implementation)
   Alexander A. Auer      : GIAO ZORA, VPT2
   Ute Becker             : Parallelization
   Giovanni Bistoni       : ED, misc. LED, open-shell LED, HFLED
   Martin Brehm           : Molecular dynamics
   Dmytro Bykov           : SCF Hessian
   Vijay G. Chilkuri      : MRCI spin determinant printing, contributions to CSF-ICE
   Dipayan Datta          : RHF DLPNO-CCSD density
   Achintya Kumar Dutta   : EOM-CC, STEOM-CC
   Dmitry Ganyushin       : Spin-Orbit,Spin-Spin,Magnetic field MRCI
   Miquel Garcia          : C-PCM Hessian, Gaussian charge scheme
   Yang Guo               : DLPNO-NEVPT2, CIM, IAO-localization
   Andreas Hansen         : Spin unrestricted coupled pair/coupled cluster methods
   Benjamin Helmich-Paris : CASSCF linear response (MC-RPA)
   Lee Huntington         : MR-EOM, pCC
   Robert Izsak           : Overlap fitted RIJCOSX, COSX-SCS-MP3, EOM
   Christian Kollmar      : KDIIS, OOCD, Brueckner-CCSD(T), CCSD density
   Simone Kossmann        : Meta GGA functionals, TD-DFT gradient, OOMP2, MP2 Hessian
   Martin Krupicka        : AUTO-CI
   Lucas Lang             : DCDCAS
   Dagmar Lenk            : GEPOL surface, SMD
   Dimitrios Liakos       : Extrapolation schemes; Compound Job, initial MDCI parallelization
   Dimitrios Manganas     : Further ROCIS development; embedding schemes
   Dimitrios Pantazis     : SARC Basis sets
   Taras Petrenko         : DFT Hessian,TD-DFT gradient, ASA, ECA, R-Raman, ABS, FL, XAS/XES, NRVS
   Peter Pinski           : DLPNO-MP2, DLPNO-MP2 Gradient
   Christoph Reimann      : Effective Core Potentials
   Marius Retegan         : Local ZFS, SOC
   Christoph Riplinger    : Optimizer, TS searches, QM/MM, DLPNO-CCSD(T), (RO)-DLPNO pert. Triples
   Tobias Risthaus        : Range-separated hybrids, TD-DFT gradient, RPA, STAB
   Michael Roemelt        : Original ROCIS implementation
   Masaaki Saitow         : Open-shell DLPNO-CCSD energy and density
   Barbara Sandhoefer     : DKH picture change effects
   Avijit Sen             : IP-ROCIS
   Kantharuban Sivalingam : CASSCF convergence, NEVPT2, FIC-MRCI
   Bernardo de Souza      : ESD, SOC TD-DFT
   Georgi Stoychev        : AutoAux, RI-MP2 NMR
   Willem Van den Heuvel  : Paramagnetic NMR
   Boris Wezisla          : Elementary symmetry handling
   Frank Wennmohs         : Technical directorship


 We gratefully acknowledge several colleagues who have allowed us to
 interface, adapt or use parts of their codes:
   Stefan Grimme, W. Hujo, H. Kruse,             : VdW corrections, initial TS optimization,
                  C. Bannwarth                     DFT functionals, gCP, sTDA/sTD-DF
   Ed Valeev, F. Pavosevic, A. Kumar             : LibInt (2-el integral package), F12 methods
   Garnet Chan, S. Sharma, J. Yang, R. Olivares  : DMRG
   Ulf Ekstrom                                   : XCFun DFT Library
   Mihaly Kallay                                 : mrcc  (arbitrary order and MRCC methods)
   Andreas Klamt, Michael Diedenhofen            : otool_cosmo (COSMO solvation model)
   Jiri Pittner, Ondrej Demel                    : Mk-CCSD
   Frank Weinhold                                : gennbo (NPA and NBO analysis)
   Christopher J. Cramer and Donald G. Truhlar   : smd solvation model
   Lars Goerigk                                  : TD-DFT with DH, B97 family of functionals
   V. Asgeirsson, H. Jonsson                     : NEB implementation
   FAccTs GmbH                                   : IRC, NEB, NEB-TS, Multilevel, MM, QM/MM, CI optimization
   S Lehtola, MJT Oliveira, MAL Marques          : LibXC Library


 Your calculation uses the libint2 library for the computation of 2-el integrals
 For citations please refer to: http://libint.valeyev.net

 Your ORCA version has been built with support for libXC version: 4.2.3
 For citations please refer to: https://tddft.org/programs/libxc/

 This ORCA versions uses:
   CBLAS   interface :  Fast vector & matrix operations
   LAPACKE interface :  Fast linear algebra routines
   SCALAPACK package :  Parallel linear algebra routines


Your calculation utilizes the atom-pairwise dispersion correction
with the Becke-Johnson damping scheme (D3BJ)
Cite in your paper:
S.Grimme, S.Ehrlich, L.Goerigk, J Comput Chem, (2011), 32, 1456–1465 
S.Grimme, J.Antony, S.Ehrlich and H.Krieg, J.Chem.Phys., 132, (2010), 154104 
   

----- Orbital basis set information -----
Your calculation utilizes the basis: def2-TZVPPD
   F. Weigend and R. Ahlrichs, Phys. Chem. Chem. Phys. 7, 3297 (2005).
   D. Rappoport and F. Furche, J. Chem. Phys. 133 134105 (2010).

----- AuxJK basis set information -----
Your calculation utilizes the auxiliary basis: def2/JK
   H-Ba, Hf-Rn: F. Weigend, J. Comput. Chem. 29, 167 (2008).

================================================================================
                                        WARNINGS
                       Please study these warnings very carefully!
================================================================================


WARNING: your system is open-shell and RHF/RKS was chosen
  ===> : WILL SWITCH to UHF/UKS


INFO   : the flag for use of LIBINT has been found!

================================================================================
                                       INPUT FILE
================================================================================
NAME = TMD04_S.in
|  1> #
|  2> # TMD04_S TPSSh-D3BJ/Def2-TZVPPD
|  3> #
|  4> ! tpssh d3bj def2-tzvppd def2/jk grid4 nofinalgrid
|  5> 
|  6> *xyz 0 3
|  7> S        0.000000    0.000000    0.000000 
|  8> *
|  9> 
| 10> %maxcore 5000
| 11> 
| 12> %pal
| 13> nprocs = 24
| 14> end
| 15> 
| 16> 
| 17>                          ****END OF INPUT****
================================================================================

                       ****************************
                       * Single Point Calculation *
                       ****************************

---------------------------------
CARTESIAN COORDINATES (ANGSTROEM)
---------------------------------
  S      0.000000    0.000000    0.000000

----------------------------
CARTESIAN COORDINATES (A.U.)
----------------------------
  NO LB      ZA    FRAG     MASS         X           Y           Z
   0 S    16.0000    0    32.060    0.000000    0.000000    0.000000

--------------------------------
INTERNAL COORDINATES (ANGSTROEM)
--------------------------------
 S      0   0   0     0.000000000000     0.00000000     0.00000000

---------------------------
INTERNAL COORDINATES (A.U.)
---------------------------
 S      0   0   0     0.000000000000     0.00000000     0.00000000

---------------------
BASIS SET INFORMATION
---------------------
There are 1 groups of distinct atoms

 Group   1 Type S   : 15s10p4d1f contracted to 6s6p4d1f pattern {732111/511111/1111/1}

Atom   0S    basis set group =>   1
----------------------------------
AUXILIARY/JK BASIS SET INFORMATION
----------------------------------
There are 1 groups of distinct atoms

 Group   1 Type S   : 16s12p10d4f1g contracted to 13s11p9d4f1g pattern {4111111111111/21111111111/211111111/1111/1}

Atom   0S    basis set group =>   1


           ************************************************************
           *        Program running with 24 parallel MPI-processes    *
           *              working on a common directory               *
           ************************************************************
------------------------------------------------------------------------------
                           ORCA GTO INTEGRAL CALCULATION
------------------------------------------------------------------------------

                         BASIS SET STATISTICS AND STARTUP INFO

 # of primitive gaussian shells          ...   30
 # of primitive gaussian functions       ...   72
 # of contracted shells                  ...   17
 # of contracted basis functions         ...   51
 Highest angular momentum                ...    3
 Maximum contraction depth               ...    7
 Integral package used                   ... LIBINT
 Integral threshhold            Thresh   ...  1.000e-10
 Primitive cut-off              TCut     ...  1.000e-11


------------------------------ INTEGRAL EVALUATION ----------------------------


 * One electron integrals 
 Pre-screening matrix                    ... done
 Shell pair data                         ... done (   0.000 sec)



           ************************************************************
           *        Program running with 24 parallel MPI-processes    *
           *              working on a common directory               *
           ************************************************************
-------------------------------------------------------------------------------
                                 ORCA SCF
-------------------------------------------------------------------------------

------------
SCF SETTINGS
------------
Hamiltonian:
 Density Functional     Method          .... DFT(GTOs)
 Exchange Functional    Exchange        .... TPSS
 Correlation Functional Correlation     .... TPSS
 LDA part of GGA corr.  LDAOpt          .... PW91-LDA
 Gradients option       PostSCFGGA      .... off
 Hybrid DFT is turned on
   Fraction HF Exchange ScalHFX         ....  0.100000
   Scaling of DF-GGA-X  ScalDFX         ....  0.900000
   Scaling of DF-GGA-C  ScalDFC         ....  1.000000
   Scaling of DF-LDA-C  ScalLDAC        ....  1.000000
   Perturbative correction              ....  0.000000
   Density functional embedding theory  .... OFF
   NL short-range parameter             ....  5.200000


General Settings:
 Integral files         IntName         .... TMD04_S
 Hartree-Fock type      HFTyp           .... UHF
 Total Charge           Charge          ....    0
 Multiplicity           Mult            ....    3
 Number of Electrons    NEL             ....   16
 Basis Dimension        Dim             ....   51
 Nuclear Repulsion      ENuc            ....      0.0000000000 Eh

Convergence Acceleration:
 DIIS                   CNVDIIS         .... on
   Start iteration      DIISMaxIt       ....    12
   Startup error        DIISStart       ....  0.200000
   # of expansion vecs  DIISMaxEq       ....     5
   Bias factor          DIISBfac        ....   1.050
   Max. coefficient     DIISMaxC        ....  10.000
 Newton-Raphson         CNVNR           .... off
 SOSCF                  CNVSOSCF        .... off
 Level Shifting         CNVShift        .... on
   Level shift para.    LevelShift      ....    0.2500
   Turn off err/grad.   ShiftErr        ....    0.0010
 Zerner damping         CNVZerner       .... off
 Static damping         CNVDamp         .... on
   Fraction old density DampFac         ....    0.7000
   Max. Damping (<1)    DampMax         ....    0.9800
   Min. Damping (>=0)   DampMin         ....    0.0000
   Turn off err/grad.   DampErr         ....    0.1000
 Fernandez-Rico         CNVRico         .... off

SCF Procedure:
 Maximum # iterations   MaxIter         ....   125
 SCF integral mode      SCFMode         .... Direct
   Integral package                     .... LIBINT
 Reset frequency        DirectResetFreq ....    20
 Integral Threshold     Thresh          ....  1.000e-10 Eh
 Primitive CutOff       TCut            ....  1.000e-11 Eh

Convergence Tolerance:
 Convergence Check Mode ConvCheckMode   .... Total+1el-Energy
 Convergence forced     ConvForced      .... 0
 Energy Change          TolE            ....  1.000e-06 Eh
 1-El. energy change                    ....  1.000e-03 Eh
 DIIS Error             TolErr          ....  1.000e-06


Diagonalization of the overlap matrix:
Smallest eigenvalue                        ... 3.254e-02
Time for diagonalization                   ...    0.002 sec
Threshold for overlap eigenvalues          ... 1.000e-08
Number of eigenvalues below threshold      ... 0
Time for construction of square roots      ...    0.001 sec
Total time needed                          ...    0.003 sec

-------------------
DFT GRID GENERATION
-------------------

General Integration Accuracy     IntAcc      ...  4.670
Radial Grid Type                 RadialGrid  ... Gauss-Chebyshev
Angular Grid (max. acc.)         AngularGrid ... Lebedev-302
Angular grid pruning method      GridPruning ... 3 (G Style)
Weight generation scheme         WeightScheme... Becke
Basis function cutoff            BFCut       ...    1.0000e-10
Integration weight cutoff        WCut        ...    1.0000e-14
Grids for H and He will be reduced by one unit

# of grid points (after initial pruning)     ...   6846 (   0.0 sec)
# of grid points (after weights+screening)   ...   6846 (   0.0 sec)
Grid point division into batches done        ...    0.0 sec
Reduced shell lists constructed in    0.0 sec

Total number of grid points                  ...     6846
Total number of batches                      ...      107
Average number of points per batch           ...       63
Average number of grid points per atom       ...     6846
Average number of shells per batch           ...     4.17 (24.51%)
Average number of basis functions per batch  ...    10.83 (21.24%)
Average number of large shells per batch     ...     3.33 (80.00%)
Average number of large basis fcns per batch ...    10.00 (92.31%)
Maximum spatial batch extension              ...  17.78, 17.78, 17.78 au
Average spatial batch extension              ...   0.72,  0.72,  0.74 au

Time for grid setup =    0.062 sec

------------------------------
INITIAL GUESS: MODEL POTENTIAL
------------------------------
Loading Hartree-Fock densities                     ... done
Calculating cut-offs                               ... done
Setting up the integral package                    ... done
Initializing the effective Hamiltonian             ... done
Starting the Coulomb interaction                   ... done (   0.0 sec)
Reading the grid                                   ... done
Mapping shells                                     ... done
Starting the XC term evaluation                    ... done (   0.0 sec)
  promolecular density results
     # of electrons  =     16.000000228
     EX              =    -24.807173065
     EC              =     -0.594926646
     EX+EC           =    -25.402099711
Transforming the Hamiltonian                       ... done (   0.0 sec)
Diagonalizing the Hamiltonian                      ... done (   0.0 sec)
Back transforming the eigenvectors                 ... done (   0.0 sec)
Now organizing SCF variables                       ... done
                      ------------------
                      INITIAL GUESS DONE (   0.2 sec)
                      ------------------
--------------
SCF ITERATIONS
--------------
ITER       Energy         Delta-E        Max-DP      RMS-DP      [F,P]     Damp
               ***  Starting incremental Fock matrix formation  ***
  0   -398.1251693779   0.000000000000 0.00787881  0.00028213  0.0459174 0.7000
  1   -398.1266864840  -0.001517106110 0.00737712  0.00026656  0.0320832 0.7000
                               ***Turning on DIIS***
  2   -398.1278604780  -0.001173993919 0.02015515  0.00070833  0.0224053 0.0000
  3   -398.1308597133  -0.002999235333 0.00512891  0.00011677  0.0030138 0.0000
  4   -398.1309266080  -0.000066894694 0.00184579  0.00006256  0.0007191 0.0000
  5   -398.1309389665  -0.000012358567 0.00059447  0.00001269  0.0004352 0.0000
  6   -398.1309392602  -0.000000293633 0.00009053  0.00000224  0.0000532 0.0000
                 **** Energy Check signals convergence ****

               *****************************************************
               *                     SUCCESS                       *
               *           SCF CONVERGED AFTER   7 CYCLES          *
               *****************************************************


----------------
TOTAL SCF ENERGY
----------------

Total Energy       :         -398.13093927 Eh          -10833.69363 eV

Components:
Nuclear Repulsion  :            0.00000000 Eh               0.00000 eV
Electronic Energy  :         -398.13093927 Eh          -10833.69363 eV
One Electron Energy:         -549.50475541 Eh          -14952.78458 eV
Two Electron Energy:          151.37381614 Eh            4119.09095 eV

Virial components:
Potential Energy   :         -795.54773670 Eh          -21647.95448 eV
Kinetic Energy     :          397.41679743 Eh           10814.26084 eV
Virial Ratio       :            2.00179696


DFT components:
N(Alpha)           :        9.000000063700 electrons
N(Beta)            :        7.000000115159 electrons
N(Total)           :       16.000000178859 electrons
E(X)               :      -22.558509995217 Eh       
E(C)               :       -0.588436087410 Eh       
E(XC)              :      -23.146946082627 Eh       
DFET-embed. en.    :        0.000000000000 Eh       

---------------
SCF CONVERGENCE
---------------

  Last Energy change         ...   -8.8231e-09  Tolerance :   1.0000e-06
  Last MAX-Density change    ...    2.0995e-05  Tolerance :   1.0000e-05
  Last RMS-Density change    ...    4.8370e-07  Tolerance :   1.0000e-06
  Last DIIS Error            ...    1.4473e-05  Tolerance :   1.0000e-06

             **** THE GBW FILE WAS UPDATED (TMD04_S.gbw) ****
             **** DENSITY FILE WAS UPDATED (TMD04_S.scfp) ****
             **** ENERGY FILE WAS UPDATED (TMD04_S.en.tmp) ****
----------------------
UHF SPIN CONTAMINATION
----------------------

Warning: in a DFT calculation there is little theoretical justification to 
         calculate <S**2> as in Hartree-Fock theory. We will do it anyways
         but you should keep in mind that the values have only limited relevance

Expectation value of <S**2>     :     2.005586
Ideal value S*(S+1) for S=1.0   :     2.000000
Deviation                       :     0.005586

             **** THE GBW FILE WAS UPDATED (TMD04_S.gbw) ****
             **** DENSITY FILE WAS UPDATED (TMD04_S.scfp) ****
----------------
ORBITAL ENERGIES
----------------
                 SPIN UP ORBITALS
  NO   OCC          E(Eh)            E(eV) 
   0   1.0000     -88.775038     -2415.6916 
   1   1.0000      -7.917205      -215.4381 
   2   1.0000      -5.872915      -159.8101 
   3   1.0000      -5.872915      -159.8101 
   4   1.0000      -5.853353      -159.2778 
   5   1.0000      -0.707782       -19.2597 
   6   1.0000      -0.325516        -8.8577 
   7   1.0000      -0.325516        -8.8577 
   8   1.0000      -0.273280        -7.4363 
   9   0.0000       0.028822         0.7843 
  10   0.0000       0.039817         1.0835 
  11   0.0000       0.039819         1.0835 
  12   0.0000       0.045627         1.2416 
  13   0.0000       0.113743         3.0951 
  14   0.0000       0.113743         3.0951 
  15   0.0000       0.127531         3.4703 
  16   0.0000       0.127531         3.4703 
  17   0.0000       0.132986         3.6187 
  18   0.0000       0.354515         9.6469 
  19   0.0000       0.354516         9.6469 
  20   0.0000       0.375837        10.2271 
  21   0.0000       0.408847        11.1253 
  22   0.0000       0.408848        11.1253 
  23   0.0000       0.437415        11.9027 
  24   0.0000       0.437415        11.9027 
  25   0.0000       0.449193        12.2232 
  26   0.0000       0.610402        16.6099 
  27   0.0000       1.500813        40.8392 
  28   0.0000       1.500813        40.8392 
  29   0.0000       1.528221        41.5850 
  30   0.0000       1.528221        41.5850 
  31   0.0000       1.539032        41.8792 
  32   0.0000       1.568529        42.6819 
  33   0.0000       1.568529        42.6819 
  34   0.0000       1.598306        43.4921 
  35   0.0000       1.598306        43.4921 
  36   0.0000       1.617527        44.0152 
  37   0.0000       1.617527        44.0152 
  38   0.0000       1.624031        44.1921 
  39   0.0000       1.817590        49.4591 
  40   0.0000       1.817590        49.4591 
  41   0.0000       1.855444        50.4892 
  42   0.0000       6.645890       180.8439 
  43   0.0000       6.645890       180.8439 
  44   0.0000       6.668324       181.4543 
  45   0.0000       6.668324       181.4543 
  46   0.0000       6.676044       181.6644 
  47   0.0000       8.771882       238.6950 
  48   0.0000       8.771882       238.6950 
  49   0.0000       8.803775       239.5629 
  50   0.0000      17.879480       486.5254 

                 SPIN DOWN ORBITALS
  NO   OCC          E(Eh)            E(eV) 
   0   1.0000     -88.763388     -2415.3746 
   1   1.0000      -7.907072      -215.1624 
   2   1.0000      -5.852454      -159.2534 
   3   1.0000      -5.852454      -159.2534 
   4   1.0000      -5.847247      -159.1117 
   5   1.0000      -0.608889       -16.5687 
   6   1.0000      -0.250247        -6.8096 
   7   0.0000      -0.182800        -4.9742 
   8   0.0000      -0.182800        -4.9742 
   9   0.0000       0.045785         1.2459 
  10   0.0000       0.048554         1.3212 
  11   0.0000       0.056207         1.5295 
  12   0.0000       0.056214         1.5297 
  13   0.0000       0.146768         3.9938 
  14   0.0000       0.146769         3.9938 
  15   0.0000       0.148492         4.0407 
  16   0.0000       0.154101         4.1933 
  17   0.0000       0.154101         4.1933 
  18   0.0000       0.385294        10.4844 
  19   0.0000       0.393247        10.7008 
  20   0.0000       0.393249        10.7009 
  21   0.0000       0.482649        13.1335 
  22   0.0000       0.482649        13.1335 
  23   0.0000       0.485467        13.2102 
  24   0.0000       0.498161        13.5557 
  25   0.0000       0.498162        13.5557 
  26   0.0000       0.654219        17.8022 
  27   0.0000       1.570408        42.7330 
  28   0.0000       1.570408        42.7330 
  29   0.0000       1.574382        42.8411 
  30   0.0000       1.574382        42.8411 
  31   0.0000       1.581699        43.0402 
  32   0.0000       1.667575        45.3770 
  33   0.0000       1.667575        45.3770 
  34   0.0000       1.671715        45.4897 
  35   0.0000       1.671715        45.4897 
  36   0.0000       1.677183        45.6385 
  37   0.0000       1.677183        45.6385 
  38   0.0000       1.677239        45.6400 
  39   0.0000       1.879521        51.1444 
  40   0.0000       1.879521        51.1444 
  41   0.0000       1.901318        51.7375 
  42   0.0000       6.679464       181.7575 
  43   0.0000       6.679464       181.7575 
  44   0.0000       6.692597       182.1148 
  45   0.0000       6.692597       182.1148 
  46   0.0000       6.697044       182.2358 
  47   0.0000       8.815669       239.8865 
  48   0.0000       8.815669       239.8865 
  49   0.0000       8.828513       240.2361 
  50   0.0000      17.906364       487.2569 

                    ********************************
                    * MULLIKEN POPULATION ANALYSIS *
                    ********************************

--------------------------------------------
MULLIKEN ATOMIC CHARGES AND SPIN POPULATIONS
--------------------------------------------
   0 S :    0.000000    2.000000
Sum of atomic charges         :    0.0000000
Sum of atomic spin populations:    2.0000000

-----------------------------------------------------
MULLIKEN REDUCED ORBITAL CHARGES AND SPIN POPULATIONS
-----------------------------------------------------
CHARGE
  0 S s       :     5.997699  s :     5.997699
      pz      :     3.000113  p :     9.999229
      px      :     3.997782
      py      :     3.001334
      dz2     :     0.000574  d :     0.002301
      dxz     :     0.000002
      dyz     :     0.000000
      dx2y2   :     0.001714
      dxy     :     0.000011
      f0      :     0.000078  f :     0.000771
      f+1     :     0.000132
      f-1     :     0.000013
      f+2     :     0.000130
      f-2     :     0.000001
      f+3     :     0.000220
      f-3     :     0.000196

SPIN
  0 S s       :    -0.000819  s :    -0.000819
      pz      :     0.999468  p :     1.999253
      px      :     0.001538
      py      :     0.998247
      dz2     :     0.000204  d :     0.000819
      dxz     :     0.000001
      dyz     :     0.000000
      dx2y2   :     0.000610
      dxy     :     0.000004
      f0      :     0.000078  f :     0.000747
      f+1     :     0.000123
      f-1     :     0.000013
      f+2     :     0.000130
      f-2     :     0.000001
      f+3     :     0.000205
      f-3     :     0.000196


                     *******************************
                     * LOEWDIN POPULATION ANALYSIS *
                     *******************************

-------------------------------------------
LOEWDIN ATOMIC CHARGES AND SPIN POPULATIONS
-------------------------------------------
   0 S :    0.000000    2.000000

----------------------------------------------------
LOEWDIN REDUCED ORBITAL CHARGES AND SPIN POPULATIONS
----------------------------------------------------
CHARGE
  0 S s       :     5.997699  s :     5.997699
      pz      :     3.000113  p :     9.999229
      px      :     3.997782
      py      :     3.001334
      dz2     :     0.000574  d :     0.002301
      dxz     :     0.000002
      dyz     :     0.000000
      dx2y2   :     0.001714
      dxy     :     0.000011
      f0      :     0.000078  f :     0.000771
      f+1     :     0.000132
      f-1     :     0.000013
      f+2     :     0.000130
      f-2     :     0.000001
      f+3     :     0.000220
      f-3     :     0.000196

SPIN
  0 S s       :    -0.000819  s :    -0.000819
      pz      :     0.999468  p :     1.999253
      px      :     0.001538
      py      :     0.998247
      dz2     :     0.000204  d :     0.000819
      dxz     :     0.000001
      dyz     :     0.000000
      dx2y2   :     0.000610
      dxy     :     0.000004
      f0      :     0.000078  f :     0.000747
      f+1     :     0.000123
      f-1     :     0.000013
      f+2     :     0.000130
      f-2     :     0.000001
      f+3     :     0.000205
      f-3     :     0.000196


                      *****************************
                      * MAYER POPULATION ANALYSIS *
                      *****************************

  NA   - Mulliken gross atomic population
  ZA   - Total nuclear charge
  QA   - Mulliken gross atomic charge
  VA   - Mayer's total valence
  BVA  - Mayer's bonded valence
  FA   - Mayer's free valence

  ATOM       NA         ZA         QA         VA         BVA        FA
  0 S     16.0000    16.0000     0.0000     2.0112     0.0000     2.0112

  Mayer bond orders larger than 0.100000


-------
TIMINGS
-------

Total SCF time: 0 days 0 hours 0 min 1 sec 

Total time                  ....       1.116 sec
Sum of individual times     ....       0.935 sec  ( 83.8%)

Fock matrix formation       ....       0.757 sec  ( 67.8%)
  XC integration            ....       0.063 sec  (  8.3% of F)
    Basis function eval.    ....       0.003 sec  (  4.4% of XC)
    Density eval.           ....       0.006 sec  ( 10.1% of XC)
    XC-Functional eval.     ....       0.005 sec  (  7.5% of XC)
    XC-Potential eval.      ....       0.009 sec  ( 14.5% of XC)
Diagonalization             ....       0.007 sec  (  0.6%)
Density matrix formation    ....       0.002 sec  (  0.2%)
Population analysis         ....       0.003 sec  (  0.3%)
Initial guess               ....       0.100 sec  (  9.0%)
Orbital Transformation      ....       0.000 sec  (  0.0%)
Orbital Orthonormalization  ....       0.000 sec  (  0.0%)
DIIS solution               ....       0.004 sec  (  0.4%)
Grid generation             ....       0.062 sec  (  5.5%)


-------------------------------------------------------------------------------
                          DFT DISPERSION CORRECTION                            
                                                                               
                              DFTD3 V3.1  Rev 1                                
                          USING Becke-Johnson damping                          
-------------------------------------------------------------------------------
The TPSSH functional is recognized
Active option DFTDOPT                   ...         4   

molecular C6(AA) [au] = 133.949864 


            DFT-D V3
 parameters
 s6 scaling factor         :     1.0000 
 a1 scaling factor         :     0.4529 
 s8 scaling factor         :     2.2382 
 a2 scaling factor         :     4.6550 
 ad hoc parameters k1-k3   :    16.0000     1.3333    -4.0000 

 Edisp/kcal,au: -0.000000000000  -0.000000000000 
 E6   /kcal   :  -0.000000000 
 E8   /kcal   :  -0.000000000 
 % E8         :          -nan 

-------------------------   ----------------
Dispersion correction            0.000000000
-------------------------   ----------------


-------------------------   --------------------
FINAL SINGLE POINT ENERGY      -398.130939269001
-------------------------   --------------------


                            ***************************************
                            *     ORCA property calculations      *
                            ***************************************

                                    ---------------------
                                    Active property flags
                                    ---------------------
   (+) Dipole Moment


------------------------------------------------------------------------------
                       ORCA ELECTRIC PROPERTIES CALCULATION
------------------------------------------------------------------------------

Dipole Moment Calculation                       ... on
Quadrupole Moment Calculation                   ... off
Polarizability Calculation                      ... off
GBWName                                         ... TMD04_S.gbw
Electron density file                           ... TMD04_S.scfp
The origin for moment calculation is the CENTER OF MASS  = ( 0.000000,  0.000000  0.000000)

-------------
DIPOLE MOMENT
-------------
                                X             Y             Z
Electronic contribution:     -0.00000       0.00000      -0.00000
Nuclear contribution   :      0.00000       0.00000       0.00000
                        -----------------------------------------
Total Dipole Moment    :     -0.00000       0.00000      -0.00000
                        -----------------------------------------
Magnitude (a.u.)       :      0.00000
Magnitude (Debye)      :      0.00000



--------------------
Rotational spectrum 
--------------------
 
Rotational constants in cm-1:     0.000000     0.000000     0.000000 
Rotational constants in MHz :     0.000000     0.000000     0.000000 

 Dipole components along the rotational axes: 
x,y,z [a.u.] :    -0.000000     0.000000    -0.000000 
x,y,z [Debye]:    -0.000000     0.000000    -0.000000 

 

Timings for individual modules:

Sum of individual times         ...        2.115 sec (=   0.035 min)
GTO integral calculation        ...        0.657 sec (=   0.011 min)  31.1 %
SCF iterations                  ...        1.458 sec (=   0.024 min)  68.9 %
                             ****ORCA TERMINATED NORMALLY****
TOTAL RUN TIME: 0 days 0 hours 0 minutes 2 seconds 602 msec
