
                                 *****************
                                 * O   R   C   A *
                                 *****************

           --- An Ab Initio, DFT and Semiempirical electronic structure package ---

                  #######################################################
                  #                        -***-                        #
                  #          Department of theory and spectroscopy      #
                  #               Directorship: Frank Neese             #
                  #        Max Planck Institute fuer Kohlenforschung    #
                  #                Kaiser Wilhelm Platz 1               #
                  #                 D-45470 Muelheim/Ruhr               #
                  #                      Germany                        #
                  #                                                     #
                  #                  All rights reserved                #
                  #                        -***-                        #
                  #######################################################


                         Program Version 4.2.0 -  RELEASE  -


 With contributions from (in alphabetic order):
   Daniel Aravena         : Magnetic Suceptibility
   Michael Atanasov       : Ab Initio Ligand Field Theory (pilot matlab implementation)
   Alexander A. Auer      : GIAO ZORA, VPT2
   Ute Becker             : Parallelization
   Giovanni Bistoni       : ED, misc. LED, open-shell LED, HFLED
   Martin Brehm           : Molecular dynamics
   Dmytro Bykov           : SCF Hessian
   Vijay G. Chilkuri      : MRCI spin determinant printing, contributions to CSF-ICE
   Dipayan Datta          : RHF DLPNO-CCSD density
   Achintya Kumar Dutta   : EOM-CC, STEOM-CC
   Dmitry Ganyushin       : Spin-Orbit,Spin-Spin,Magnetic field MRCI
   Miquel Garcia          : C-PCM Hessian, Gaussian charge scheme
   Yang Guo               : DLPNO-NEVPT2, CIM, IAO-localization
   Andreas Hansen         : Spin unrestricted coupled pair/coupled cluster methods
   Benjamin Helmich-Paris : CASSCF linear response (MC-RPA)
   Lee Huntington         : MR-EOM, pCC
   Robert Izsak           : Overlap fitted RIJCOSX, COSX-SCS-MP3, EOM
   Christian Kollmar      : KDIIS, OOCD, Brueckner-CCSD(T), CCSD density
   Simone Kossmann        : Meta GGA functionals, TD-DFT gradient, OOMP2, MP2 Hessian
   Martin Krupicka        : AUTO-CI
   Lucas Lang             : DCDCAS
   Dagmar Lenk            : GEPOL surface, SMD
   Dimitrios Liakos       : Extrapolation schemes; Compound Job, initial MDCI parallelization
   Dimitrios Manganas     : Further ROCIS development; embedding schemes
   Dimitrios Pantazis     : SARC Basis sets
   Taras Petrenko         : DFT Hessian,TD-DFT gradient, ASA, ECA, R-Raman, ABS, FL, XAS/XES, NRVS
   Peter Pinski           : DLPNO-MP2, DLPNO-MP2 Gradient
   Christoph Reimann      : Effective Core Potentials
   Marius Retegan         : Local ZFS, SOC
   Christoph Riplinger    : Optimizer, TS searches, QM/MM, DLPNO-CCSD(T), (RO)-DLPNO pert. Triples
   Tobias Risthaus        : Range-separated hybrids, TD-DFT gradient, RPA, STAB
   Michael Roemelt        : Original ROCIS implementation
   Masaaki Saitow         : Open-shell DLPNO-CCSD energy and density
   Barbara Sandhoefer     : DKH picture change effects
   Avijit Sen             : IP-ROCIS
   Kantharuban Sivalingam : CASSCF convergence, NEVPT2, FIC-MRCI
   Bernardo de Souza      : ESD, SOC TD-DFT
   Georgi Stoychev        : AutoAux, RI-MP2 NMR
   Willem Van den Heuvel  : Paramagnetic NMR
   Boris Wezisla          : Elementary symmetry handling
   Frank Wennmohs         : Technical directorship


 We gratefully acknowledge several colleagues who have allowed us to
 interface, adapt or use parts of their codes:
   Stefan Grimme, W. Hujo, H. Kruse,             : VdW corrections, initial TS optimization,
                  C. Bannwarth                     DFT functionals, gCP, sTDA/sTD-DF
   Ed Valeev, F. Pavosevic, A. Kumar             : LibInt (2-el integral package), F12 methods
   Garnet Chan, S. Sharma, J. Yang, R. Olivares  : DMRG
   Ulf Ekstrom                                   : XCFun DFT Library
   Mihaly Kallay                                 : mrcc  (arbitrary order and MRCC methods)
   Andreas Klamt, Michael Diedenhofen            : otool_cosmo (COSMO solvation model)
   Jiri Pittner, Ondrej Demel                    : Mk-CCSD
   Frank Weinhold                                : gennbo (NPA and NBO analysis)
   Christopher J. Cramer and Donald G. Truhlar   : smd solvation model
   Lars Goerigk                                  : TD-DFT with DH, B97 family of functionals
   V. Asgeirsson, H. Jonsson                     : NEB implementation
   FAccTs GmbH                                   : IRC, NEB, NEB-TS, Multilevel, MM, QM/MM, CI optimization
   S Lehtola, MJT Oliveira, MAL Marques          : LibXC Library


 Your calculation uses the libint2 library for the computation of 2-el integrals
 For citations please refer to: http://libint.valeyev.net

 Your ORCA version has been built with support for libXC version: 4.2.3
 For citations please refer to: https://tddft.org/programs/libxc/

 This ORCA versions uses:
   CBLAS   interface :  Fast vector & matrix operations
   LAPACKE interface :  Fast linear algebra routines
   SCALAPACK package :  Parallel linear algebra routines


Your calculation utilizes the atom-pairwise dispersion correction
with the Becke-Johnson damping scheme (D3BJ)
Cite in your paper:
S.Grimme, S.Ehrlich, L.Goerigk, J Comput Chem, (2011), 32, 1456–1465 
S.Grimme, J.Antony, S.Ehrlich and H.Krieg, J.Chem.Phys., 132, (2010), 154104 
   

----- Orbital basis set information -----
Your calculation utilizes the basis: def2-TZVPPD
   F. Weigend and R. Ahlrichs, Phys. Chem. Chem. Phys. 7, 3297 (2005).
   D. Rappoport and F. Furche, J. Chem. Phys. 133 134105 (2010).

----- AuxJK basis set information -----
Your calculation utilizes the auxiliary basis: def2/JK
   H-Ba, Hf-Rn: F. Weigend, J. Comput. Chem. 29, 167 (2008).

================================================================================
                                        WARNINGS
                       Please study these warnings very carefully!
================================================================================


WARNING: your system is open-shell and RHF/RKS was chosen
  ===> : WILL SWITCH to UHF/UKS


INFO   : the flag for use of LIBINT has been found!

================================================================================
                                       INPUT FILE
================================================================================
NAME = TMD07_Ti.in
|  1> #
|  2> # TMD07_Ti TPSSh-D3BJ/Def2-TZVPPD
|  3> #
|  4> ! tpssh d3bj def2-tzvppd def2/jk grid4 nofinalgrid
|  5> 
|  6> *xyz 0 3
|  7> Ti       0.000000    0.000000    0.000000 
|  8> *
|  9> 
| 10> %maxcore 5000
| 11> 
| 12> %pal
| 13> nprocs = 24
| 14> end
| 15> 
| 16> 
| 17>                          ****END OF INPUT****
================================================================================

                       ****************************
                       * Single Point Calculation *
                       ****************************

---------------------------------
CARTESIAN COORDINATES (ANGSTROEM)
---------------------------------
  Ti     0.000000    0.000000    0.000000

----------------------------
CARTESIAN COORDINATES (A.U.)
----------------------------
  NO LB      ZA    FRAG     MASS         X           Y           Z
   0 Ti   22.0000    0    47.900    0.000000    0.000000    0.000000

--------------------------------
INTERNAL COORDINATES (ANGSTROEM)
--------------------------------
 Ti     0   0   0     0.000000000000     0.00000000     0.00000000

---------------------------
INTERNAL COORDINATES (A.U.)
---------------------------
 Ti     0   0   0     0.000000000000     0.00000000     0.00000000

---------------------
BASIS SET INFORMATION
---------------------
There are 1 groups of distinct atoms

 Group   1 Type Ti  : 17s13p7d2f1g contracted to 6s6p4d2f1g pattern {842111/631111/4111/11/1}

Atom   0Ti   basis set group =>   1
----------------------------------
AUXILIARY/JK BASIS SET INFORMATION
----------------------------------
There are 1 groups of distinct atoms

 Group   1 Type Ti  : 19s14p12d10f7g3h1i contracted to 16s13p11d9f5g3h1i pattern {4111111111111111/2111111111111/21111111111/211111111/31111/111/1}

Atom   0Ti   basis set group =>   1


           ************************************************************
           *        Program running with 24 parallel MPI-processes    *
           *              working on a common directory               *
           ************************************************************
------------------------------------------------------------------------------
                           ORCA GTO INTEGRAL CALCULATION
------------------------------------------------------------------------------

                         BASIS SET STATISTICS AND STARTUP INFO

 # of primitive gaussian shells          ...   40
 # of primitive gaussian functions       ...  114
 # of contracted shells                  ...   19
 # of contracted basis functions         ...   67
 Highest angular momentum                ...    4
 Maximum contraction depth               ...    8
 Integral package used                   ... LIBINT
 Integral threshhold            Thresh   ...  1.000e-10
 Primitive cut-off              TCut     ...  1.000e-11


------------------------------ INTEGRAL EVALUATION ----------------------------


 * One electron integrals 
 Pre-screening matrix                    ... done
 Shell pair data                         ... done (   0.000 sec)



           ************************************************************
           *        Program running with 24 parallel MPI-processes    *
           *              working on a common directory               *
           ************************************************************
-------------------------------------------------------------------------------
                                 ORCA SCF
-------------------------------------------------------------------------------

------------
SCF SETTINGS
------------
Hamiltonian:
 Density Functional     Method          .... DFT(GTOs)
 Exchange Functional    Exchange        .... TPSS
 Correlation Functional Correlation     .... TPSS
 LDA part of GGA corr.  LDAOpt          .... PW91-LDA
 Gradients option       PostSCFGGA      .... off
 Hybrid DFT is turned on
   Fraction HF Exchange ScalHFX         ....  0.100000
   Scaling of DF-GGA-X  ScalDFX         ....  0.900000
   Scaling of DF-GGA-C  ScalDFC         ....  1.000000
   Scaling of DF-LDA-C  ScalLDAC        ....  1.000000
   Perturbative correction              ....  0.000000
   Density functional embedding theory  .... OFF
   NL short-range parameter             ....  5.200000


General Settings:
 Integral files         IntName         .... TMD07_Ti
 Hartree-Fock type      HFTyp           .... UHF
 Total Charge           Charge          ....    0
 Multiplicity           Mult            ....    3
 Number of Electrons    NEL             ....   22
 Basis Dimension        Dim             ....   67
 Nuclear Repulsion      ENuc            ....      0.0000000000 Eh

Convergence Acceleration:
 DIIS                   CNVDIIS         .... on
   Start iteration      DIISMaxIt       ....    12
   Startup error        DIISStart       ....  0.200000
   # of expansion vecs  DIISMaxEq       ....     5
   Bias factor          DIISBfac        ....   1.050
   Max. coefficient     DIISMaxC        ....  10.000
 Newton-Raphson         CNVNR           .... off
 SOSCF                  CNVSOSCF        .... off
 Level Shifting         CNVShift        .... on
   Level shift para.    LevelShift      ....    0.2500
   Turn off err/grad.   ShiftErr        ....    0.0010
 Zerner damping         CNVZerner       .... off
 Static damping         CNVDamp         .... on
   Fraction old density DampFac         ....    0.7000
   Max. Damping (<1)    DampMax         ....    0.9800
   Min. Damping (>=0)   DampMin         ....    0.0000
   Turn off err/grad.   DampErr         ....    0.1000
 Fernandez-Rico         CNVRico         .... off

SCF Procedure:
 Maximum # iterations   MaxIter         ....   125
 SCF integral mode      SCFMode         .... Direct
   Integral package                     .... LIBINT
 Reset frequency        DirectResetFreq ....    20
 Integral Threshold     Thresh          ....  1.000e-10 Eh
 Primitive CutOff       TCut            ....  1.000e-11 Eh

Convergence Tolerance:
 Convergence Check Mode ConvCheckMode   .... Total+1el-Energy
 Convergence forced     ConvForced      .... 0
 Energy Change          TolE            ....  1.000e-06 Eh
 1-El. energy change                    ....  1.000e-03 Eh
 DIIS Error             TolErr          ....  1.000e-06


Diagonalization of the overlap matrix:
Smallest eigenvalue                        ... 3.684e-02
Time for diagonalization                   ...    0.002 sec
Threshold for overlap eigenvalues          ... 1.000e-08
Number of eigenvalues below threshold      ... 0
Time for construction of square roots      ...    0.001 sec
Total time needed                          ...    0.004 sec

-------------------
DFT GRID GENERATION
-------------------

General Integration Accuracy     IntAcc      ...  4.670
Radial Grid Type                 RadialGrid  ... Gauss-Chebyshev
Angular Grid (max. acc.)         AngularGrid ... Lebedev-302
Angular grid pruning method      GridPruning ... 3 (G Style)
Weight generation scheme         WeightScheme... Becke
Basis function cutoff            BFCut       ...    1.0000e-10
Integration weight cutoff        WCut        ...    1.0000e-14
Grids for H and He will be reduced by one unit

# of grid points (after initial pruning)     ...   9664 (   0.0 sec)
# of grid points (after weights+screening)   ...   9664 (   0.0 sec)
Grid point division into batches done        ...    0.1 sec
Reduced shell lists constructed in    0.1 sec

Total number of grid points                  ...     9664
Total number of batches                      ...      152
Average number of points per batch           ...       63
Average number of grid points per atom       ...     9664
Average number of shells per batch           ...     4.38 (23.03%)
Average number of basis functions per batch  ...    11.38 (16.98%)
Average number of large shells per batch     ...     3.50 (80.00%)
Average number of large basis fcns per batch ...    10.50 (92.31%)
Maximum spatial batch extension              ...  27.95, 22.27, 22.27 au
Average spatial batch extension              ...   0.96,  0.88,  0.86 au

Time for grid setup =    0.119 sec

------------------------------
INITIAL GUESS: MODEL POTENTIAL
------------------------------
Loading Hartree-Fock densities                     ... done
Calculating cut-offs                               ... done
Setting up the integral package                    ... done
Initializing the effective Hamiltonian             ... done
Starting the Coulomb interaction                   ... done (   0.0 sec)
Reading the grid                                   ... done
Mapping shells                                     ... done
Starting the XC term evaluation                    ... done (   0.0 sec)
  promolecular density results
     # of electrons  =     22.000011254
     EX              =    -40.806311155
     EC              =     -0.884692446
     EX+EC           =    -41.691003601
Transforming the Hamiltonian                       ... done (   0.0 sec)
Diagonalizing the Hamiltonian                      ... done (   0.0 sec)
Back transforming the eigenvectors                 ... done (   0.0 sec)
Now organizing SCF variables                       ... done
                      ------------------
                      INITIAL GUESS DONE (   0.2 sec)
                      ------------------
--------------
SCF ITERATIONS
--------------
ITER       Energy         Delta-E        Max-DP      RMS-DP      [F,P]     Damp
               ***  Starting incremental Fock matrix formation  ***
  0   -849.3401333310   0.000000000000 0.01119680  0.00027855  0.0466129 0.7000
  1   -849.3424261769  -0.002292845956 0.01234469  0.00032225  0.0307690 0.7000
                               ***Turning on DIIS***
  2   -849.3444763382  -0.002050161296 0.04295698  0.00105244  0.0180729 0.0000
  3   -849.3506069439  -0.006130605636 0.01706453  0.00037018  0.0118793 0.0000
  4   -849.3518811989  -0.001274255028 0.01153596  0.00031184  0.0079563 0.0000
  5   -849.3529545847  -0.001073385756 0.01217016  0.00036107  0.0078328 0.0000
  6   -849.3540849180  -0.001130333297 0.01025741  0.00028062  0.0065426 0.0000
  7   -849.3548775146  -0.000792596605 0.01106471  0.00030502  0.0056654 0.0000
  8   -849.3556117892  -0.000734274635 0.00620283  0.00017826  0.0048476 0.0000
  9   -849.3560053280  -0.000393538835 0.01068918  0.00031396  0.0040014 0.0000
 10   -849.3564799281  -0.000474600028 0.00561653  0.00017874  0.0073707 0.0000
 11   -849.3567521086  -0.000272180586 0.00511147  0.00016316  0.0040417 0.0000
 12   -849.3569240201  -0.000171911435 0.00336715  0.00011987  0.0036876 0.0000
 13   -849.3570291511  -0.000105130984 0.00266552  0.00009631  0.0025447 0.0000
 14   -849.3570946980  -0.000065546926 0.00182453  0.00007574  0.0018583 0.0000
 15   -849.3571364401  -0.000041742104 0.00158719  0.00006936  0.0013763 0.0000
 16   -849.3571671147  -0.000030674607 0.00143385  0.00006180  0.0012307 0.0000
 17   -849.3571902911  -0.000023176419 0.00148233  0.00005895  0.0011423 0.0000
 18   -849.3572097307  -0.000019439550 0.00148121  0.00005475  0.0011209 0.0000
 19   -849.3572269842  -0.000017253509 0.00857583  0.00028091  0.0009662 0.0000
               *** Restarting incremental Fock matrix formation ***
                                   *** Resetting DIIS ***
 20   -849.3573148771  -0.000087892965 0.00405240  0.00014295  0.0007707 0.0000
 21   -849.3573660647  -0.000051187538 0.00326947  0.00012772  0.0003604 0.0000
 22   -849.3574124225  -0.000046357787 0.00050113  0.00002139  0.0007674 0.0000
 23   -849.3574204477  -0.000008025278 0.00005860  0.00000251  0.0007574 0.0000
                 **** Energy Check signals convergence ****

               *****************************************************
               *                     SUCCESS                       *
               *           SCF CONVERGED AFTER  24 CYCLES          *
               *****************************************************


----------------
TOTAL SCF ENERGY
----------------

Total Energy       :         -849.35742139 Eh          -23112.19044 eV

Components:
Nuclear Repulsion  :            0.00000000 Eh               0.00000 eV
Electronic Energy  :         -849.35742139 Eh          -23112.19044 eV
One Electron Energy:        -1163.06391818 Eh          -31648.57820 eV
Two Electron Energy:          313.70649679 Eh            8536.38776 eV

Virial components:
Potential Energy   :        -1697.40595439 Eh          -46188.76421 eV
Kinetic Energy     :          848.04853301 Eh           23076.57377 eV
Virial Ratio       :            2.00154341


DFT components:
N(Alpha)           :       11.999999579648 electrons
N(Beta)            :        9.999999670638 electrons
N(Total)           :       21.999999250286 electrons
E(X)               :      -37.028515618080 Eh       
E(C)               :       -0.880797959466 Eh       
E(XC)              :      -37.909313577546 Eh       
DFET-embed. en.    :        0.000000000000 Eh       

---------------
SCF CONVERGENCE
---------------

  Last Energy change         ...   -9.3915e-07  Tolerance :   1.0000e-06
  Last MAX-Density change    ...    5.6497e-07  Tolerance :   1.0000e-05
  Last RMS-Density change    ...    2.1449e-08  Tolerance :   1.0000e-06
  Last DIIS Error            ...    7.5742e-04  Tolerance :   1.0000e-06

             **** THE GBW FILE WAS UPDATED (TMD07_Ti.gbw) ****
             **** DENSITY FILE WAS UPDATED (TMD07_Ti.scfp) ****
             **** ENERGY FILE WAS UPDATED (TMD07_Ti.en.tmp) ****
----------------------
UHF SPIN CONTAMINATION
----------------------

Warning: in a DFT calculation there is little theoretical justification to 
         calculate <S**2> as in Hartree-Fock theory. We will do it anyways
         but you should keep in mind that the values have only limited relevance

Expectation value of <S**2>     :     2.092435
Ideal value S*(S+1) for S=1.0   :     2.000000
Deviation                       :     0.092435

             **** THE GBW FILE WAS UPDATED (TMD07_Ti.gbw) ****
             **** DENSITY FILE WAS UPDATED (TMD07_Ti.scfp) ****
----------------
ORBITAL ENERGIES
----------------
                 SPIN UP ORBITALS
  NO   OCC          E(Eh)            E(eV) 
   0   1.0000    -178.692027     -4862.4573 
   1   1.0000     -19.783412      -538.3340 
   2   1.0000     -16.475069      -448.3094 
   3   1.0000     -16.474901      -448.3048 
   4   1.0000     -16.474785      -448.3017 
   5   1.0000      -2.377274       -64.6889 
   6   1.0000      -1.494602       -40.6702 
   7   1.0000      -1.494345       -40.6632 
   8   1.0000      -1.493222       -40.6326 
   9   1.0000      -0.224785        -6.1167 
  10   1.0000      -0.224232        -6.1017 
  11   1.0000      -0.176850        -4.8123 
  12   0.0000      -0.115908        -3.1540 
  13   0.0000      -0.115179        -3.1342 
  14   0.0000      -0.113947        -3.1007 
  15   0.0000      -0.051215        -1.3936 
  16   0.0000      -0.049763        -1.3541 
  17   0.0000      -0.044823        -1.2197 
  18   0.0000       0.052372         1.4251 
  19   0.0000       0.053067         1.4440 
  20   0.0000       0.055516         1.5107 
  21   0.0000       0.067325         1.8320 
  22   0.0000       0.084365         2.2957 
  23   0.0000       0.084585         2.3017 
  24   0.0000       0.091561         2.4915 
  25   0.0000       0.092051         2.5048 
  26   0.0000       0.093127         2.5341 
  27   0.0000       0.318428         8.6649 
  28   0.0000       0.319675         8.6988 
  29   0.0000       0.324054         8.8180 
  30   0.0000       0.465705        12.6725 
  31   0.0000       0.466059        12.6821 
  32   0.0000       0.487648        13.2696 
  33   0.0000       0.488932        13.3045 
  34   0.0000       0.491783        13.3821 
  35   0.0000       0.686993        18.6940 
  36   0.0000       0.687914        18.7191 
  37   0.0000       0.688024        18.7221 
  38   0.0000       0.692875        18.8541 
  39   0.0000       0.698858        19.0169 
  40   0.0000       0.700894        19.0723 
  41   0.0000       0.716057        19.4849 
  42   0.0000       1.457260        39.6541 
  43   0.0000       1.457573        39.6626 
  44   0.0000       1.460337        39.7378 
  45   0.0000       1.618553        44.0431 
  46   0.0000       1.946019        52.9539 
  47   0.0000       1.946424        52.9649 
  48   0.0000       1.984030        53.9882 
  49   0.0000       1.984557        54.0025 
  50   0.0000       1.985060        54.0162 
  51   0.0000       2.581258        70.2396 
  52   0.0000       2.582168        70.2644 
  53   0.0000       2.582408        70.2709 
  54   0.0000       2.586410        70.3798 
  55   0.0000       2.591917        70.5297 
  56   0.0000       2.591949        70.5305 
  57   0.0000       2.609420        71.0059 
  58   0.0000       2.610923        71.0468 
  59   0.0000       2.614204        71.1361 
  60   0.0000       2.897330        78.8404 
  61   0.0000       2.897894        78.8557 
  62   0.0000       2.898094        78.8612 
  63   0.0000       2.912675        79.2579 
  64   0.0000       2.913770        79.2877 
  65   0.0000       2.913886        79.2909 
  66   0.0000       2.937113        79.9229 

                 SPIN DOWN ORBITALS
  NO   OCC          E(Eh)            E(eV) 
   0   1.0000    -178.691917     -4862.4543 
   1   1.0000     -19.762817      -537.7736 
   2   1.0000     -16.458307      -447.8533 
   3   1.0000     -16.457642      -447.8352 
   4   1.0000     -16.457252      -447.8246 
   5   1.0000      -2.310225       -62.8644 
   6   1.0000      -1.424065       -38.7508 
   7   1.0000      -1.423670       -38.7400 
   8   1.0000      -1.423424       -38.7333 
   9   1.0000      -0.158452        -4.3117 
  10   0.0000      -0.095513        -2.5990 
  11   0.0000      -0.092820        -2.5257 
  12   0.0000      -0.091711        -2.4956 
  13   0.0000      -0.066867        -1.8195 
  14   0.0000      -0.066484        -1.8091 
  15   0.0000      -0.043764        -1.1909 
  16   0.0000      -0.037717        -1.0263 
  17   0.0000      -0.035407        -0.9635 
  18   0.0000       0.054770         1.4904 
  19   0.0000       0.057807         1.5730 
  20   0.0000       0.059055         1.6070 
  21   0.0000       0.080675         2.1953 
  22   0.0000       0.096464         2.6249 
  23   0.0000       0.097752         2.6600 
  24   0.0000       0.098702         2.6858 
  25   0.0000       0.103400         2.8137 
  26   0.0000       0.103570         2.8183 
  27   0.0000       0.336564         9.1584 
  28   0.0000       0.343444         9.3456 
  29   0.0000       0.345901         9.4124 
  30   0.0000       0.499995        13.6056 
  31   0.0000       0.503082        13.6896 
  32   0.0000       0.504995        13.7416 
  33   0.0000       0.517030        14.0691 
  34   0.0000       0.517291        14.0762 
  35   0.0000       0.719859        19.5884 
  36   0.0000       0.724210        19.7068 
  37   0.0000       0.726977        19.7821 
  38   0.0000       0.732372        19.9289 
  39   0.0000       0.732743        19.9389 
  40   0.0000       0.734751        19.9936 
  41   0.0000       0.735624        20.0173 
  42   0.0000       1.500242        40.8237 
  43   0.0000       1.501573        40.8599 
  44   0.0000       1.502401        40.8824 
  45   0.0000       1.665977        45.3335 
  46   0.0000       2.010527        54.7092 
  47   0.0000       2.011487        54.7354 
  48   0.0000       2.011579        54.7378 
  49   0.0000       2.031334        55.2754 
  50   0.0000       2.031819        55.2886 
  51   0.0000       2.627969        71.5107 
  52   0.0000       2.629259        71.5458 
  53   0.0000       2.630428        71.5776 
  54   0.0000       2.637425        71.7680 
  55   0.0000       2.637529        71.7708 
  56   0.0000       2.640763        71.8588 
  57   0.0000       2.640792        71.8596 
  58   0.0000       2.641831        71.8879 
  59   0.0000       2.642225        71.8986 
  60   0.0000       2.940271        80.0088 
  61   0.0000       2.959564        80.5338 
  62   0.0000       2.960187        80.5508 
  63   0.0000       2.961412        80.5841 
  64   0.0000       2.976700        81.0001 
  65   0.0000       2.976781        81.0023 
  66   0.0000       2.977748        81.0286 

                    ********************************
                    * MULLIKEN POPULATION ANALYSIS *
                    ********************************

--------------------------------------------
MULLIKEN ATOMIC CHARGES AND SPIN POPULATIONS
--------------------------------------------
   0 Ti:   -0.000000    2.000000
Sum of atomic charges         :   -0.0000000
Sum of atomic spin populations:    2.0000000

-----------------------------------------------------
MULLIKEN REDUCED ORBITAL CHARGES AND SPIN POPULATIONS
-----------------------------------------------------
CHARGE
  0 Tis       :     7.953972  s :     7.953972
      pz      :     3.999874  p :    11.999616
      px      :     3.999865
      py      :     3.999877
      dz2     :     0.262812  d :     2.045848
      dxz     :     0.858359
      dyz     :     0.148236
      dx2y2   :     0.450325
      dxy     :     0.326116
      f0      :     0.000007  f :     0.000384
      f+1     :     0.000103
      f-1     :     0.000054
      f+2     :     0.000062
      f-2     :     0.000059
      f+3     :     0.000061
      f-3     :     0.000039
      g0      :     0.000032  g :     0.000180
      g+1     :     0.000008
      g-1     :     0.000001
      g+2     :     0.000031
      g-2     :     0.000030
      g+3     :     0.000006
      g-3     :     0.000036
      g+4     :     0.000003
      g-4     :     0.000032

SPIN
  0 Tis       :     0.007221  s :     0.007221
      pz      :    -0.000079  p :    -0.000235
      px      :    -0.000080
      py      :    -0.000076
      dz2     :     0.258372  d :     1.992617
      dxz     :     0.857649
      dyz     :     0.147465
      dx2y2   :     0.421856
      dxy     :     0.307275
      f0      :     0.000004  f :     0.000235
      f+1     :     0.000064
      f-1     :     0.000034
      f+2     :     0.000040
      f-2     :     0.000036
      f+3     :     0.000037
      f-3     :     0.000020
      g0      :     0.000031  g :     0.000162
      g+1     :     0.000008
      g-1     :     0.000001
      g+2     :     0.000024
      g-2     :     0.000026
      g+3     :     0.000006
      g-3     :     0.000036
      g+4     :     0.000003
      g-4     :     0.000027


                     *******************************
                     * LOEWDIN POPULATION ANALYSIS *
                     *******************************

-------------------------------------------
LOEWDIN ATOMIC CHARGES AND SPIN POPULATIONS
-------------------------------------------
   0 Ti:   -0.000000    2.000000

----------------------------------------------------
LOEWDIN REDUCED ORBITAL CHARGES AND SPIN POPULATIONS
----------------------------------------------------
CHARGE
  0 Tis       :     7.953972  s :     7.953972
      pz      :     3.999874  p :    11.999616
      px      :     3.999865
      py      :     3.999877
      dz2     :     0.262812  d :     2.045848
      dxz     :     0.858359
      dyz     :     0.148236
      dx2y2   :     0.450325
      dxy     :     0.326116
      f0      :     0.000007  f :     0.000384
      f+1     :     0.000103
      f-1     :     0.000054
      f+2     :     0.000062
      f-2     :     0.000059
      f+3     :     0.000061
      f-3     :     0.000039
      g0      :     0.000032  g :     0.000180
      g+1     :     0.000008
      g-1     :     0.000001
      g+2     :     0.000031
      g-2     :     0.000030
      g+3     :     0.000006
      g-3     :     0.000036
      g+4     :     0.000003
      g-4     :     0.000032

SPIN
  0 Tis       :     0.007221  s :     0.007221
      pz      :    -0.000079  p :    -0.000235
      px      :    -0.000080
      py      :    -0.000076
      dz2     :     0.258372  d :     1.992617
      dxz     :     0.857649
      dyz     :     0.147465
      dx2y2   :     0.421856
      dxy     :     0.307275
      f0      :     0.000004  f :     0.000235
      f+1     :     0.000064
      f-1     :     0.000034
      f+2     :     0.000040
      f-2     :     0.000036
      f+3     :     0.000037
      f-3     :     0.000020
      g0      :     0.000031  g :     0.000162
      g+1     :     0.000008
      g-1     :     0.000001
      g+2     :     0.000024
      g-2     :     0.000026
      g+3     :     0.000006
      g-3     :     0.000036
      g+4     :     0.000003
      g-4     :     0.000027


                      *****************************
                      * MAYER POPULATION ANALYSIS *
                      *****************************

  NA   - Mulliken gross atomic population
  ZA   - Total nuclear charge
  QA   - Mulliken gross atomic charge
  VA   - Mayer's total valence
  BVA  - Mayer's bonded valence
  FA   - Mayer's free valence

  ATOM       NA         ZA         QA         VA         BVA        FA
  0 Ti    22.0000    22.0000    -0.0000     2.1849     0.0000     2.1849

  Mayer bond orders larger than 0.100000


-------
TIMINGS
-------

Total SCF time: 0 days 0 hours 0 min 3 sec 

Total time                  ....       3.299 sec
Sum of individual times     ....       3.082 sec  ( 93.4%)

Fock matrix formation       ....       2.799 sec  ( 84.8%)
  XC integration            ....       0.298 sec  ( 10.6% of F)
    Basis function eval.    ....       0.017 sec  (  5.7% of XC)
    Density eval.           ....       0.033 sec  ( 11.2% of XC)
    XC-Functional eval.     ....       0.021 sec  (  7.2% of XC)
    XC-Potential eval.      ....       0.072 sec  ( 24.3% of XC)
Diagonalization             ....       0.034 sec  (  1.0%)
Density matrix formation    ....       0.007 sec  (  0.2%)
Population analysis         ....       0.004 sec  (  0.1%)
Initial guess               ....       0.101 sec  (  3.1%)
Orbital Transformation      ....       0.000 sec  (  0.0%)
Orbital Orthonormalization  ....       0.000 sec  (  0.0%)
DIIS solution               ....       0.017 sec  (  0.5%)
Grid generation             ....       0.119 sec  (  3.6%)


-------------------------------------------------------------------------------
                          DFT DISPERSION CORRECTION                            
                                                                               
                              DFTD3 V3.1  Rev 1                                
                          USING Becke-Johnson damping                          
-------------------------------------------------------------------------------
The TPSSH functional is recognized
Active option DFTDOPT                   ...         4   

molecular C6(AA) [au] = 1361.916215 


            DFT-D V3
 parameters
 s6 scaling factor         :     1.0000 
 a1 scaling factor         :     0.4529 
 s8 scaling factor         :     2.2382 
 a2 scaling factor         :     4.6550 
 ad hoc parameters k1-k3   :    16.0000     1.3333    -4.0000 

 Edisp/kcal,au: -0.000000000000  -0.000000000000 
 E6   /kcal   :  -0.000000000 
 E8   /kcal   :  -0.000000000 
 % E8         :          -nan 

-------------------------   ----------------
Dispersion correction            0.000000000
-------------------------   ----------------


-------------------------   --------------------
FINAL SINGLE POINT ENERGY      -849.357421386890
-------------------------   --------------------


                            ***************************************
                            *     ORCA property calculations      *
                            ***************************************

                                    ---------------------
                                    Active property flags
                                    ---------------------
   (+) Dipole Moment


------------------------------------------------------------------------------
                       ORCA ELECTRIC PROPERTIES CALCULATION
------------------------------------------------------------------------------

Dipole Moment Calculation                       ... on
Quadrupole Moment Calculation                   ... off
Polarizability Calculation                      ... off
GBWName                                         ... TMD07_Ti.gbw
Electron density file                           ... TMD07_Ti.scfp
The origin for moment calculation is the CENTER OF MASS  = ( 0.000000,  0.000000  0.000000)

-------------
DIPOLE MOMENT
-------------
                                X             Y             Z
Electronic contribution:      0.00000       0.00000       0.00000
Nuclear contribution   :      0.00000       0.00000       0.00000
                        -----------------------------------------
Total Dipole Moment    :      0.00000       0.00000       0.00000
                        -----------------------------------------
Magnitude (a.u.)       :      0.00000
Magnitude (Debye)      :      0.00000



--------------------
Rotational spectrum 
--------------------
 
Rotational constants in cm-1:     0.000000     0.000000     0.000000 
Rotational constants in MHz :     0.000000     0.000000     0.000000 

 Dipole components along the rotational axes: 
x,y,z [a.u.] :     0.000000     0.000000     0.000000 
x,y,z [Debye]:     0.000001     0.000001     0.000000 

 

Timings for individual modules:

Sum of individual times         ...        4.331 sec (=   0.072 min)
GTO integral calculation        ...        0.669 sec (=   0.011 min)  15.4 %
SCF iterations                  ...        3.662 sec (=   0.061 min)  84.6 %
                             ****ORCA TERMINATED NORMALLY****
TOTAL RUN TIME: 0 days 0 hours 0 minutes 4 seconds 825 msec
