
                                 *****************
                                 * O   R   C   A *
                                 *****************

           --- An Ab Initio, DFT and Semiempirical electronic structure package ---

                  #######################################################
                  #                        -***-                        #
                  #          Department of theory and spectroscopy      #
                  #               Directorship: Frank Neese             #
                  #        Max Planck Institute fuer Kohlenforschung    #
                  #                Kaiser Wilhelm Platz 1               #
                  #                 D-45470 Muelheim/Ruhr               #
                  #                      Germany                        #
                  #                                                     #
                  #                  All rights reserved                #
                  #                        -***-                        #
                  #######################################################


                         Program Version 4.2.0 -  RELEASE  -


 With contributions from (in alphabetic order):
   Daniel Aravena         : Magnetic Suceptibility
   Michael Atanasov       : Ab Initio Ligand Field Theory (pilot matlab implementation)
   Alexander A. Auer      : GIAO ZORA, VPT2
   Ute Becker             : Parallelization
   Giovanni Bistoni       : ED, misc. LED, open-shell LED, HFLED
   Martin Brehm           : Molecular dynamics
   Dmytro Bykov           : SCF Hessian
   Vijay G. Chilkuri      : MRCI spin determinant printing, contributions to CSF-ICE
   Dipayan Datta          : RHF DLPNO-CCSD density
   Achintya Kumar Dutta   : EOM-CC, STEOM-CC
   Dmitry Ganyushin       : Spin-Orbit,Spin-Spin,Magnetic field MRCI
   Miquel Garcia          : C-PCM Hessian, Gaussian charge scheme
   Yang Guo               : DLPNO-NEVPT2, CIM, IAO-localization
   Andreas Hansen         : Spin unrestricted coupled pair/coupled cluster methods
   Benjamin Helmich-Paris : CASSCF linear response (MC-RPA)
   Lee Huntington         : MR-EOM, pCC
   Robert Izsak           : Overlap fitted RIJCOSX, COSX-SCS-MP3, EOM
   Christian Kollmar      : KDIIS, OOCD, Brueckner-CCSD(T), CCSD density
   Simone Kossmann        : Meta GGA functionals, TD-DFT gradient, OOMP2, MP2 Hessian
   Martin Krupicka        : AUTO-CI
   Lucas Lang             : DCDCAS
   Dagmar Lenk            : GEPOL surface, SMD
   Dimitrios Liakos       : Extrapolation schemes; Compound Job, initial MDCI parallelization
   Dimitrios Manganas     : Further ROCIS development; embedding schemes
   Dimitrios Pantazis     : SARC Basis sets
   Taras Petrenko         : DFT Hessian,TD-DFT gradient, ASA, ECA, R-Raman, ABS, FL, XAS/XES, NRVS
   Peter Pinski           : DLPNO-MP2, DLPNO-MP2 Gradient
   Christoph Reimann      : Effective Core Potentials
   Marius Retegan         : Local ZFS, SOC
   Christoph Riplinger    : Optimizer, TS searches, QM/MM, DLPNO-CCSD(T), (RO)-DLPNO pert. Triples
   Tobias Risthaus        : Range-separated hybrids, TD-DFT gradient, RPA, STAB
   Michael Roemelt        : Original ROCIS implementation
   Masaaki Saitow         : Open-shell DLPNO-CCSD energy and density
   Barbara Sandhoefer     : DKH picture change effects
   Avijit Sen             : IP-ROCIS
   Kantharuban Sivalingam : CASSCF convergence, NEVPT2, FIC-MRCI
   Bernardo de Souza      : ESD, SOC TD-DFT
   Georgi Stoychev        : AutoAux, RI-MP2 NMR
   Willem Van den Heuvel  : Paramagnetic NMR
   Boris Wezisla          : Elementary symmetry handling
   Frank Wennmohs         : Technical directorship


 We gratefully acknowledge several colleagues who have allowed us to
 interface, adapt or use parts of their codes:
   Stefan Grimme, W. Hujo, H. Kruse,             : VdW corrections, initial TS optimization,
                  C. Bannwarth                     DFT functionals, gCP, sTDA/sTD-DF
   Ed Valeev, F. Pavosevic, A. Kumar             : LibInt (2-el integral package), F12 methods
   Garnet Chan, S. Sharma, J. Yang, R. Olivares  : DMRG
   Ulf Ekstrom                                   : XCFun DFT Library
   Mihaly Kallay                                 : mrcc  (arbitrary order and MRCC methods)
   Andreas Klamt, Michael Diedenhofen            : otool_cosmo (COSMO solvation model)
   Jiri Pittner, Ondrej Demel                    : Mk-CCSD
   Frank Weinhold                                : gennbo (NPA and NBO analysis)
   Christopher J. Cramer and Donald G. Truhlar   : smd solvation model
   Lars Goerigk                                  : TD-DFT with DH, B97 family of functionals
   V. Asgeirsson, H. Jonsson                     : NEB implementation
   FAccTs GmbH                                   : IRC, NEB, NEB-TS, Multilevel, MM, QM/MM, CI optimization
   S Lehtola, MJT Oliveira, MAL Marques          : LibXC Library


 Your calculation uses the libint2 library for the computation of 2-el integrals
 For citations please refer to: http://libint.valeyev.net

 Your ORCA version has been built with support for libXC version: 4.2.3
 For citations please refer to: https://tddft.org/programs/libxc/

 This ORCA versions uses:
   CBLAS   interface :  Fast vector & matrix operations
   LAPACKE interface :  Fast linear algebra routines
   SCALAPACK package :  Parallel linear algebra routines


Your calculation utilizes the atom-pairwise dispersion correction
with the Becke-Johnson damping scheme (D3BJ)
Cite in your paper:
S.Grimme, S.Ehrlich, L.Goerigk, J Comput Chem, (2011), 32, 1456–1465 
S.Grimme, J.Antony, S.Ehrlich and H.Krieg, J.Chem.Phys., 132, (2010), 154104 
   

----- Orbital basis set information -----
Your calculation utilizes the basis: def2-TZVPPD
   F. Weigend and R. Ahlrichs, Phys. Chem. Chem. Phys. 7, 3297 (2005).
   D. Rappoport and F. Furche, J. Chem. Phys. 133 134105 (2010).

----- AuxJK basis set information -----
Your calculation utilizes the auxiliary basis: def2/JK
   H-Ba, Hf-Rn: F. Weigend, J. Comput. Chem. 29, 167 (2008).

================================================================================
                                        WARNINGS
                       Please study these warnings very carefully!
================================================================================


WARNING: your system is open-shell and RHF/RKS was chosen
  ===> : WILL SWITCH to UHF/UKS


INFO   : the flag for use of LIBINT has been found!

================================================================================
                                       INPUT FILE
================================================================================
NAME = TMD03_F.in
|  1> #
|  2> # TMD03_F TPSSh-D3BJ/Def2-TZVPPD
|  3> #
|  4> ! tpssh d3bj def2-tzvppd def2/jk grid4 nofinalgrid
|  5> 
|  6> *xyz 0 2
|  7> F        0.000000    0.000000    0.000000 
|  8> *
|  9> 
| 10> %maxcore 5000
| 11> 
| 12> %pal
| 13> nprocs = 24
| 14> end
| 15> 
| 16> 
| 17>                          ****END OF INPUT****
================================================================================

                       ****************************
                       * Single Point Calculation *
                       ****************************

---------------------------------
CARTESIAN COORDINATES (ANGSTROEM)
---------------------------------
  F      0.000000    0.000000    0.000000

----------------------------
CARTESIAN COORDINATES (A.U.)
----------------------------
  NO LB      ZA    FRAG     MASS         X           Y           Z
   0 F     9.0000    0    18.998    0.000000    0.000000    0.000000

--------------------------------
INTERNAL COORDINATES (ANGSTROEM)
--------------------------------
 F      0   0   0     0.000000000000     0.00000000     0.00000000

---------------------------
INTERNAL COORDINATES (A.U.)
---------------------------
 F      0   0   0     0.000000000000     0.00000000     0.00000000

---------------------
BASIS SET INFORMATION
---------------------
There are 1 groups of distinct atoms

 Group   1 Type F   : 12s7p3d1f contracted to 6s4p3d1f pattern {621111/4111/111/1}

Atom   0F    basis set group =>   1
----------------------------------
AUXILIARY/JK BASIS SET INFORMATION
----------------------------------
There are 1 groups of distinct atoms

 Group   1 Type F   : 14s10p6d2f1g contracted to 10s8p4d2f1g pattern {5111111111/31111111/3111/11/1}

Atom   0F    basis set group =>   1


           ************************************************************
           *        Program running with 24 parallel MPI-processes    *
           *              working on a common directory               *
           ************************************************************
------------------------------------------------------------------------------
                           ORCA GTO INTEGRAL CALCULATION
------------------------------------------------------------------------------

                         BASIS SET STATISTICS AND STARTUP INFO

 # of primitive gaussian shells          ...   23
 # of primitive gaussian functions       ...   55
 # of contracted shells                  ...   14
 # of contracted basis functions         ...   40
 Highest angular momentum                ...    3
 Maximum contraction depth               ...    6
 Integral package used                   ... LIBINT
 Integral threshhold            Thresh   ...  1.000e-10
 Primitive cut-off              TCut     ...  1.000e-11


------------------------------ INTEGRAL EVALUATION ----------------------------


 * One electron integrals 
 Pre-screening matrix                    ... done
 Shell pair data                         ... done (   0.000 sec)



           ************************************************************
           *        Program running with 24 parallel MPI-processes    *
           *              working on a common directory               *
           ************************************************************
-------------------------------------------------------------------------------
                                 ORCA SCF
-------------------------------------------------------------------------------

------------
SCF SETTINGS
------------
Hamiltonian:
 Density Functional     Method          .... DFT(GTOs)
 Exchange Functional    Exchange        .... TPSS
 Correlation Functional Correlation     .... TPSS
 LDA part of GGA corr.  LDAOpt          .... PW91-LDA
 Gradients option       PostSCFGGA      .... off
 Hybrid DFT is turned on
   Fraction HF Exchange ScalHFX         ....  0.100000
   Scaling of DF-GGA-X  ScalDFX         ....  0.900000
   Scaling of DF-GGA-C  ScalDFC         ....  1.000000
   Scaling of DF-LDA-C  ScalLDAC        ....  1.000000
   Perturbative correction              ....  0.000000
   Density functional embedding theory  .... OFF
   NL short-range parameter             ....  5.200000


General Settings:
 Integral files         IntName         .... TMD03_F
 Hartree-Fock type      HFTyp           .... UHF
 Total Charge           Charge          ....    0
 Multiplicity           Mult            ....    2
 Number of Electrons    NEL             ....    9
 Basis Dimension        Dim             ....   40
 Nuclear Repulsion      ENuc            ....      0.0000000000 Eh

Convergence Acceleration:
 DIIS                   CNVDIIS         .... on
   Start iteration      DIISMaxIt       ....    12
   Startup error        DIISStart       ....  0.200000
   # of expansion vecs  DIISMaxEq       ....     5
   Bias factor          DIISBfac        ....   1.050
   Max. coefficient     DIISMaxC        ....  10.000
 Newton-Raphson         CNVNR           .... off
 SOSCF                  CNVSOSCF        .... off
 Level Shifting         CNVShift        .... on
   Level shift para.    LevelShift      ....    0.2500
   Turn off err/grad.   ShiftErr        ....    0.0010
 Zerner damping         CNVZerner       .... off
 Static damping         CNVDamp         .... on
   Fraction old density DampFac         ....    0.7000
   Max. Damping (<1)    DampMax         ....    0.9800
   Min. Damping (>=0)   DampMin         ....    0.0000
   Turn off err/grad.   DampErr         ....    0.1000
 Fernandez-Rico         CNVRico         .... off

SCF Procedure:
 Maximum # iterations   MaxIter         ....   125
 SCF integral mode      SCFMode         .... Direct
   Integral package                     .... LIBINT
 Reset frequency        DirectResetFreq ....    20
 Integral Threshold     Thresh          ....  1.000e-10 Eh
 Primitive CutOff       TCut            ....  1.000e-11 Eh

Convergence Tolerance:
 Convergence Check Mode ConvCheckMode   .... Total+1el-Energy
 Convergence forced     ConvForced      .... 0
 Energy Change          TolE            ....  1.000e-06 Eh
 1-El. energy change                    ....  1.000e-03 Eh
 DIIS Error             TolErr          ....  1.000e-06


Diagonalization of the overlap matrix:
Smallest eigenvalue                        ... 1.553e-02
Time for diagonalization                   ...    0.001 sec
Threshold for overlap eigenvalues          ... 1.000e-08
Number of eigenvalues below threshold      ... 0
Time for construction of square roots      ...    0.001 sec
Total time needed                          ...    0.002 sec

-------------------
DFT GRID GENERATION
-------------------

General Integration Accuracy     IntAcc      ...  4.670
Radial Grid Type                 RadialGrid  ... Gauss-Chebyshev
Angular Grid (max. acc.)         AngularGrid ... Lebedev-302
Angular grid pruning method      GridPruning ... 3 (G Style)
Weight generation scheme         WeightScheme... Becke
Basis function cutoff            BFCut       ...    1.0000e-10
Integration weight cutoff        WCut        ...    1.0000e-14
Grids for H and He will be reduced by one unit

# of grid points (after initial pruning)     ...   6272 (   0.0 sec)
# of grid points (after weights+screening)   ...   6272 (   0.0 sec)
Grid point division into batches done        ...    0.0 sec
Reduced shell lists constructed in    0.0 sec

Total number of grid points                  ...     6272
Total number of batches                      ...       99
Average number of points per batch           ...       63
Average number of grid points per atom       ...     6272
Average number of shells per batch           ...     3.33 (23.81%)
Average number of basis functions per batch  ...    10.00 (25.00%)
Average number of large shells per batch     ...     2.50 (75.00%)
Average number of large basis fcns per batch ...     7.50 (75.00%)
Maximum spatial batch extension              ...  15.22, 15.22, 15.22 au
Average spatial batch extension              ...   0.67,  0.67,  0.72 au

Time for grid setup =    0.053 sec

------------------------------
INITIAL GUESS: MODEL POTENTIAL
------------------------------
Loading Hartree-Fock densities                     ... done
Calculating cut-offs                               ... done
Setting up the integral package                    ... done
Initializing the effective Hamiltonian             ... done
Starting the Coulomb interaction                   ... done (   0.0 sec)
Reading the grid                                   ... done
Mapping shells                                     ... done
Starting the XC term evaluation                    ... done (   0.0 sec)
  promolecular density results
     # of electrons  =      9.000001927
     EX              =     -9.914469873
     EC              =     -0.296868576
     EX+EC           =    -10.211338449
Transforming the Hamiltonian                       ... done (   0.0 sec)
Diagonalizing the Hamiltonian                      ... done (   0.0 sec)
Back transforming the eigenvectors                 ... done (   0.0 sec)
Now organizing SCF variables                       ... done
                      ------------------
                      INITIAL GUESS DONE (   0.2 sec)
                      ------------------
--------------
SCF ITERATIONS
--------------
ITER       Energy         Delta-E        Max-DP      RMS-DP      [F,P]     Damp
               ***  Starting incremental Fock matrix formation  ***
  0    -99.7612819366   0.000000000000 0.00354490  0.00025051  0.0436403 0.7000
  1    -99.7629211121  -0.001639175444 0.00277111  0.00020283  0.0309395 0.7000
                               ***Turning on DIIS***
  2    -99.7640560711  -0.001134959048 0.00650817  0.00047512  0.0219444 0.0000
  3    -99.7667791885  -0.002723117421 0.00233785  0.00012560  0.0083834 0.0000
  4    -99.7668368606  -0.000057672088 0.00102536  0.00004791  0.0045730 0.0000
  5    -99.7668572020  -0.000020341405 0.00022073  0.00001533  0.0003122 0.0000
                 **** Energy Check signals convergence ****

               *****************************************************
               *                     SUCCESS                       *
               *           SCF CONVERGED AFTER   6 CYCLES          *
               *****************************************************


----------------
TOTAL SCF ENERGY
----------------

Total Energy       :          -99.76685820 Eh           -2714.79423 eV

Components:
Nuclear Repulsion  :            0.00000000 Eh               0.00000 eV
Electronic Energy  :          -99.76685820 Eh           -2714.79423 eV
One Electron Energy:         -139.16153812 Eh           -3786.77797 eV
Two Electron Energy:           39.39467993 Eh            1071.98374 eV

Virial components:
Potential Energy   :         -199.23294684 Eh           -5421.40410 eV
Kinetic Energy     :           99.46608864 Eh            2706.60987 eV
Virial Ratio       :            2.00302384


DFT components:
N(Alpha)           :        4.999999970889 electrons
N(Beta)            :        3.999999972514 electrons
N(Total)           :        8.999999943403 electrons
E(X)               :       -9.077817119286 Eh       
E(C)               :       -0.293360640793 Eh       
E(XC)              :       -9.371177760079 Eh       
DFET-embed. en.    :        0.000000000000 Eh       

---------------
SCF CONVERGENCE
---------------

  Last Energy change         ...   -9.9390e-07  Tolerance :   1.0000e-06
  Last MAX-Density change    ...    5.0020e-05  Tolerance :   1.0000e-05
  Last RMS-Density change    ...    2.5168e-06  Tolerance :   1.0000e-06
  Last DIIS Error            ...    1.1963e-04  Tolerance :   1.0000e-06

             **** THE GBW FILE WAS UPDATED (TMD03_F.gbw) ****
             **** DENSITY FILE WAS UPDATED (TMD03_F.scfp) ****
             **** ENERGY FILE WAS UPDATED (TMD03_F.en.tmp) ****
----------------------
UHF SPIN CONTAMINATION
----------------------

Warning: in a DFT calculation there is little theoretical justification to 
         calculate <S**2> as in Hartree-Fock theory. We will do it anyways
         but you should keep in mind that the values have only limited relevance

Expectation value of <S**2>     :     0.751739
Ideal value S*(S+1) for S=0.5   :     0.750000
Deviation                       :     0.001739

             **** THE GBW FILE WAS UPDATED (TMD03_F.gbw) ****
             **** DENSITY FILE WAS UPDATED (TMD03_F.scfp) ****
----------------
ORBITAL ENERGIES
----------------
                 SPIN UP ORBITALS
  NO   OCC          E(Eh)            E(eV) 
   0   1.0000     -24.705564      -672.2726 
   1   1.0000      -1.207009       -32.8444 
   2   1.0000      -0.539506       -14.6807 
   3   1.0000      -0.445452       -12.1214 
   4   1.0000      -0.445452       -12.1214 
   5   0.0000       0.077482         2.1084 
   6   0.0000       0.094276         2.5654 
   7   0.0000       0.100692         2.7400 
   8   0.0000       0.100692         2.7400 
   9   0.0000       0.457596        12.4518 
  10   0.0000       0.461065        12.5462 
  11   0.0000       0.461065        12.5462 
  12   0.0000       0.471782        12.8378 
  13   0.0000       0.471782        12.8378 
  14   0.0000       0.644100        17.5268 
  15   0.0000       0.674906        18.3651 
  16   0.0000       0.674906        18.3651 
  17   0.0000       0.821464        22.3532 
  18   0.0000       2.107619        57.3512 
  19   0.0000       2.122778        57.7637 
  20   0.0000       2.122778        57.7637 
  21   0.0000       2.172554        59.1182 
  22   0.0000       2.172554        59.1182 
  23   0.0000       3.124026        85.0091 
  24   0.0000       3.195050        86.9417 
  25   0.0000       3.195050        86.9417 
  26   0.0000       3.742950       101.8508 
  27   0.0000       6.771754       184.2688 
  28   0.0000       6.781910       184.5451 
  29   0.0000       6.781910       184.5451 
  30   0.0000       6.812882       185.3879 
  31   0.0000       6.812882       185.3879 
  32   0.0000       6.865615       186.8229 
  33   0.0000       6.865615       186.8229 
  34   0.0000       8.256289       224.6650 
  35   0.0000       8.280895       225.3346 
  36   0.0000       8.280895       225.3346 
  37   0.0000       8.357884       227.4296 
  38   0.0000       8.357884       227.4296 
  39   0.0000      56.617633      1540.6441 

                 SPIN DOWN ORBITALS
  NO   OCC          E(Eh)            E(eV) 
   0   1.0000     -24.673034      -671.3874 
   1   1.0000      -1.116496       -30.3814 
   2   1.0000      -0.417476       -11.3601 
   3   1.0000      -0.417475       -11.3601 
   4   0.0000      -0.286583        -7.7983 
   5   0.0000       0.086129         2.3437 
   6   0.0000       0.101994         2.7754 
   7   0.0000       0.101995         2.7754 
   8   0.0000       0.110646         3.0108 
   9   0.0000       0.472393        12.8545 
  10   0.0000       0.472393        12.8545 
  11   0.0000       0.473186        12.8761 
  12   0.0000       0.473188        12.8761 
  13   0.0000       0.477377        12.9901 
  14   0.0000       0.683594        18.6015 
  15   0.0000       0.683595        18.6016 
  16   0.0000       0.704097        19.1594 
  17   0.0000       0.844910        22.9912 
  18   0.0000       2.180564        59.3362 
  19   0.0000       2.180564        59.3362 
  20   0.0000       2.186851        59.5072 
  21   0.0000       2.186851        59.5073 
  22   0.0000       2.204734        59.9939 
  23   0.0000       3.227131        87.8147 
  24   0.0000       3.227132        87.8147 
  25   0.0000       3.264696        88.8369 
  26   0.0000       3.806086       103.5689 
  27   0.0000       6.869794       186.9366 
  28   0.0000       6.869798       186.9367 
  29   0.0000       6.873129       187.0273 
  30   0.0000       6.873131       187.0274 
  31   0.0000       6.874518       187.0652 
  32   0.0000       6.895964       187.6487 
  33   0.0000       6.895964       187.6487 
  34   0.0000       8.407436       228.7780 
  35   0.0000       8.407437       228.7780 
  36   0.0000       8.424200       229.2341 
  37   0.0000       8.424207       229.2343 
  38   0.0000       8.439293       229.6448 
  39   0.0000      56.658662      1541.7606 

                    ********************************
                    * MULLIKEN POPULATION ANALYSIS *
                    ********************************

--------------------------------------------
MULLIKEN ATOMIC CHARGES AND SPIN POPULATIONS
--------------------------------------------
   0 F :   -0.000000    1.000000
Sum of atomic charges         :   -0.0000000
Sum of atomic spin populations:    1.0000000

-----------------------------------------------------
MULLIKEN REDUCED ORBITAL CHARGES AND SPIN POPULATIONS
-----------------------------------------------------
CHARGE
  0 F s       :     3.999504  s :     3.999504
      pz      :     1.627181  p :     4.999863
      px      :     1.507452
      py      :     1.865231
      dz2     :     0.000002  d :     0.000496
      dxz     :     0.000273
      dyz     :     0.000075
      dx2y2   :     0.000048
      dxy     :     0.000099
      f0      :     0.000014  f :     0.000137
      f+1     :     0.000030
      f-1     :     0.000009
      f+2     :     0.000026
      f-2     :     0.000029
      f+3     :     0.000015
      f-3     :     0.000014

SPIN
  0 F s       :    -0.000238  s :    -0.000238
      pz      :     0.372727  p :     0.999866
      px      :     0.492452
      py      :     0.134686
      dz2     :     0.000001  d :     0.000238
      dxz     :     0.000131
      dyz     :     0.000036
      dx2y2   :     0.000023
      dxy     :     0.000047
      f0      :     0.000014  f :     0.000134
      f+1     :     0.000029
      f-1     :     0.000009
      f+2     :     0.000026
      f-2     :     0.000029
      f+3     :     0.000014
      f-3     :     0.000014


                     *******************************
                     * LOEWDIN POPULATION ANALYSIS *
                     *******************************

-------------------------------------------
LOEWDIN ATOMIC CHARGES AND SPIN POPULATIONS
-------------------------------------------
   0 F :   -0.000000    1.000000

----------------------------------------------------
LOEWDIN REDUCED ORBITAL CHARGES AND SPIN POPULATIONS
----------------------------------------------------
CHARGE
  0 F s       :     3.999504  s :     3.999504
      pz      :     1.627181  p :     4.999863
      px      :     1.507452
      py      :     1.865231
      dz2     :     0.000002  d :     0.000496
      dxz     :     0.000273
      dyz     :     0.000075
      dx2y2   :     0.000048
      dxy     :     0.000099
      f0      :     0.000014  f :     0.000137
      f+1     :     0.000030
      f-1     :     0.000009
      f+2     :     0.000026
      f-2     :     0.000029
      f+3     :     0.000015
      f-3     :     0.000014

SPIN
  0 F s       :    -0.000238  s :    -0.000238
      pz      :     0.372727  p :     0.999866
      px      :     0.492452
      py      :     0.134686
      dz2     :     0.000001  d :     0.000238
      dxz     :     0.000131
      dyz     :     0.000036
      dx2y2   :     0.000023
      dxy     :     0.000047
      f0      :     0.000014  f :     0.000134
      f+1     :     0.000029
      f-1     :     0.000009
      f+2     :     0.000026
      f-2     :     0.000029
      f+3     :     0.000014
      f-3     :     0.000014


                      *****************************
                      * MAYER POPULATION ANALYSIS *
                      *****************************

  NA   - Mulliken gross atomic population
  ZA   - Total nuclear charge
  QA   - Mulliken gross atomic charge
  VA   - Mayer's total valence
  BVA  - Mayer's bonded valence
  FA   - Mayer's free valence

  ATOM       NA         ZA         QA         VA         BVA        FA
  0 F      9.0000     9.0000    -0.0000     1.0035     0.0000     1.0035

  Mayer bond orders larger than 0.100000


-------
TIMINGS
-------

Total SCF time: 0 days 0 hours 0 min 0 sec 

Total time                  ....       0.923 sec
Sum of individual times     ....       0.747 sec  ( 80.9%)

Fock matrix formation       ....       0.581 sec  ( 63.0%)
  XC integration            ....       0.042 sec  (  7.2% of F)
    Basis function eval.    ....       0.002 sec  (  5.1% of XC)
    Density eval.           ....       0.004 sec  (  9.5% of XC)
    XC-Functional eval.     ....       0.004 sec  (  9.7% of XC)
    XC-Potential eval.      ....       0.006 sec  ( 13.1% of XC)
Diagonalization             ....       0.004 sec  (  0.4%)
Density matrix formation    ....       0.001 sec  (  0.1%)
Population analysis         ....       0.003 sec  (  0.3%)
Initial guess               ....       0.101 sec  ( 11.0%)
Orbital Transformation      ....       0.000 sec  (  0.0%)
Orbital Orthonormalization  ....       0.000 sec  (  0.0%)
DIIS solution               ....       0.003 sec  (  0.3%)
Grid generation             ....       0.053 sec  (  5.8%)


-------------------------------------------------------------------------------
                          DFT DISPERSION CORRECTION                            
                                                                               
                              DFTD3 V3.1  Rev 1                                
                          USING Becke-Johnson damping                          
-------------------------------------------------------------------------------
The TPSSH functional is recognized
Active option DFTDOPT                   ...         4   

molecular C6(AA) [au] = 9.639969 


            DFT-D V3
 parameters
 s6 scaling factor         :     1.0000 
 a1 scaling factor         :     0.4529 
 s8 scaling factor         :     2.2382 
 a2 scaling factor         :     4.6550 
 ad hoc parameters k1-k3   :    16.0000     1.3333    -4.0000 

 Edisp/kcal,au: -0.000000000000  -0.000000000000 
 E6   /kcal   :  -0.000000000 
 E8   /kcal   :  -0.000000000 
 % E8         :          -nan 

-------------------------   ----------------
Dispersion correction            0.000000000
-------------------------   ----------------


-------------------------   --------------------
FINAL SINGLE POINT ENERGY       -99.766858195933
-------------------------   --------------------


                            ***************************************
                            *     ORCA property calculations      *
                            ***************************************

                                    ---------------------
                                    Active property flags
                                    ---------------------
   (+) Dipole Moment


------------------------------------------------------------------------------
                       ORCA ELECTRIC PROPERTIES CALCULATION
------------------------------------------------------------------------------

Dipole Moment Calculation                       ... on
Quadrupole Moment Calculation                   ... off
Polarizability Calculation                      ... off
GBWName                                         ... TMD03_F.gbw
Electron density file                           ... TMD03_F.scfp
The origin for moment calculation is the CENTER OF MASS  = ( 0.000000,  0.000000  0.000000)

-------------
DIPOLE MOMENT
-------------
                                X             Y             Z
Electronic contribution:     -0.00000      -0.00000      -0.00000
Nuclear contribution   :      0.00000       0.00000       0.00000
                        -----------------------------------------
Total Dipole Moment    :     -0.00000      -0.00000      -0.00000
                        -----------------------------------------
Magnitude (a.u.)       :      0.00000
Magnitude (Debye)      :      0.00000



--------------------
Rotational spectrum 
--------------------
 
Rotational constants in cm-1:     0.000000     0.000000     0.000000 
Rotational constants in MHz :     0.000000     0.000000     0.000000 

 Dipole components along the rotational axes: 
x,y,z [a.u.] :    -0.000000    -0.000000    -0.000000 
x,y,z [Debye]:    -0.000000    -0.000000    -0.000000 

 

Timings for individual modules:

Sum of individual times         ...        1.924 sec (=   0.032 min)
GTO integral calculation        ...        0.652 sec (=   0.011 min)  33.9 %
SCF iterations                  ...        1.271 sec (=   0.021 min)  66.1 %
                             ****ORCA TERMINATED NORMALLY****
TOTAL RUN TIME: 0 days 0 hours 0 minutes 2 seconds 392 msec
