
                                 *****************
                                 * O   R   C   A *
                                 *****************

           --- An Ab Initio, DFT and Semiempirical electronic structure package ---

                  #######################################################
                  #                        -***-                        #
                  #          Department of theory and spectroscopy      #
                  #               Directorship: Frank Neese             #
                  #        Max Planck Institute fuer Kohlenforschung    #
                  #                Kaiser Wilhelm Platz 1               #
                  #                 D-45470 Muelheim/Ruhr               #
                  #                      Germany                        #
                  #                                                     #
                  #                  All rights reserved                #
                  #                        -***-                        #
                  #######################################################


                         Program Version 4.2.0 -  RELEASE  -


 With contributions from (in alphabetic order):
   Daniel Aravena         : Magnetic Suceptibility
   Michael Atanasov       : Ab Initio Ligand Field Theory (pilot matlab implementation)
   Alexander A. Auer      : GIAO ZORA, VPT2
   Ute Becker             : Parallelization
   Giovanni Bistoni       : ED, misc. LED, open-shell LED, HFLED
   Martin Brehm           : Molecular dynamics
   Dmytro Bykov           : SCF Hessian
   Vijay G. Chilkuri      : MRCI spin determinant printing, contributions to CSF-ICE
   Dipayan Datta          : RHF DLPNO-CCSD density
   Achintya Kumar Dutta   : EOM-CC, STEOM-CC
   Dmitry Ganyushin       : Spin-Orbit,Spin-Spin,Magnetic field MRCI
   Miquel Garcia          : C-PCM Hessian, Gaussian charge scheme
   Yang Guo               : DLPNO-NEVPT2, CIM, IAO-localization
   Andreas Hansen         : Spin unrestricted coupled pair/coupled cluster methods
   Benjamin Helmich-Paris : CASSCF linear response (MC-RPA)
   Lee Huntington         : MR-EOM, pCC
   Robert Izsak           : Overlap fitted RIJCOSX, COSX-SCS-MP3, EOM
   Christian Kollmar      : KDIIS, OOCD, Brueckner-CCSD(T), CCSD density
   Simone Kossmann        : Meta GGA functionals, TD-DFT gradient, OOMP2, MP2 Hessian
   Martin Krupicka        : AUTO-CI
   Lucas Lang             : DCDCAS
   Dagmar Lenk            : GEPOL surface, SMD
   Dimitrios Liakos       : Extrapolation schemes; Compound Job, initial MDCI parallelization
   Dimitrios Manganas     : Further ROCIS development; embedding schemes
   Dimitrios Pantazis     : SARC Basis sets
   Taras Petrenko         : DFT Hessian,TD-DFT gradient, ASA, ECA, R-Raman, ABS, FL, XAS/XES, NRVS
   Peter Pinski           : DLPNO-MP2, DLPNO-MP2 Gradient
   Christoph Reimann      : Effective Core Potentials
   Marius Retegan         : Local ZFS, SOC
   Christoph Riplinger    : Optimizer, TS searches, QM/MM, DLPNO-CCSD(T), (RO)-DLPNO pert. Triples
   Tobias Risthaus        : Range-separated hybrids, TD-DFT gradient, RPA, STAB
   Michael Roemelt        : Original ROCIS implementation
   Masaaki Saitow         : Open-shell DLPNO-CCSD energy and density
   Barbara Sandhoefer     : DKH picture change effects
   Avijit Sen             : IP-ROCIS
   Kantharuban Sivalingam : CASSCF convergence, NEVPT2, FIC-MRCI
   Bernardo de Souza      : ESD, SOC TD-DFT
   Georgi Stoychev        : AutoAux, RI-MP2 NMR
   Willem Van den Heuvel  : Paramagnetic NMR
   Boris Wezisla          : Elementary symmetry handling
   Frank Wennmohs         : Technical directorship


 We gratefully acknowledge several colleagues who have allowed us to
 interface, adapt or use parts of their codes:
   Stefan Grimme, W. Hujo, H. Kruse,             : VdW corrections, initial TS optimization,
                  C. Bannwarth                     DFT functionals, gCP, sTDA/sTD-DF
   Ed Valeev, F. Pavosevic, A. Kumar             : LibInt (2-el integral package), F12 methods
   Garnet Chan, S. Sharma, J. Yang, R. Olivares  : DMRG
   Ulf Ekstrom                                   : XCFun DFT Library
   Mihaly Kallay                                 : mrcc  (arbitrary order and MRCC methods)
   Andreas Klamt, Michael Diedenhofen            : otool_cosmo (COSMO solvation model)
   Jiri Pittner, Ondrej Demel                    : Mk-CCSD
   Frank Weinhold                                : gennbo (NPA and NBO analysis)
   Christopher J. Cramer and Donald G. Truhlar   : smd solvation model
   Lars Goerigk                                  : TD-DFT with DH, B97 family of functionals
   V. Asgeirsson, H. Jonsson                     : NEB implementation
   FAccTs GmbH                                   : IRC, NEB, NEB-TS, Multilevel, MM, QM/MM, CI optimization
   S Lehtola, MJT Oliveira, MAL Marques          : LibXC Library


 Your calculation uses the libint2 library for the computation of 2-el integrals
 For citations please refer to: http://libint.valeyev.net

 Your ORCA version has been built with support for libXC version: 4.2.3
 For citations please refer to: https://tddft.org/programs/libxc/

 This ORCA versions uses:
   CBLAS   interface :  Fast vector & matrix operations
   LAPACKE interface :  Fast linear algebra routines
   SCALAPACK package :  Parallel linear algebra routines


Your calculation utilizes the atom-pairwise dispersion correction
with the Becke-Johnson damping scheme (D3BJ)
Cite in your paper:
S.Grimme, S.Ehrlich, L.Goerigk, J Comput Chem, (2011), 32, 1456–1465 
S.Grimme, J.Antony, S.Ehrlich and H.Krieg, J.Chem.Phys., 132, (2010), 154104 
   

----- Orbital basis set information -----
Your calculation utilizes the basis: def2-TZVPPD
   F. Weigend and R. Ahlrichs, Phys. Chem. Chem. Phys. 7, 3297 (2005).
   D. Rappoport and F. Furche, J. Chem. Phys. 133 134105 (2010).

----- AuxJK basis set information -----
Your calculation utilizes the auxiliary basis: def2/JK
   H-Ba, Hf-Rn: F. Weigend, J. Comput. Chem. 29, 167 (2008).

================================================================================
                                        WARNINGS
                       Please study these warnings very carefully!
================================================================================


WARNING: your system is open-shell and RHF/RKS was chosen
  ===> : WILL SWITCH to UHF/UKS


INFO   : the flag for use of LIBINT has been found!

================================================================================
                                       INPUT FILE
================================================================================
NAME = TMD19_FeCl.in
|  1> #
|  2> # TMD19_FeCl TPSSh-D3BJ/Def2-TZVPPD
|  3> #
|  4> ! tpssh d3bj def2-tzvppd def2/jk grid4 nofinalgrid
|  5> 
|  6> *xyz 0 6
|  7> Fe       0.000000    0.000000    0.869767 
|  8> Cl       0.000000    0.000000   -1.330233 
|  9> *
| 10> 
| 11> %maxcore 5000
| 12> 
| 13> %pal
| 14> nprocs = 24
| 15> end
| 16> 
| 17> 
| 18>                          ****END OF INPUT****
================================================================================

                       ****************************
                       * Single Point Calculation *
                       ****************************

---------------------------------
CARTESIAN COORDINATES (ANGSTROEM)
---------------------------------
  Fe     0.000000    0.000000    0.869767
  Cl     0.000000    0.000000   -1.330233

----------------------------
CARTESIAN COORDINATES (A.U.)
----------------------------
  NO LB      ZA    FRAG     MASS         X           Y           Z
   0 Fe   26.0000    0    55.850    0.000000    0.000000    1.643621
   1 Cl   17.0000    0    35.453    0.000000    0.000000   -2.513776

--------------------------------
INTERNAL COORDINATES (ANGSTROEM)
--------------------------------
 Fe     0   0   0     0.000000000000     0.00000000     0.00000000
 Cl     1   0   0     2.200000000000     0.00000000     0.00000000

---------------------------
INTERNAL COORDINATES (A.U.)
---------------------------
 Fe     0   0   0     0.000000000000     0.00000000     0.00000000
 Cl     1   0   0     4.157397494627     0.00000000     0.00000000

---------------------
BASIS SET INFORMATION
---------------------
There are 2 groups of distinct atoms

 Group   1 Type Fe  : 17s13p7d2f1g contracted to 6s6p4d2f1g pattern {842111/631111/4111/11/1}
 Group   2 Type Cl  : 15s10p4d1f contracted to 6s6p4d1f pattern {732111/511111/1111/1}

Atom   0Fe   basis set group =>   1
Atom   1Cl   basis set group =>   2
----------------------------------
AUXILIARY/JK BASIS SET INFORMATION
----------------------------------
There are 2 groups of distinct atoms

 Group   1 Type Fe  : 19s14p12d10f7g3h1i contracted to 16s13p11d9f5g3h1i pattern {4111111111111111/2111111111111/21111111111/211111111/31111/111/1}
 Group   2 Type Cl  : 16s12p10d4f1g contracted to 13s11p9d4f1g pattern {4111111111111/21111111111/211111111/1111/1}

Atom   0Fe   basis set group =>   1
Atom   1Cl   basis set group =>   2


           ************************************************************
           *        Program running with 24 parallel MPI-processes    *
           *              working on a common directory               *
           ************************************************************
------------------------------------------------------------------------------
                           ORCA GTO INTEGRAL CALCULATION
------------------------------------------------------------------------------

                         BASIS SET STATISTICS AND STARTUP INFO

 # of primitive gaussian shells          ...   70
 # of primitive gaussian functions       ...  186
 # of contracted shells                  ...   36
 # of contracted basis functions         ...  118
 Highest angular momentum                ...    4
 Maximum contraction depth               ...    8
 Integral package used                   ... LIBINT
 Integral threshhold            Thresh   ...  1.000e-10
 Primitive cut-off              TCut     ...  1.000e-11


------------------------------ INTEGRAL EVALUATION ----------------------------


 * One electron integrals 
 Pre-screening matrix                    ... done
 Shell pair data                         ... done (   0.000 sec)



           ************************************************************
           *        Program running with 24 parallel MPI-processes    *
           *              working on a common directory               *
           ************************************************************
-------------------------------------------------------------------------------
                                 ORCA SCF
-------------------------------------------------------------------------------

------------
SCF SETTINGS
------------
Hamiltonian:
 Density Functional     Method          .... DFT(GTOs)
 Exchange Functional    Exchange        .... TPSS
 Correlation Functional Correlation     .... TPSS
 LDA part of GGA corr.  LDAOpt          .... PW91-LDA
 Gradients option       PostSCFGGA      .... off
 Hybrid DFT is turned on
   Fraction HF Exchange ScalHFX         ....  0.100000
   Scaling of DF-GGA-X  ScalDFX         ....  0.900000
   Scaling of DF-GGA-C  ScalDFC         ....  1.000000
   Scaling of DF-LDA-C  ScalLDAC        ....  1.000000
   Perturbative correction              ....  0.000000
   Density functional embedding theory  .... OFF
   NL short-range parameter             ....  5.200000


General Settings:
 Integral files         IntName         .... TMD19_FeCl
 Hartree-Fock type      HFTyp           .... UHF
 Total Charge           Charge          ....    0
 Multiplicity           Mult            ....    6
 Number of Electrons    NEL             ....   43
 Basis Dimension        Dim             ....  118
 Nuclear Repulsion      ENuc            ....    106.3165118494 Eh

Convergence Acceleration:
 DIIS                   CNVDIIS         .... on
   Start iteration      DIISMaxIt       ....    12
   Startup error        DIISStart       ....  0.200000
   # of expansion vecs  DIISMaxEq       ....     5
   Bias factor          DIISBfac        ....   1.050
   Max. coefficient     DIISMaxC        ....  10.000
 Newton-Raphson         CNVNR           .... off
 SOSCF                  CNVSOSCF        .... off
 Level Shifting         CNVShift        .... on
   Level shift para.    LevelShift      ....    0.2500
   Turn off err/grad.   ShiftErr        ....    0.0010
 Zerner damping         CNVZerner       .... off
 Static damping         CNVDamp         .... on
   Fraction old density DampFac         ....    0.7000
   Max. Damping (<1)    DampMax         ....    0.9800
   Min. Damping (>=0)   DampMin         ....    0.0000
   Turn off err/grad.   DampErr         ....    0.1000
 Fernandez-Rico         CNVRico         .... off

SCF Procedure:
 Maximum # iterations   MaxIter         ....   125
 SCF integral mode      SCFMode         .... Direct
   Integral package                     .... LIBINT
 Reset frequency        DirectResetFreq ....    20
 Integral Threshold     Thresh          ....  1.000e-10 Eh
 Primitive CutOff       TCut            ....  1.000e-11 Eh

Convergence Tolerance:
 Convergence Check Mode ConvCheckMode   .... Total+1el-Energy
 Convergence forced     ConvForced      .... 0
 Energy Change          TolE            ....  1.000e-06 Eh
 1-El. energy change                    ....  1.000e-03 Eh
 DIIS Error             TolErr          ....  1.000e-06


Diagonalization of the overlap matrix:
Smallest eigenvalue                        ... 2.470e-03
Time for diagonalization                   ...    0.004 sec
Threshold for overlap eigenvalues          ... 1.000e-08
Number of eigenvalues below threshold      ... 0
Time for construction of square roots      ...    0.002 sec
Total time needed                          ...    0.006 sec

-------------------
DFT GRID GENERATION
-------------------

General Integration Accuracy     IntAcc      ...  4.670
Radial Grid Type                 RadialGrid  ... Gauss-Chebyshev
Angular Grid (max. acc.)         AngularGrid ... Lebedev-302
Angular grid pruning method      GridPruning ... 3 (G Style)
Weight generation scheme         WeightScheme... Becke
Basis function cutoff            BFCut       ...    1.0000e-10
Integration weight cutoff        WCut        ...    1.0000e-14
Grids for H and He will be reduced by one unit

# of grid points (after initial pruning)     ...  16378 (   0.0 sec)
# of grid points (after weights+screening)   ...  16351 (   0.0 sec)
nearest neighbour list constructed           ...    0.0 sec
Grid point re-assignment to atoms done       ...    0.0 sec
Grid point division into batches done        ...    0.1 sec
Reduced shell lists constructed in    0.1 sec

Total number of grid points                  ...    16351
Total number of batches                      ...      256
Average number of points per batch           ...       63
Average number of grid points per atom       ...     8176
Average number of shells per batch           ...     6.33 (17.59%)
Average number of basis functions per batch  ...    18.00 (15.25%)
Average number of large shells per batch     ...     3.92 (61.84%)
Average number of large basis fcns per batch ...    10.75 (59.72%)
Maximum spatial batch extension              ...  24.49, 24.19, 18.13 au
Average spatial batch extension              ...   0.85,  0.84,  0.66 au

Time for grid setup =    0.153 sec

------------------------------
INITIAL GUESS: MODEL POTENTIAL
------------------------------
Loading Hartree-Fock densities                     ... done
Calculating cut-offs                               ... done
Setting up the integral package                    ... done
Initializing the effective Hamiltonian             ... done
Starting the Coulomb interaction                   ... done (   0.0 sec)
Reading the grid                                   ... done
Mapping shells                                     ... done
Starting the XC term evaluation                    ... done (   0.0 sec)
  promolecular density results
     # of electrons  =     42.999992190
     EX              =    -81.465879759
     EC              =     -1.805133777
     EX+EC           =    -83.271013536
Transforming the Hamiltonian                       ... done (   0.0 sec)
Diagonalizing the Hamiltonian                      ... done (   0.0 sec)
Back transforming the eigenvectors                 ... done (   0.0 sec)
Now organizing SCF variables                       ... done
                      ------------------
                      INITIAL GUESS DONE (   0.2 sec)
                      ------------------
--------------
SCF ITERATIONS
--------------
ITER       Energy         Delta-E        Max-DP      RMS-DP      [F,P]     Damp
               ***  Starting incremental Fock matrix formation  ***
  0  -1723.9422719291   0.000000000000 0.04810119  0.00062939  0.0808316 0.7000
  1  -1723.9569707717  -0.014698842662 0.03197827  0.00040134  0.0369754 0.7000
                               ***Turning on DIIS***
  2  -1723.9617878891  -0.004817117403 0.06773714  0.00086505  0.0308499 0.0000
  3  -1723.9767828608  -0.014994971661 0.00831200  0.00024721  0.0206418 0.0000
  4  -1723.9787222521  -0.001939391306 0.01677082  0.00017422  0.0065951 0.0000
  5  -1723.9792222182  -0.000499966093 0.00770657  0.00010594  0.0048640 0.0000
  6  -1723.9794005098  -0.000178291569 0.00491865  0.00006540  0.0029132 0.0000
  7  -1723.9794635234  -0.000063013643 0.00313723  0.00004034  0.0011065 0.0000
  8  -1723.9794851124  -0.000021589016 0.00416326  0.00005217  0.0006931 0.0000
  9  -1723.9794946118  -0.000009499365 0.00085370  0.00000984  0.0007214 0.0000
 10  -1723.9794962339  -0.000001622085 0.00006633  0.00000167  0.0001135 0.0000
 11  -1723.9794962955  -0.000000061568 0.00007887  0.00000083  0.0000981 0.0000
 12  -1723.9794963091  -0.000000013643 0.00001370  0.00000031  0.0000341 0.0000
                 **** Energy Check signals convergence ****

               *****************************************************
               *                     SUCCESS                       *
               *           SCF CONVERGED AFTER  13 CYCLES          *
               *****************************************************


----------------
TOTAL SCF ENERGY
----------------

Total Energy       :        -1723.97949631 Eh          -46911.86705 eV

Components:
Nuclear Repulsion  :          106.31651185 Eh            2893.01937 eV
Electronic Energy  :        -1830.29600816 Eh          -49804.88641 eV
One Electron Energy:        -2592.51042000 Eh          -70545.79501 eV
Two Electron Energy:          762.21441184 Eh           20740.90859 eV

Virial components:
Potential Energy   :        -3445.25765018 Eh          -93750.22683 eV
Kinetic Energy     :         1721.27815386 Eh           46838.35978 eV
Virial Ratio       :            2.00156938


DFT components:
N(Alpha)           :       23.999998511836 electrons
N(Beta)            :       18.999999756025 electrons
N(Total)           :       42.999998267861 electrons
E(X)               :      -73.965729711531 Eh       
E(C)               :       -1.793907542498 Eh       
E(XC)              :      -75.759637254030 Eh       
DFET-embed. en.    :        0.000000000000 Eh       

---------------
SCF CONVERGENCE
---------------

  Last Energy change         ...   -1.9545e-09  Tolerance :   1.0000e-06
  Last MAX-Density change    ...    9.0462e-06  Tolerance :   1.0000e-05
  Last RMS-Density change    ...    1.6009e-07  Tolerance :   1.0000e-06
  Last DIIS Error            ...    1.1686e-05  Tolerance :   1.0000e-06

             **** THE GBW FILE WAS UPDATED (TMD19_FeCl.gbw) ****
             **** DENSITY FILE WAS UPDATED (TMD19_FeCl.scfp) ****
             **** ENERGY FILE WAS UPDATED (TMD19_FeCl.en.tmp) ****
----------------------
UHF SPIN CONTAMINATION
----------------------

Warning: in a DFT calculation there is little theoretical justification to 
         calculate <S**2> as in Hartree-Fock theory. We will do it anyways
         but you should keep in mind that the values have only limited relevance

Expectation value of <S**2>     :     8.753584
Ideal value S*(S+1) for S=2.5   :     8.750000
Deviation                       :     0.003584

             **** THE GBW FILE WAS UPDATED (TMD19_FeCl.gbw) ****
             **** DENSITY FILE WAS UPDATED (TMD19_FeCl.scfp) ****
----------------
ORBITAL ENERGIES
----------------
                 SPIN UP ORBITALS
  NO   OCC          E(Eh)            E(eV) 
   0   1.0000    -255.931540     -6964.2513 
   1   1.0000    -101.351675     -2757.9193 
   2   1.0000     -29.981749      -815.8449 
   3   1.0000     -25.831168      -702.9018 
   4   1.0000     -25.803893      -702.1596 
   5   1.0000     -25.803893      -702.1596 
   6   1.0000      -9.353330      -254.5171 
   7   1.0000      -7.096914      -193.1169 
   8   1.0000      -7.094556      -193.0527 
   9   1.0000      -7.094556      -193.0527 
  10   1.0000      -3.563597       -96.9704 
  11   1.0000      -2.374168       -64.6044 
  12   1.0000      -2.319517       -63.1173 
  13   1.0000      -2.319517       -63.1173 
  14   1.0000      -0.771915       -21.0049 
  15   1.0000      -0.414432       -11.2773 
  16   1.0000      -0.395904       -10.7731 
  17   1.0000      -0.395904       -10.7731 
  18   1.0000      -0.372873       -10.1464 
  19   1.0000      -0.331185        -9.0120 
  20   1.0000      -0.327710        -8.9174 
  21   1.0000      -0.296554        -8.0696 
  22   1.0000      -0.296554        -8.0696 
  23   1.0000      -0.196246        -5.3401 
  24   0.0000      -0.046800        -1.2735 
  25   0.0000      -0.046800        -1.2735 
  26   0.0000       0.004483         0.1220 
  27   0.0000       0.048420         1.3176 
  28   0.0000       0.065376         1.7790 
  29   0.0000       0.065376         1.7790 
  30   0.0000       0.076102         2.0708 
  31   0.0000       0.085480         2.3260 
  32   0.0000       0.085480         2.3260 
  33   0.0000       0.122143         3.3237 
  34   0.0000       0.136856         3.7240 
  35   0.0000       0.138680         3.7737 
  36   0.0000       0.184596         5.0231 
  37   0.0000       0.184861         5.0303 
  38   0.0000       0.184861         5.0303 
  39   0.0000       0.224017         6.0958 
  40   0.0000       0.224560         6.1106 
  41   0.0000       0.276392         7.5210 
  42   0.0000       0.295235         8.0337 
  43   0.0000       0.295235         8.0337 
  44   0.0000       0.295888         8.0515 
  45   0.0000       0.488385        13.2896 
  46   0.0000       0.488385        13.2896 
  47   0.0000       0.500769        13.6266 
  48   0.0000       0.525029        14.2868 
  49   0.0000       0.525029        14.2868 
  50   0.0000       0.582099        15.8397 
  51   0.0000       0.582306        15.8454 
  52   0.0000       0.596752        16.2385 
  53   0.0000       0.596752        16.2385 
  54   0.0000       0.599042        16.3008 
  55   0.0000       0.749245        20.3880 
  56   0.0000       0.813089        22.1253 
  57   0.0000       0.824459        22.4347 
  58   0.0000       0.877642        23.8819 
  59   0.0000       0.877642        23.8819 
  60   0.0000       0.941903        25.6305 
  61   0.0000       1.148022        31.2393 
  62   0.0000       1.891451        51.4690 
  63   0.0000       1.891451        51.4690 
  64   0.0000       1.896094        51.5953 
  65   0.0000       1.896158        51.5971 
  66   0.0000       1.949615        53.0517 
  67   0.0000       1.993107        54.2352 
  68   0.0000       2.031780        55.2875 
  69   0.0000       2.031780        55.2875 
  70   0.0000       2.070112        56.3306 
  71   0.0000       2.071932        56.3801 
  72   0.0000       2.099374        57.1269 
  73   0.0000       2.099374        57.1269 
  74   0.0000       2.226432        60.5843 
  75   0.0000       2.226432        60.5843 
  76   0.0000       2.237966        60.8981 
  77   0.0000       2.250439        61.2375 
  78   0.0000       2.276983        61.9599 
  79   0.0000       2.276983        61.9599 
  80   0.0000       2.335140        63.5424 
  81   0.0000       2.352821        64.0235 
  82   0.0000       2.352821        64.0235 
  83   0.0000       2.454751        66.7972 
  84   0.0000       2.519697        68.5644 
  85   0.0000       2.519697        68.5644 
  86   0.0000       2.714482        73.8648 
  87   0.0000       3.199676        87.0676 
  88   0.0000       3.327699        90.5513 
  89   0.0000       3.356883        91.3454 
  90   0.0000       3.381684        92.0203 
  91   0.0000       3.381684        92.0203 
  92   0.0000       3.499640        95.2300 
  93   0.0000       8.117407       220.8859 
  94   0.0000       8.117547       220.8897 
  95   0.0000       8.143985       221.6091 
  96   0.0000       8.143985       221.6091 
  97   0.0000       8.226203       223.8464 
  98   0.0000       8.357205       227.4111 
  99   0.0000       8.366472       227.6633 
 100   0.0000       8.366472       227.6633 
 101   0.0000       8.380388       228.0419 
 102   0.0000       8.380650       228.0491 
 103   0.0000       8.387778       228.2430 
 104   0.0000       8.387778       228.2430 
 105   0.0000       8.403888       228.6814 
 106   0.0000       8.407180       228.7710 
 107   0.0000       8.973889       244.1919 
 108   0.0000       9.008129       245.1237 
 109   0.0000       9.008672       245.1384 
 110   0.0000       9.008672       245.1384 
 111   0.0000       9.036648       245.8997 
 112   0.0000       9.036648       245.8997 
 113   0.0000       9.167939       249.4723 
 114   0.0000      10.785561       293.4900 
 115   0.0000      10.785561       293.4900 
 116   0.0000      11.029469       300.1271 
 117   0.0000      25.005792       680.4422 

                 SPIN DOWN ORBITALS
  NO   OCC          E(Eh)            E(eV) 
   0   1.0000    -255.929364     -6964.1920 
   1   1.0000    -101.349871     -2757.8702 
   2   1.0000     -29.914168      -814.0059 
   3   1.0000     -25.764886      -701.0982 
   4   1.0000     -25.752013      -700.7479 
   5   1.0000     -25.752013      -700.7479 
   6   1.0000      -9.351887      -254.4778 
   7   1.0000      -7.094193      -193.0428 
   8   1.0000      -7.092553      -192.9982 
   9   1.0000      -7.092553      -192.9982 
  10   1.0000      -3.388245       -92.1988 
  11   1.0000      -2.157481       -58.7081 
  12   1.0000      -2.155284       -58.6482 
  13   1.0000      -2.155284       -58.6482 
  14   1.0000      -0.761010       -20.7081 
  15   1.0000      -0.349090        -9.4992 
  16   1.0000      -0.302849        -8.2409 
  17   1.0000      -0.302849        -8.2409 
  18   1.0000      -0.258184        -7.0255 
  19   0.0000      -0.158184        -4.3044 
  20   0.0000      -0.141707        -3.8560 
  21   0.0000      -0.141707        -3.8560 
  22   0.0000      -0.108486        -2.9521 
  23   0.0000      -0.105381        -2.8676 
  24   0.0000      -0.008655        -0.2355 
  25   0.0000      -0.008655        -0.2355 
  26   0.0000       0.021489         0.5847 
  27   0.0000       0.071601         1.9484 
  28   0.0000       0.072222         1.9653 
  29   0.0000       0.072222         1.9653 
  30   0.0000       0.108220         2.9448 
  31   0.0000       0.117049         3.1851 
  32   0.0000       0.117049         3.1851 
  33   0.0000       0.150978         4.1083 
  34   0.0000       0.151504         4.1226 
  35   0.0000       0.159721         4.3462 
  36   0.0000       0.192140         5.2284 
  37   0.0000       0.210512         5.7283 
  38   0.0000       0.210512         5.7283 
  39   0.0000       0.237275         6.4566 
  40   0.0000       0.243166         6.6169 
  41   0.0000       0.293162         7.9773 
  42   0.0000       0.304293         8.2802 
  43   0.0000       0.304293         8.2802 
  44   0.0000       0.322432         8.7738 
  45   0.0000       0.525112        14.2890 
  46   0.0000       0.526756        14.3338 
  47   0.0000       0.526756        14.3338 
  48   0.0000       0.533541        14.5184 
  49   0.0000       0.533541        14.5184 
  50   0.0000       0.588700        16.0193 
  51   0.0000       0.588947        16.0261 
  52   0.0000       0.616457        16.7747 
  53   0.0000       0.616457        16.7747 
  54   0.0000       0.633493        17.2382 
  55   0.0000       0.767515        20.8851 
  56   0.0000       0.872746        23.7486 
  57   0.0000       0.905976        24.6529 
  58   0.0000       0.949442        25.8356 
  59   0.0000       0.949442        25.8356 
  60   0.0000       0.983213        26.7546 
  61   0.0000       1.191930        32.4341 
  62   0.0000       1.902974        51.7825 
  63   0.0000       1.903479        51.7963 
  64   0.0000       1.919206        52.2243 
  65   0.0000       1.919206        52.2243 
  66   0.0000       1.982352        53.9425 
  67   0.0000       2.038929        55.4821 
  68   0.0000       2.059390        56.0389 
  69   0.0000       2.059390        56.0389 
  70   0.0000       2.087411        56.8013 
  71   0.0000       2.089280        56.8522 
  72   0.0000       2.107605        57.3508 
  73   0.0000       2.107605        57.3508 
  74   0.0000       2.319884        63.1273 
  75   0.0000       2.319884        63.1273 
  76   0.0000       2.332725        63.4767 
  77   0.0000       2.345880        63.8347 
  78   0.0000       2.345880        63.8347 
  79   0.0000       2.369068        64.4656 
  80   0.0000       2.396498        65.2120 
  81   0.0000       2.396498        65.2120 
  82   0.0000       2.399240        65.2866 
  83   0.0000       2.524185        68.6866 
  84   0.0000       2.595156        70.6178 
  85   0.0000       2.595156        70.6178 
  86   0.0000       2.805579        76.3437 
  87   0.0000       3.266480        88.8854 
  88   0.0000       3.424779        93.1930 
  89   0.0000       3.479668        94.6866 
  90   0.0000       3.514058        95.6224 
  91   0.0000       3.514058        95.6224 
  92   0.0000       3.626895        98.6928 
  93   0.0000       8.120301       220.9646 
  94   0.0000       8.120522       220.9706 
  95   0.0000       8.151439       221.8119 
  96   0.0000       8.151439       221.8119 
  97   0.0000       8.236139       224.1167 
  98   0.0000       8.506967       231.4863 
  99   0.0000       8.512772       231.6443 
 100   0.0000       8.512772       231.6443 
 101   0.0000       8.523344       231.9320 
 102   0.0000       8.523815       231.9448 
 103   0.0000       8.523825       231.9451 
 104   0.0000       8.526080       232.0064 
 105   0.0000       8.526080       232.0064 
 106   0.0000       8.532168       232.1721 
 107   0.0000       9.182906       249.8796 
 108   0.0000       9.197473       250.2760 
 109   0.0000       9.197473       250.2760 
 110   0.0000       9.220598       250.9052 
 111   0.0000       9.237561       251.3668 
 112   0.0000       9.237561       251.3668 
 113   0.0000       9.372232       255.0314 
 114   0.0000      10.789560       293.5989 
 115   0.0000      10.789560       293.5989 
 116   0.0000      11.038232       300.3656 
 117   0.0000      25.009257       680.5365 

                    ********************************
                    * MULLIKEN POPULATION ANALYSIS *
                    ********************************

--------------------------------------------
MULLIKEN ATOMIC CHARGES AND SPIN POPULATIONS
--------------------------------------------
   0 Fe:    0.375032    4.859116
   1 Cl:   -0.375032    0.140884
Sum of atomic charges         :   -0.0000000
Sum of atomic spin populations:    5.0000000

-----------------------------------------------------
MULLIKEN REDUCED ORBITAL CHARGES AND SPIN POPULATIONS
-----------------------------------------------------
CHARGE
  0 Fes       :     7.077291  s :     7.077291
      pz      :     4.261588  p :    12.327244
      px      :     4.032828
      py      :     4.032828
      dz2     :     1.093775  d :     6.218215
      dxz     :     1.062837
      dyz     :     1.062837
      dx2y2   :     0.999777
      dxy     :     1.998988
      f0      :     0.001031  f :     0.002159
      f+1     :     0.000500
      f-1     :     0.000500
      f+2     :     0.000000
      f-2     :     0.000002
      f+3     :     0.000063
      f-3     :     0.000063
      g0      :     0.000012  g :     0.000059
      g+1     :     0.000008
      g-1     :     0.000008
      g+2     :     0.000002
      g-2     :     0.000008
      g+3     :     0.000002
      g-3     :     0.000002
      g+4     :     0.000018
      g-4     :     0.000000
  1 Cls       :     5.940961  s :     5.940961
      pz      :     3.619418  p :    11.409438
      px      :     3.895010
      py      :     3.895010
      dz2     :     0.005162  d :     0.023013
      dxz     :     0.008357
      dyz     :     0.008357
      dx2y2   :     0.000199
      dxy     :     0.000938
      f0      :     0.000745  f :     0.001621
      f+1     :     0.000395
      f-1     :     0.000395
      f+2     :     0.000022
      f-2     :     0.000064
      f+3     :     0.000000
      f-3     :     0.000000

SPIN
  0 Fes       :     0.895313  s :     0.895313
      pz      :     0.193404  p :     0.213459
      px      :     0.010028
      py      :     0.010028
      dz2     :     0.884876  d :     3.750378
      dxz     :     0.932654
      dyz     :     0.932654
      dx2y2   :     0.999777
      dxy     :     0.000417
      f0      :     0.000007  f :    -0.000058
      f+1     :     0.000011
      f-1     :     0.000011
      f+2     :     0.000000
      f-2     :    -0.000001
      f+3     :    -0.000042
      f-3     :    -0.000042
      g0      :     0.000004  g :     0.000023
      g+1     :     0.000005
      g-1     :     0.000005
      g+2     :     0.000002
      g-2     :     0.000007
      g+3     :     0.000001
      g-3     :     0.000001
      g+4     :    -0.000002
      g-4     :    -0.000000
  1 Cls       :    -0.024493  s :    -0.024493
      pz      :     0.053373  p :     0.168674
      px      :     0.057651
      py      :     0.057651
      dz2     :    -0.002591  d :    -0.003553
      dxz     :    -0.000375
      dyz     :    -0.000375
      dx2y2   :     0.000199
      dxy     :    -0.000411
      f0      :     0.000109  f :     0.000256
      f+1     :     0.000068
      f-1     :     0.000068
      f+2     :     0.000022
      f-2     :    -0.000011
      f+3     :     0.000000
      f-3     :     0.000000


                     *******************************
                     * LOEWDIN POPULATION ANALYSIS *
                     *******************************

-------------------------------------------
LOEWDIN ATOMIC CHARGES AND SPIN POPULATIONS
-------------------------------------------
   0 Fe:    0.191490    4.636741
   1 Cl:   -0.191490    0.363259

----------------------------------------------------
LOEWDIN REDUCED ORBITAL CHARGES AND SPIN POPULATIONS
----------------------------------------------------
CHARGE
  0 Fes       :     6.730393  s :     6.730393
      pz      :     4.467638  p :    12.601374
      px      :     4.066868
      py      :     4.066868
      dz2     :     1.223308  d :     6.471697
      dxz     :     1.126108
      dyz     :     1.126108
      dx2y2   :     0.999089
      dxy     :     1.997085
      f0      :     0.002985  f :     0.004971
      f+1     :     0.000929
      f-1     :     0.000929
      f+2     :     0.000000
      f-2     :     0.000002
      f+3     :     0.000063
      f-3     :     0.000063
      g0      :     0.000023  g :     0.000074
      g+1     :     0.000010
      g-1     :     0.000010
      g+2     :     0.000002
      g-2     :     0.000008
      g+3     :     0.000002
      g-3     :     0.000002
      g+4     :     0.000018
      g-4     :     0.000000
  1 Cls       :     5.754818  s :     5.754818
      pz      :     3.740536  p :    11.332309
      px      :     3.795887
      py      :     3.795887
      dz2     :     0.078767  d :     0.101388
      dxz     :     0.009483
      dyz     :     0.009483
      dx2y2   :     0.000866
      dxy     :     0.002789
      f0      :     0.001515  f :     0.002975
      f+1     :     0.000651
      f-1     :     0.000651
      f+2     :     0.000042
      f-2     :     0.000117
      f+3     :     0.000000
      f-3     :     0.000000

SPIN
  0 Fes       :     0.612346  s :     0.612346
      pz      :     0.271548  p :     0.295873
      px      :     0.012163
      py      :     0.012163
      dz2     :     0.878613  d :     3.728293
      dxz     :     0.925020
      dyz     :     0.925020
      dx2y2   :     0.999089
      dxy     :     0.000551
      f0      :     0.000229  f :     0.000206
      f+1     :     0.000031
      f-1     :     0.000031
      f+2     :     0.000000
      f-2     :    -0.000000
      f+3     :    -0.000042
      f-3     :    -0.000042
      g0      :     0.000004  g :     0.000022
      g+1     :     0.000005
      g-1     :     0.000005
      g+2     :     0.000002
      g-2     :     0.000007
      g+3     :     0.000001
      g-3     :     0.000001
      g+4     :    -0.000002
      g-4     :    -0.000000
  1 Cls       :     0.045775  s :     0.045775
      pz      :     0.154076  p :     0.271701
      px      :     0.058812
      py      :     0.058812
      dz2     :     0.036655  d :     0.044169
      dxz     :     0.003596
      dyz     :     0.003596
      dx2y2   :     0.000866
      dxy     :    -0.000544
      f0      :     0.000757  f :     0.001614
      f+1     :     0.000414
      f-1     :     0.000414
      f+2     :     0.000042
      f-2     :    -0.000012
      f+3     :     0.000000
      f-3     :     0.000000


                      *****************************
                      * MAYER POPULATION ANALYSIS *
                      *****************************

  NA   - Mulliken gross atomic population
  ZA   - Total nuclear charge
  QA   - Mulliken gross atomic charge
  VA   - Mayer's total valence
  BVA  - Mayer's bonded valence
  FA   - Mayer's free valence

  ATOM       NA         ZA         QA         VA         BVA        FA
  0 Fe    25.6250    26.0000     0.3750     5.4961     0.8348     4.6613
  1 Cl    17.3750    17.0000    -0.3750     0.8606     0.8348     0.0258

  Mayer bond orders larger than 0.100000
B(  0-Fe,  1-Cl) :   0.8348 

-------
TIMINGS
-------

Total SCF time: 0 days 0 hours 0 min 3 sec 

Total time                  ....       3.103 sec
Sum of individual times     ....       2.893 sec  ( 93.2%)

Fock matrix formation       ....       2.570 sec  ( 82.8%)
  XC integration            ....       0.444 sec  ( 17.3% of F)
    Basis function eval.    ....       0.019 sec  (  4.2% of XC)
    Density eval.           ....       0.042 sec  (  9.4% of XC)
    XC-Functional eval.     ....       0.018 sec  (  4.0% of XC)
    XC-Potential eval.      ....       0.100 sec  ( 22.6% of XC)
Diagonalization             ....       0.049 sec  (  1.6%)
Density matrix formation    ....       0.011 sec  (  0.3%)
Population analysis         ....       0.006 sec  (  0.2%)
Initial guess               ....       0.085 sec  (  2.7%)
Orbital Transformation      ....       0.000 sec  (  0.0%)
Orbital Orthonormalization  ....       0.000 sec  (  0.0%)
DIIS solution               ....       0.019 sec  (  0.6%)
Grid generation             ....       0.153 sec  (  4.9%)


-------------------------------------------------------------------------------
                          DFT DISPERSION CORRECTION                            
                                                                               
                              DFTD3 V3.1  Rev 1                                
                          USING Becke-Johnson damping                          
-------------------------------------------------------------------------------
The TPSSH functional is recognized
Active option DFTDOPT                   ...         4   

molecular C6(AA) [au] = 597.150346 


            DFT-D V3
 parameters
 s6 scaling factor         :     1.0000 
 a1 scaling factor         :     0.4529 
 s8 scaling factor         :     2.2382 
 a2 scaling factor         :     4.6550 
 ad hoc parameters k1-k3   :    16.0000     1.3333    -4.0000 

 Edisp/kcal,au: -0.846376498742  -0.001348786661 
 E6   /kcal   :  -0.274138508 
 E8   /kcal   :  -0.572237991 
 % E8         :  67.610335549 

-------------------------   ----------------
Dispersion correction           -0.001348787
-------------------------   ----------------


-------------------------   --------------------
FINAL SINGLE POINT ENERGY     -1723.980845097710
-------------------------   --------------------


                            ***************************************
                            *     ORCA property calculations      *
                            ***************************************

                                    ---------------------
                                    Active property flags
                                    ---------------------
   (+) Dipole Moment


------------------------------------------------------------------------------
                       ORCA ELECTRIC PROPERTIES CALCULATION
------------------------------------------------------------------------------

Dipole Moment Calculation                       ... on
Quadrupole Moment Calculation                   ... off
Polarizability Calculation                      ... off
GBWName                                         ... TMD19_FeCl.gbw
Electron density file                           ... TMD19_FeCl.scfp
The origin for moment calculation is the CENTER OF MASS  = ( 0.000000,  0.000000  0.029302)

-------------
DIPOLE MOMENT
-------------
                                X             Y             Z
Electronic contribution:      0.00000       0.00000       2.08146
Nuclear contribution   :      0.00000       0.00000      -1.26002
                        -----------------------------------------
Total Dipole Moment    :      0.00000       0.00000       0.82144
                        -----------------------------------------
Magnitude (a.u.)       :      0.82144
Magnitude (Debye)      :      2.08793



--------------------
Rotational spectrum 
--------------------
 
Rotational constants in cm-1:     0.000000     0.160606     0.160606 
Rotational constants in MHz :     0.000000  4814.831818  4814.831818 

 Dipole components along the rotational axes: 
x,y,z [a.u.] :     0.821438     0.000000     0.000000 
x,y,z [Debye]:     2.087930     0.000000     0.000000 

 

Timings for individual modules:

Sum of individual times         ...        4.194 sec (=   0.070 min)
GTO integral calculation        ...        0.733 sec (=   0.012 min)  17.5 %
SCF iterations                  ...        3.460 sec (=   0.058 min)  82.5 %
                             ****ORCA TERMINATED NORMALLY****
TOTAL RUN TIME: 0 days 0 hours 0 minutes 4 seconds 658 msec
