
                                 *****************
                                 * O   R   C   A *
                                 *****************

           --- An Ab Initio, DFT and Semiempirical electronic structure package ---

                  #######################################################
                  #                        -***-                        #
                  #          Department of theory and spectroscopy      #
                  #               Directorship: Frank Neese             #
                  #        Max Planck Institute fuer Kohlenforschung    #
                  #                Kaiser Wilhelm Platz 1               #
                  #                 D-45470 Muelheim/Ruhr               #
                  #                      Germany                        #
                  #                                                     #
                  #                  All rights reserved                #
                  #                        -***-                        #
                  #######################################################


                         Program Version 4.2.0 -  RELEASE  -


 With contributions from (in alphabetic order):
   Daniel Aravena         : Magnetic Suceptibility
   Michael Atanasov       : Ab Initio Ligand Field Theory (pilot matlab implementation)
   Alexander A. Auer      : GIAO ZORA, VPT2
   Ute Becker             : Parallelization
   Giovanni Bistoni       : ED, misc. LED, open-shell LED, HFLED
   Martin Brehm           : Molecular dynamics
   Dmytro Bykov           : SCF Hessian
   Vijay G. Chilkuri      : MRCI spin determinant printing, contributions to CSF-ICE
   Dipayan Datta          : RHF DLPNO-CCSD density
   Achintya Kumar Dutta   : EOM-CC, STEOM-CC
   Dmitry Ganyushin       : Spin-Orbit,Spin-Spin,Magnetic field MRCI
   Miquel Garcia          : C-PCM Hessian, Gaussian charge scheme
   Yang Guo               : DLPNO-NEVPT2, CIM, IAO-localization
   Andreas Hansen         : Spin unrestricted coupled pair/coupled cluster methods
   Benjamin Helmich-Paris : CASSCF linear response (MC-RPA)
   Lee Huntington         : MR-EOM, pCC
   Robert Izsak           : Overlap fitted RIJCOSX, COSX-SCS-MP3, EOM
   Christian Kollmar      : KDIIS, OOCD, Brueckner-CCSD(T), CCSD density
   Simone Kossmann        : Meta GGA functionals, TD-DFT gradient, OOMP2, MP2 Hessian
   Martin Krupicka        : AUTO-CI
   Lucas Lang             : DCDCAS
   Dagmar Lenk            : GEPOL surface, SMD
   Dimitrios Liakos       : Extrapolation schemes; Compound Job, initial MDCI parallelization
   Dimitrios Manganas     : Further ROCIS development; embedding schemes
   Dimitrios Pantazis     : SARC Basis sets
   Taras Petrenko         : DFT Hessian,TD-DFT gradient, ASA, ECA, R-Raman, ABS, FL, XAS/XES, NRVS
   Peter Pinski           : DLPNO-MP2, DLPNO-MP2 Gradient
   Christoph Reimann      : Effective Core Potentials
   Marius Retegan         : Local ZFS, SOC
   Christoph Riplinger    : Optimizer, TS searches, QM/MM, DLPNO-CCSD(T), (RO)-DLPNO pert. Triples
   Tobias Risthaus        : Range-separated hybrids, TD-DFT gradient, RPA, STAB
   Michael Roemelt        : Original ROCIS implementation
   Masaaki Saitow         : Open-shell DLPNO-CCSD energy and density
   Barbara Sandhoefer     : DKH picture change effects
   Avijit Sen             : IP-ROCIS
   Kantharuban Sivalingam : CASSCF convergence, NEVPT2, FIC-MRCI
   Bernardo de Souza      : ESD, SOC TD-DFT
   Georgi Stoychev        : AutoAux, RI-MP2 NMR
   Willem Van den Heuvel  : Paramagnetic NMR
   Boris Wezisla          : Elementary symmetry handling
   Frank Wennmohs         : Technical directorship


 We gratefully acknowledge several colleagues who have allowed us to
 interface, adapt or use parts of their codes:
   Stefan Grimme, W. Hujo, H. Kruse,             : VdW corrections, initial TS optimization,
                  C. Bannwarth                     DFT functionals, gCP, sTDA/sTD-DF
   Ed Valeev, F. Pavosevic, A. Kumar             : LibInt (2-el integral package), F12 methods
   Garnet Chan, S. Sharma, J. Yang, R. Olivares  : DMRG
   Ulf Ekstrom                                   : XCFun DFT Library
   Mihaly Kallay                                 : mrcc  (arbitrary order and MRCC methods)
   Andreas Klamt, Michael Diedenhofen            : otool_cosmo (COSMO solvation model)
   Jiri Pittner, Ondrej Demel                    : Mk-CCSD
   Frank Weinhold                                : gennbo (NPA and NBO analysis)
   Christopher J. Cramer and Donald G. Truhlar   : smd solvation model
   Lars Goerigk                                  : TD-DFT with DH, B97 family of functionals
   V. Asgeirsson, H. Jonsson                     : NEB implementation
   FAccTs GmbH                                   : IRC, NEB, NEB-TS, Multilevel, MM, QM/MM, CI optimization
   S Lehtola, MJT Oliveira, MAL Marques          : LibXC Library


 Your calculation uses the libint2 library for the computation of 2-el integrals
 For citations please refer to: http://libint.valeyev.net

 Your ORCA version has been built with support for libXC version: 4.2.3
 For citations please refer to: https://tddft.org/programs/libxc/

 This ORCA versions uses:
   CBLAS   interface :  Fast vector & matrix operations
   LAPACKE interface :  Fast linear algebra routines
   SCALAPACK package :  Parallel linear algebra routines


Your calculation utilizes the atom-pairwise dispersion correction
with the Becke-Johnson damping scheme (D3BJ)
Cite in your paper:
S.Grimme, S.Ehrlich, L.Goerigk, J Comput Chem, (2011), 32, 1456–1465 
S.Grimme, J.Antony, S.Ehrlich and H.Krieg, J.Chem.Phys., 132, (2010), 154104 
   

----- Orbital basis set information -----
Your calculation utilizes the basis: def2-TZVPPD
   F. Weigend and R. Ahlrichs, Phys. Chem. Chem. Phys. 7, 3297 (2005).
   D. Rappoport and F. Furche, J. Chem. Phys. 133 134105 (2010).

----- AuxJK basis set information -----
Your calculation utilizes the auxiliary basis: def2/JK
   H-Ba, Hf-Rn: F. Weigend, J. Comput. Chem. 29, 167 (2008).

================================================================================
                                        WARNINGS
                       Please study these warnings very carefully!
================================================================================


WARNING: your system is open-shell and RHF/RKS was chosen
  ===> : WILL SWITCH to UHF/UKS


INFO   : the flag for use of LIBINT has been found!

================================================================================
                                       INPUT FILE
================================================================================
NAME = TMD10_Mn.in
|  1> #
|  2> # TMD10_Mn TPSSh-D3BJ/Def2-TZVPPD
|  3> #
|  4> ! tpssh d3bj def2-tzvppd def2/jk grid4 nofinalgrid
|  5> 
|  6> *xyz 0 6
|  7> Mn       0.000000    0.000000    0.000000 
|  8> *
|  9> 
| 10> %maxcore 5000
| 11> 
| 12> %pal
| 13> nprocs = 24
| 14> end
| 15> 
| 16> 
| 17>                          ****END OF INPUT****
================================================================================

                       ****************************
                       * Single Point Calculation *
                       ****************************

---------------------------------
CARTESIAN COORDINATES (ANGSTROEM)
---------------------------------
  Mn     0.000000    0.000000    0.000000

----------------------------
CARTESIAN COORDINATES (A.U.)
----------------------------
  NO LB      ZA    FRAG     MASS         X           Y           Z
   0 Mn   25.0000    0    54.940    0.000000    0.000000    0.000000

--------------------------------
INTERNAL COORDINATES (ANGSTROEM)
--------------------------------
 Mn     0   0   0     0.000000000000     0.00000000     0.00000000

---------------------------
INTERNAL COORDINATES (A.U.)
---------------------------
 Mn     0   0   0     0.000000000000     0.00000000     0.00000000

---------------------
BASIS SET INFORMATION
---------------------
There are 1 groups of distinct atoms

 Group   1 Type Mn  : 17s13p7d2f1g contracted to 6s6p4d2f1g pattern {842111/631111/4111/11/1}

Atom   0Mn   basis set group =>   1
----------------------------------
AUXILIARY/JK BASIS SET INFORMATION
----------------------------------
There are 1 groups of distinct atoms

 Group   1 Type Mn  : 19s14p12d10f7g3h1i contracted to 16s13p11d9f5g3h1i pattern {4111111111111111/2111111111111/21111111111/211111111/31111/111/1}

Atom   0Mn   basis set group =>   1


           ************************************************************
           *        Program running with 24 parallel MPI-processes    *
           *              working on a common directory               *
           ************************************************************
------------------------------------------------------------------------------
                           ORCA GTO INTEGRAL CALCULATION
------------------------------------------------------------------------------

                         BASIS SET STATISTICS AND STARTUP INFO

 # of primitive gaussian shells          ...   40
 # of primitive gaussian functions       ...  114
 # of contracted shells                  ...   19
 # of contracted basis functions         ...   67
 Highest angular momentum                ...    4
 Maximum contraction depth               ...    8
 Integral package used                   ... LIBINT
 Integral threshhold            Thresh   ...  1.000e-10
 Primitive cut-off              TCut     ...  1.000e-11


------------------------------ INTEGRAL EVALUATION ----------------------------


 * One electron integrals 
 Pre-screening matrix                    ... done
 Shell pair data                         ... done (   0.000 sec)



           ************************************************************
           *        Program running with 24 parallel MPI-processes    *
           *              working on a common directory               *
           ************************************************************
-------------------------------------------------------------------------------
                                 ORCA SCF
-------------------------------------------------------------------------------

------------
SCF SETTINGS
------------
Hamiltonian:
 Density Functional     Method          .... DFT(GTOs)
 Exchange Functional    Exchange        .... TPSS
 Correlation Functional Correlation     .... TPSS
 LDA part of GGA corr.  LDAOpt          .... PW91-LDA
 Gradients option       PostSCFGGA      .... off
 Hybrid DFT is turned on
   Fraction HF Exchange ScalHFX         ....  0.100000
   Scaling of DF-GGA-X  ScalDFX         ....  0.900000
   Scaling of DF-GGA-C  ScalDFC         ....  1.000000
   Scaling of DF-LDA-C  ScalLDAC        ....  1.000000
   Perturbative correction              ....  0.000000
   Density functional embedding theory  .... OFF
   NL short-range parameter             ....  5.200000


General Settings:
 Integral files         IntName         .... TMD10_Mn
 Hartree-Fock type      HFTyp           .... UHF
 Total Charge           Charge          ....    0
 Multiplicity           Mult            ....    6
 Number of Electrons    NEL             ....   25
 Basis Dimension        Dim             ....   67
 Nuclear Repulsion      ENuc            ....      0.0000000000 Eh

Convergence Acceleration:
 DIIS                   CNVDIIS         .... on
   Start iteration      DIISMaxIt       ....    12
   Startup error        DIISStart       ....  0.200000
   # of expansion vecs  DIISMaxEq       ....     5
   Bias factor          DIISBfac        ....   1.050
   Max. coefficient     DIISMaxC        ....  10.000
 Newton-Raphson         CNVNR           .... off
 SOSCF                  CNVSOSCF        .... off
 Level Shifting         CNVShift        .... on
   Level shift para.    LevelShift      ....    0.2500
   Turn off err/grad.   ShiftErr        ....    0.0010
 Zerner damping         CNVZerner       .... off
 Static damping         CNVDamp         .... on
   Fraction old density DampFac         ....    0.7000
   Max. Damping (<1)    DampMax         ....    0.9800
   Min. Damping (>=0)   DampMin         ....    0.0000
   Turn off err/grad.   DampErr         ....    0.1000
 Fernandez-Rico         CNVRico         .... off

SCF Procedure:
 Maximum # iterations   MaxIter         ....   125
 SCF integral mode      SCFMode         .... Direct
   Integral package                     .... LIBINT
 Reset frequency        DirectResetFreq ....    20
 Integral Threshold     Thresh          ....  1.000e-10 Eh
 Primitive CutOff       TCut            ....  1.000e-11 Eh

Convergence Tolerance:
 Convergence Check Mode ConvCheckMode   .... Total+1el-Energy
 Convergence forced     ConvForced      .... 0
 Energy Change          TolE            ....  1.000e-06 Eh
 1-El. energy change                    ....  1.000e-03 Eh
 DIIS Error             TolErr          ....  1.000e-06


Diagonalization of the overlap matrix:
Smallest eigenvalue                        ... 4.029e-02
Time for diagonalization                   ...    0.002 sec
Threshold for overlap eigenvalues          ... 1.000e-08
Number of eigenvalues below threshold      ... 0
Time for construction of square roots      ...    0.001 sec
Total time needed                          ...    0.004 sec

-------------------
DFT GRID GENERATION
-------------------

General Integration Accuracy     IntAcc      ...  4.670
Radial Grid Type                 RadialGrid  ... Gauss-Chebyshev
Angular Grid (max. acc.)         AngularGrid ... Lebedev-302
Angular grid pruning method      GridPruning ... 3 (G Style)
Weight generation scheme         WeightScheme... Becke
Basis function cutoff            BFCut       ...    1.0000e-10
Integration weight cutoff        WCut        ...    1.0000e-14
Grids for H and He will be reduced by one unit

# of grid points (after initial pruning)     ...   9664 (   0.0 sec)
# of grid points (after weights+screening)   ...   9664 (   0.0 sec)
Grid point division into batches done        ...    0.1 sec
Reduced shell lists constructed in    0.1 sec

Total number of grid points                  ...     9664
Total number of batches                      ...      152
Average number of points per batch           ...       63
Average number of grid points per atom       ...     9664
Average number of shells per batch           ...     3.62 (19.08%)
Average number of basis functions per batch  ...    10.62 (15.86%)
Average number of large shells per batch     ...     2.00 (55.17%)
Average number of large basis fcns per batch ...     4.50 (42.35%)
Maximum spatial batch extension              ...  27.95, 22.27, 22.27 au
Average spatial batch extension              ...   0.96,  0.88,  0.86 au

Time for grid setup =    0.121 sec

------------------------------
INITIAL GUESS: MODEL POTENTIAL
------------------------------
Loading Hartree-Fock densities                     ... done
Calculating cut-offs                               ... done
Setting up the integral package                    ... done
Initializing the effective Hamiltonian             ... done
Starting the Coulomb interaction                   ... done (   0.0 sec)
Reading the grid                                   ... done
Mapping shells                                     ... done
Starting the XC term evaluation                    ... done (   0.0 sec)
  promolecular density results
     # of electrons  =     24.999991684
     EX              =    -50.566733472
     EC              =     -1.070326187
     EX+EC           =    -51.637059660
Transforming the Hamiltonian                       ... done (   0.0 sec)
Diagonalizing the Hamiltonian                      ... done (   0.0 sec)
Back transforming the eigenvectors                 ... done (   0.0 sec)
Now organizing SCF variables                       ... done
                      ------------------
                      INITIAL GUESS DONE (   0.2 sec)
                      ------------------
--------------
SCF ITERATIONS
--------------
ITER       Energy         Delta-E        Max-DP      RMS-DP      [F,P]     Damp
               ***  Starting incremental Fock matrix formation  ***
  0  -1150.9172028843   0.000000000000 0.02776265  0.00081791  0.1092765 0.7000
  1  -1150.9302388281  -0.013035943892 0.02199327  0.00044994  0.0296642 0.7000
                               ***Turning on DIIS***
  2  -1150.9337393900  -0.003500561824 0.03145894  0.00065213  0.0177514 0.0000
  3  -1150.9432061396  -0.009466749653 0.01838897  0.00035207  0.0118308 0.0000
  4  -1150.9434061212  -0.000199981574 0.00363811  0.00013280  0.0143890 0.0000
  5  -1150.9437416009  -0.000335479654 0.00208058  0.00004751  0.0052650 0.0000
  6  -1150.9437937527  -0.000052151846 0.00133369  0.00002583  0.0014796 0.0000
  7  -1150.9438015109  -0.000007758161 0.45789473  0.00791007  0.0003586 0.0000
  8  -1150.8886219839   0.055179526924 0.00001864  0.00000042  0.1718587 0.7000
  9  -1150.8886024806   0.000019503315 0.00002732  0.00000058  0.1718776 0.7000
 10  -1150.8885790208   0.000023459828 0.00000969  0.00000021  0.1718999 0.7000
 11  -1150.8885807199  -0.000001699073 0.00005187  0.00000127  0.1718973 0.7000
 12  -1150.8886517569  -0.000071037057 0.06762632  0.00174438  0.1718280 0.7000
 13  -1150.9326785102  -0.044026753297 0.19400051  0.00378715  0.0715410 0.0000
 14  -1150.9750551795  -0.042376669260 0.02661248  0.00057232  0.0394727 0.0000
 15  -1150.9797169829  -0.004661803403 0.01783477  0.00027340  0.0072164 0.0000
 16  -1150.9800614692  -0.000344486337 0.00756843  0.00012899  0.0017876 0.0000
 17  -1150.9801519895  -0.000090520321 0.00278795  0.00008515  0.0013613 0.0000
 18  -1150.9802186197  -0.000066630203 0.00217748  0.00008115  0.0012236 0.0000
 19  -1150.9802807001  -0.000062080342 0.00234846  0.00008252  0.0011749 0.0000
               *** Restarting incremental Fock matrix formation ***
                                   *** Resetting DIIS ***
 20  -1150.9803387327  -0.000058032616 0.00147483  0.00005847  0.0011233 0.0000
 21  -1150.9803762035  -0.000037470845 0.00523262  0.00019901  0.0009666 0.0000
 22  -1150.9804924424  -0.000116238880 0.00112229  0.00003224  0.0013646 0.0000
 23  -1150.9805112096  -0.000018767158 0.00881929  0.00034548  0.0007508 0.0000
 24  -1150.9806549904  -0.000143780807 0.00708274  0.00026512  0.0003859 0.0000
 25  -1150.9807170469  -0.000062056503 0.00281704  0.00010339  0.0003791 0.0000
 26  -1150.9807297739  -0.000012727024 0.00357604  0.00013236  0.0002287 0.0000
 27  -1150.9807355381  -0.000005764161 0.00078028  0.00001342  0.0003579 0.0000
                 **** Energy Check signals convergence ****

               *****************************************************
               *                     SUCCESS                       *
               *           SCF CONVERGED AFTER  28 CYCLES          *
               *****************************************************


----------------
TOTAL SCF ENERGY
----------------

Total Energy       :        -1150.98073598 Eh          -31319.77809 eV

Components:
Nuclear Repulsion  :            0.00000000 Eh               0.00000 eV
Electronic Energy  :        -1150.98073598 Eh          -31319.77809 eV
One Electron Energy:        -1584.80591805 Eh          -43124.76145 eV
Two Electron Energy:          433.82518207 Eh           11804.98336 eV

Virial components:
Potential Energy   :        -2300.24263465 Eh          -62592.78424 eV
Kinetic Energy     :         1149.26189867 Eh           31273.00615 eV
Virial Ratio       :            2.00149560


DFT components:
N(Alpha)           :       15.000000303800 electrons
N(Beta)            :       10.000000424787 electrons
N(Total)           :       25.000000728587 electrons
E(X)               :      -45.912692641236 Eh       
E(C)               :       -1.048570976312 Eh       
E(XC)              :      -46.961263617548 Eh       
DFET-embed. en.    :        0.000000000000 Eh       

---------------
SCF CONVERGENCE
---------------

  Last Energy change         ...   -4.4167e-07  Tolerance :   1.0000e-06
  Last MAX-Density change    ...    2.7221e-04  Tolerance :   1.0000e-05
  Last RMS-Density change    ...    9.1430e-06  Tolerance :   1.0000e-06
  Last DIIS Error            ...    2.5562e-05  Tolerance :   1.0000e-06

             **** THE GBW FILE WAS UPDATED (TMD10_Mn.gbw) ****
             **** DENSITY FILE WAS UPDATED (TMD10_Mn.scfp) ****
             **** ENERGY FILE WAS UPDATED (TMD10_Mn.en.tmp) ****
----------------------
UHF SPIN CONTAMINATION
----------------------

Warning: in a DFT calculation there is little theoretical justification to 
         calculate <S**2> as in Hartree-Fock theory. We will do it anyways
         but you should keep in mind that the values have only limited relevance

Expectation value of <S**2>     :     8.762544
Ideal value S*(S+1) for S=2.5   :     8.750000
Deviation                       :     0.012544

             **** THE GBW FILE WAS UPDATED (TMD10_Mn.gbw) ****
             **** DENSITY FILE WAS UPDATED (TMD10_Mn.scfp) ****
----------------
ORBITAL ENERGIES
----------------
                 SPIN UP ORBITALS
  NO   OCC          E(Eh)            E(eV) 
   0   1.0000    -235.312283     -6403.1728 
   1   1.0000     -27.255403      -741.6572 
   2   1.0000     -23.302931      -634.1050 
   3   1.0000     -23.302921      -634.1047 
   4   1.0000     -23.302912      -634.1045 
   5   1.0000      -3.277122       -89.1750 
   6   1.0000      -2.141318       -58.2682 
   7   1.0000      -2.141307       -58.2679 
   8   1.0000      -2.141298       -58.2677 
   9   1.0000      -0.343788        -9.3549 
  10   1.0000      -0.343787        -9.3549 
  11   1.0000      -0.343781        -9.3548 
  12   1.0000      -0.343780        -9.3547 
  13   1.0000      -0.343773        -9.3545 
  14   1.0000      -0.210332        -5.7234 
  15   0.0000      -0.048703        -1.3253 
  16   0.0000      -0.048670        -1.3244 
  17   0.0000      -0.048641        -1.3236 
  18   0.0000       0.079192         2.1549 
  19   0.0000       0.079770         2.1707 
  20   0.0000       0.079791         2.1712 
  21   0.0000       0.079809         2.1717 
  22   0.0000       0.147480         4.0131 
  23   0.0000       0.147483         4.0132 
  24   0.0000       0.147497         4.0136 
  25   0.0000       0.147514         4.0141 
  26   0.0000       0.147516         4.0141 
  27   0.0000       0.450899        12.2696 
  28   0.0000       0.450933        12.2705 
  29   0.0000       0.450965        12.2714 
  30   0.0000       0.768258        20.9054 
  31   0.0000       0.768262        20.9055 
  32   0.0000       0.768287        20.9062 
  33   0.0000       0.768315        20.9069 
  34   0.0000       0.768316        20.9069 
  35   0.0000       1.893949        51.5370 
  36   0.0000       1.893950        51.5370 
  37   0.0000       1.893988        51.5380 
  38   0.0000       1.894002        51.5384 
  39   0.0000       1.894011        51.5387 
  40   0.0000       1.894050        51.5397 
  41   0.0000       1.894051        51.5397 
  42   0.0000       2.047249        55.7085 
  43   0.0000       2.047282        55.7094 
  44   0.0000       2.047312        55.7102 
  45   0.0000       2.149362        58.4871 
  46   0.0000       3.081220        83.8443 
  47   0.0000       3.081223        83.8443 
  48   0.0000       3.081239        83.8448 
  49   0.0000       3.081253        83.8452 
  50   0.0000       3.081257        83.8453 
  51   0.0000       6.923129       188.3879 
  52   0.0000       6.923129       188.3879 
  53   0.0000       6.923151       188.3885 
  54   0.0000       6.923154       188.3886 
  55   0.0000       6.923160       188.3888 
  56   0.0000       6.923171       188.3891 
  57   0.0000       6.923172       188.3891 
  58   0.0000       6.923192       188.3896 
  59   0.0000       6.923192       188.3896 
  60   0.0000       7.711121       209.8303 
  61   0.0000       7.711123       209.8303 
  62   0.0000       7.711133       209.8306 
  63   0.0000       7.711142       209.8308 
  64   0.0000       7.711144       209.8309 
  65   0.0000       7.711151       209.8311 
  66   0.0000       7.711151       209.8311 

                 SPIN DOWN ORBITALS
  NO   OCC          E(Eh)            E(eV) 
   0   1.0000    -235.311188     -6403.1430 
   1   1.0000     -27.177321      -739.5325 
   2   1.0000     -23.237641      -632.3284 
   3   1.0000     -23.237631      -632.3281 
   4   1.0000     -23.237622      -632.3278 
   5   1.0000      -3.062717       -83.3408 
   6   1.0000      -1.918276       -52.1990 
   7   1.0000      -1.918254       -52.1984 
   8   1.0000      -1.918233       -52.1978 
   9   1.0000      -0.170443        -4.6380 
  10   0.0000      -0.096546        -2.6272 
  11   0.0000      -0.096530        -2.6267 
  12   0.0000      -0.096516        -2.6263 
  13   0.0000      -0.096514        -2.6263 
  14   0.0000      -0.096511        -2.6262 
  15   0.0000      -0.032488        -0.8840 
  16   0.0000      -0.032447        -0.8829 
  17   0.0000      -0.032402        -0.8817 
  18   0.0000       0.089111         2.4248 
  19   0.0000       0.089138         2.4256 
  20   0.0000       0.089168         2.4264 
  21   0.0000       0.107703         2.9308 
  22   0.0000       0.171605         4.6696 
  23   0.0000       0.171607         4.6697 
  24   0.0000       0.171621         4.6700 
  25   0.0000       0.171633         4.6704 
  26   0.0000       0.171636         4.6704 
  27   0.0000       0.503965        13.7136 
  28   0.0000       0.504021        13.7151 
  29   0.0000       0.504084        13.7168 
  30   0.0000       0.852616        23.2009 
  31   0.0000       0.852618        23.2009 
  32   0.0000       0.852660        23.2021 
  33   0.0000       0.852698        23.2031 
  34   0.0000       0.852705        23.2033 
  35   0.0000       2.026122        55.1336 
  36   0.0000       2.026123        55.1336 
  37   0.0000       2.026127        55.1337 
  38   0.0000       2.026136        55.1340 
  39   0.0000       2.026139        55.1340 
  40   0.0000       2.026143        55.1341 
  41   0.0000       2.026143        55.1341 
  42   0.0000       2.171226        59.0821 
  43   0.0000       2.171251        59.0827 
  44   0.0000       2.171275        59.0834 
  45   0.0000       2.294273        62.4304 
  46   0.0000       3.232872        87.9709 
  47   0.0000       3.232875        87.9710 
  48   0.0000       3.232887        87.9713 
  49   0.0000       3.232900        87.9717 
  50   0.0000       3.232914        87.9721 
  51   0.0000       7.081350       192.6933 
  52   0.0000       7.081350       192.6933 
  53   0.0000       7.081362       192.6936 
  54   0.0000       7.081363       192.6937 
  55   0.0000       7.081373       192.6940 
  56   0.0000       7.081379       192.6941 
  57   0.0000       7.081383       192.6942 
  58   0.0000       7.081399       192.6947 
  59   0.0000       7.081399       192.6947 
  60   0.0000       7.954296       216.4474 
  61   0.0000       7.954297       216.4474 
  62   0.0000       7.954308       216.4477 
  63   0.0000       7.954311       216.4478 
  64   0.0000       7.954325       216.4482 
  65   0.0000       7.954341       216.4486 
  66   0.0000       7.954345       216.4487 

                    ********************************
                    * MULLIKEN POPULATION ANALYSIS *
                    ********************************

--------------------------------------------
MULLIKEN ATOMIC CHARGES AND SPIN POPULATIONS
--------------------------------------------
   0 Mn:    0.000000    5.000000
Sum of atomic charges         :    0.0000000
Sum of atomic spin populations:    5.0000000

-----------------------------------------------------
MULLIKEN REDUCED ORBITAL CHARGES AND SPIN POPULATIONS
-----------------------------------------------------
CHARGE
  0 Mns       :     7.999996  s :     7.999996
      pz      :     4.000000  p :    12.000000
      px      :     4.000000
      py      :     4.000000
      dz2     :     1.000000  d :     5.000004
      dxz     :     1.000000
      dyz     :     1.000001
      dx2y2   :     1.000001
      dxy     :     1.000000
      f0      :     0.000000  f :     0.000000
      f+1     :     0.000000
      f-1     :     0.000000
      f+2     :     0.000000
      f-2     :     0.000000
      f+3     :     0.000000
      f-3     :     0.000000
      g0      :     0.000000  g :     0.000000
      g+1     :     0.000000
      g-1     :     0.000000
      g+2     :     0.000000
      g-2     :     0.000000
      g+3     :     0.000000
      g-3     :     0.000000
      g+4     :     0.000000
      g-4     :     0.000000

SPIN
  0 Mns       :     0.000004  s :     0.000004
      pz      :    -0.000000  p :    -0.000000
      px      :    -0.000000
      py      :    -0.000000
      dz2     :     1.000000  d :     4.999996
      dxz     :     1.000000
      dyz     :     0.999999
      dx2y2   :     0.999999
      dxy     :     1.000000
      f0      :     0.000000  f :     0.000000
      f+1     :     0.000000
      f-1     :     0.000000
      f+2     :     0.000000
      f-2     :     0.000000
      f+3     :     0.000000
      f-3     :     0.000000
      g0      :     0.000000  g :     0.000000
      g+1     :     0.000000
      g-1     :     0.000000
      g+2     :     0.000000
      g-2     :     0.000000
      g+3     :     0.000000
      g-3     :     0.000000
      g+4     :     0.000000
      g-4     :     0.000000


                     *******************************
                     * LOEWDIN POPULATION ANALYSIS *
                     *******************************

-------------------------------------------
LOEWDIN ATOMIC CHARGES AND SPIN POPULATIONS
-------------------------------------------
   0 Mn:   -0.000000    5.000000

----------------------------------------------------
LOEWDIN REDUCED ORBITAL CHARGES AND SPIN POPULATIONS
----------------------------------------------------
CHARGE
  0 Mns       :     7.999996  s :     7.999996
      pz      :     4.000000  p :    12.000000
      px      :     4.000000
      py      :     4.000000
      dz2     :     1.000000  d :     5.000004
      dxz     :     1.000000
      dyz     :     1.000001
      dx2y2   :     1.000001
      dxy     :     1.000000
      f0      :     0.000000  f :     0.000000
      f+1     :     0.000000
      f-1     :     0.000000
      f+2     :     0.000000
      f-2     :     0.000000
      f+3     :     0.000000
      f-3     :     0.000000
      g0      :     0.000000  g :     0.000000
      g+1     :     0.000000
      g-1     :     0.000000
      g+2     :     0.000000
      g-2     :     0.000000
      g+3     :     0.000000
      g-3     :     0.000000
      g+4     :     0.000000
      g-4     :     0.000000

SPIN
  0 Mns       :     0.000004  s :     0.000004
      pz      :    -0.000000  p :    -0.000000
      px      :    -0.000000
      py      :    -0.000000
      dz2     :     1.000000  d :     4.999996
      dxz     :     1.000000
      dyz     :     0.999999
      dx2y2   :     0.999999
      dxy     :     1.000000
      f0      :     0.000000  f :     0.000000
      f+1     :     0.000000
      f-1     :     0.000000
      f+2     :     0.000000
      f-2     :     0.000000
      f+3     :     0.000000
      f-3     :     0.000000
      g0      :     0.000000  g :     0.000000
      g+1     :     0.000000
      g-1     :     0.000000
      g+2     :     0.000000
      g-2     :     0.000000
      g+3     :     0.000000
      g-3     :     0.000000
      g+4     :     0.000000
      g-4     :     0.000000


                      *****************************
                      * MAYER POPULATION ANALYSIS *
                      *****************************

  NA   - Mulliken gross atomic population
  ZA   - Total nuclear charge
  QA   - Mulliken gross atomic charge
  VA   - Mayer's total valence
  BVA  - Mayer's bonded valence
  FA   - Mayer's free valence

  ATOM       NA         ZA         QA         VA         BVA        FA
  0 Mn    25.0000    25.0000    -0.0000     5.0251     0.0000     5.0251

  Mayer bond orders larger than 0.100000


-------
TIMINGS
-------

Total SCF time: 0 days 0 hours 0 min 3 sec 

Total time                  ....       3.790 sec
Sum of individual times     ....       3.581 sec  ( 94.5%)

Fock matrix formation       ....       3.283 sec  ( 86.6%)
  XC integration            ....       0.381 sec  ( 11.6% of F)
    Basis function eval.    ....       0.019 sec  (  5.0% of XC)
    Density eval.           ....       0.039 sec  ( 10.4% of XC)
    XC-Functional eval.     ....       0.027 sec  (  7.2% of XC)
    XC-Potential eval.      ....       0.079 sec  ( 20.7% of XC)
Diagonalization             ....       0.042 sec  (  1.1%)
Density matrix formation    ....       0.009 sec  (  0.2%)
Population analysis         ....       0.004 sec  (  0.1%)
Initial guess               ....       0.096 sec  (  2.5%)
Orbital Transformation      ....       0.000 sec  (  0.0%)
Orbital Orthonormalization  ....       0.000 sec  (  0.0%)
DIIS solution               ....       0.026 sec  (  0.7%)
Grid generation             ....       0.121 sec  (  3.2%)


-------------------------------------------------------------------------------
                          DFT DISPERSION CORRECTION                            
                                                                               
                              DFTD3 V3.1  Rev 1                                
                          USING Becke-Johnson damping                          
-------------------------------------------------------------------------------
The TPSSH functional is recognized
Active option DFTDOPT                   ...         4   

molecular C6(AA) [au] = 802.732267 


            DFT-D V3
 parameters
 s6 scaling factor         :     1.0000 
 a1 scaling factor         :     0.4529 
 s8 scaling factor         :     2.2382 
 a2 scaling factor         :     4.6550 
 ad hoc parameters k1-k3   :    16.0000     1.3333    -4.0000 

 Edisp/kcal,au: -0.000000000000  -0.000000000000 
 E6   /kcal   :  -0.000000000 
 E8   /kcal   :  -0.000000000 
 % E8         :          -nan 

-------------------------   ----------------
Dispersion correction            0.000000000
-------------------------   ----------------


-------------------------   --------------------
FINAL SINGLE POINT ENERGY     -1150.980735979745
-------------------------   --------------------


                            ***************************************
                            *     ORCA property calculations      *
                            ***************************************

                                    ---------------------
                                    Active property flags
                                    ---------------------
   (+) Dipole Moment


------------------------------------------------------------------------------
                       ORCA ELECTRIC PROPERTIES CALCULATION
------------------------------------------------------------------------------

Dipole Moment Calculation                       ... on
Quadrupole Moment Calculation                   ... off
Polarizability Calculation                      ... off
GBWName                                         ... TMD10_Mn.gbw
Electron density file                           ... TMD10_Mn.scfp
The origin for moment calculation is the CENTER OF MASS  = ( 0.000000,  0.000000  0.000000)

-------------
DIPOLE MOMENT
-------------
                                X             Y             Z
Electronic contribution:      0.00000       0.00000       0.00000
Nuclear contribution   :      0.00000       0.00000       0.00000
                        -----------------------------------------
Total Dipole Moment    :      0.00000       0.00000       0.00000
                        -----------------------------------------
Magnitude (a.u.)       :      0.00000
Magnitude (Debye)      :      0.00000



--------------------
Rotational spectrum 
--------------------
 
Rotational constants in cm-1:     0.000000     0.000000     0.000000 
Rotational constants in MHz :     0.000000     0.000000     0.000000 

 Dipole components along the rotational axes: 
x,y,z [a.u.] :     0.000000     0.000000     0.000000 
x,y,z [Debye]:     0.000000     0.000000     0.000000 

 

Timings for individual modules:

Sum of individual times         ...        4.825 sec (=   0.080 min)
GTO integral calculation        ...        0.677 sec (=   0.011 min)  14.0 %
SCF iterations                  ...        4.149 sec (=   0.069 min)  86.0 %
                             ****ORCA TERMINATED NORMALLY****
TOTAL RUN TIME: 0 days 0 hours 0 minutes 5 seconds 300 msec
