
                                 *****************
                                 * O   R   C   A *
                                 *****************

           --- An Ab Initio, DFT and Semiempirical electronic structure package ---

                  #######################################################
                  #                        -***-                        #
                  #          Department of theory and spectroscopy      #
                  #               Directorship: Frank Neese             #
                  #        Max Planck Institute fuer Kohlenforschung    #
                  #                Kaiser Wilhelm Platz 1               #
                  #                 D-45470 Muelheim/Ruhr               #
                  #                      Germany                        #
                  #                                                     #
                  #                  All rights reserved                #
                  #                        -***-                        #
                  #######################################################


                         Program Version 4.2.0 -  RELEASE  -


 With contributions from (in alphabetic order):
   Daniel Aravena         : Magnetic Suceptibility
   Michael Atanasov       : Ab Initio Ligand Field Theory (pilot matlab implementation)
   Alexander A. Auer      : GIAO ZORA, VPT2
   Ute Becker             : Parallelization
   Giovanni Bistoni       : ED, misc. LED, open-shell LED, HFLED
   Martin Brehm           : Molecular dynamics
   Dmytro Bykov           : SCF Hessian
   Vijay G. Chilkuri      : MRCI spin determinant printing, contributions to CSF-ICE
   Dipayan Datta          : RHF DLPNO-CCSD density
   Achintya Kumar Dutta   : EOM-CC, STEOM-CC
   Dmitry Ganyushin       : Spin-Orbit,Spin-Spin,Magnetic field MRCI
   Miquel Garcia          : C-PCM Hessian, Gaussian charge scheme
   Yang Guo               : DLPNO-NEVPT2, CIM, IAO-localization
   Andreas Hansen         : Spin unrestricted coupled pair/coupled cluster methods
   Benjamin Helmich-Paris : CASSCF linear response (MC-RPA)
   Lee Huntington         : MR-EOM, pCC
   Robert Izsak           : Overlap fitted RIJCOSX, COSX-SCS-MP3, EOM
   Christian Kollmar      : KDIIS, OOCD, Brueckner-CCSD(T), CCSD density
   Simone Kossmann        : Meta GGA functionals, TD-DFT gradient, OOMP2, MP2 Hessian
   Martin Krupicka        : AUTO-CI
   Lucas Lang             : DCDCAS
   Dagmar Lenk            : GEPOL surface, SMD
   Dimitrios Liakos       : Extrapolation schemes; Compound Job, initial MDCI parallelization
   Dimitrios Manganas     : Further ROCIS development; embedding schemes
   Dimitrios Pantazis     : SARC Basis sets
   Taras Petrenko         : DFT Hessian,TD-DFT gradient, ASA, ECA, R-Raman, ABS, FL, XAS/XES, NRVS
   Peter Pinski           : DLPNO-MP2, DLPNO-MP2 Gradient
   Christoph Reimann      : Effective Core Potentials
   Marius Retegan         : Local ZFS, SOC
   Christoph Riplinger    : Optimizer, TS searches, QM/MM, DLPNO-CCSD(T), (RO)-DLPNO pert. Triples
   Tobias Risthaus        : Range-separated hybrids, TD-DFT gradient, RPA, STAB
   Michael Roemelt        : Original ROCIS implementation
   Masaaki Saitow         : Open-shell DLPNO-CCSD energy and density
   Barbara Sandhoefer     : DKH picture change effects
   Avijit Sen             : IP-ROCIS
   Kantharuban Sivalingam : CASSCF convergence, NEVPT2, FIC-MRCI
   Bernardo de Souza      : ESD, SOC TD-DFT
   Georgi Stoychev        : AutoAux, RI-MP2 NMR
   Willem Van den Heuvel  : Paramagnetic NMR
   Boris Wezisla          : Elementary symmetry handling
   Frank Wennmohs         : Technical directorship


 We gratefully acknowledge several colleagues who have allowed us to
 interface, adapt or use parts of their codes:
   Stefan Grimme, W. Hujo, H. Kruse,             : VdW corrections, initial TS optimization,
                  C. Bannwarth                     DFT functionals, gCP, sTDA/sTD-DF
   Ed Valeev, F. Pavosevic, A. Kumar             : LibInt (2-el integral package), F12 methods
   Garnet Chan, S. Sharma, J. Yang, R. Olivares  : DMRG
   Ulf Ekstrom                                   : XCFun DFT Library
   Mihaly Kallay                                 : mrcc  (arbitrary order and MRCC methods)
   Andreas Klamt, Michael Diedenhofen            : otool_cosmo (COSMO solvation model)
   Jiri Pittner, Ondrej Demel                    : Mk-CCSD
   Frank Weinhold                                : gennbo (NPA and NBO analysis)
   Christopher J. Cramer and Donald G. Truhlar   : smd solvation model
   Lars Goerigk                                  : TD-DFT with DH, B97 family of functionals
   V. Asgeirsson, H. Jonsson                     : NEB implementation
   FAccTs GmbH                                   : IRC, NEB, NEB-TS, Multilevel, MM, QM/MM, CI optimization
   S Lehtola, MJT Oliveira, MAL Marques          : LibXC Library


 Your calculation uses the libint2 library for the computation of 2-el integrals
 For citations please refer to: http://libint.valeyev.net

 Your ORCA version has been built with support for libXC version: 4.2.3
 For citations please refer to: https://tddft.org/programs/libxc/

 This ORCA versions uses:
   CBLAS   interface :  Fast vector & matrix operations
   LAPACKE interface :  Fast linear algebra routines
   SCALAPACK package :  Parallel linear algebra routines


Your calculation utilizes the atom-pairwise dispersion correction
with the Becke-Johnson damping scheme (D3BJ)
Cite in your paper:
S.Grimme, S.Ehrlich, L.Goerigk, J Comput Chem, (2011), 32, 1456–1465 
S.Grimme, J.Antony, S.Ehrlich and H.Krieg, J.Chem.Phys., 132, (2010), 154104 
   

----- Orbital basis set information -----
Your calculation utilizes the basis: def2-TZVPPD
   F. Weigend and R. Ahlrichs, Phys. Chem. Chem. Phys. 7, 3297 (2005).
   D. Rappoport and F. Furche, J. Chem. Phys. 133 134105 (2010).

----- AuxJK basis set information -----
Your calculation utilizes the auxiliary basis: def2/JK
   H-Ba, Hf-Rn: F. Weigend, J. Comput. Chem. 29, 167 (2008).

================================================================================
                                        WARNINGS
                       Please study these warnings very carefully!
================================================================================


WARNING: your system is open-shell and RHF/RKS was chosen
  ===> : WILL SWITCH to UHF/UKS


INFO   : the flag for use of LIBINT has been found!

================================================================================
                                       INPUT FILE
================================================================================
NAME = TMD22_CoF.in
|  1> #
|  2> # TMD22_CoF TPSSh-D3BJ/Def2-TZVPPD
|  3> #
|  4> ! tpssh d3bj def2-tzvppd def2/jk grid4 nofinalgrid
|  5> 
|  6> *xyz 0 3
|  7> Co       0.000000    0.000000    0.440000 
|  8> F        0.000000    0.000000   -1.320000 
|  9> *
| 10> 
| 11> %maxcore 5000
| 12> 
| 13> %pal
| 14> nprocs = 24
| 15> end
| 16> 
| 17> 
| 18>                          ****END OF INPUT****
================================================================================

                       ****************************
                       * Single Point Calculation *
                       ****************************

---------------------------------
CARTESIAN COORDINATES (ANGSTROEM)
---------------------------------
  Co     0.000000    0.000000    0.440000
  F      0.000000    0.000000   -1.320000

----------------------------
CARTESIAN COORDINATES (A.U.)
----------------------------
  NO LB      ZA    FRAG     MASS         X           Y           Z
   0 Co   27.0000    0    58.930    0.000000    0.000000    0.831479
   1 F     9.0000    0    18.998    0.000000    0.000000   -2.494438

--------------------------------
INTERNAL COORDINATES (ANGSTROEM)
--------------------------------
 Co     0   0   0     0.000000000000     0.00000000     0.00000000
 F      1   0   0     1.760000000000     0.00000000     0.00000000

---------------------------
INTERNAL COORDINATES (A.U.)
---------------------------
 Co     0   0   0     0.000000000000     0.00000000     0.00000000
 F      1   0   0     3.325917995701     0.00000000     0.00000000

---------------------
BASIS SET INFORMATION
---------------------
There are 2 groups of distinct atoms

 Group   1 Type Co  : 17s13p7d2f1g contracted to 6s6p4d2f1g pattern {842111/631111/4111/11/1}
 Group   2 Type F   : 12s7p3d1f contracted to 6s4p3d1f pattern {621111/4111/111/1}

Atom   0Co   basis set group =>   1
Atom   1F    basis set group =>   2
----------------------------------
AUXILIARY/JK BASIS SET INFORMATION
----------------------------------
There are 2 groups of distinct atoms

 Group   1 Type Co  : 19s14p12d10f7g3h1i contracted to 16s13p11d9f5g3h1i pattern {4111111111111111/2111111111111/21111111111/211111111/31111/111/1}
 Group   2 Type F   : 14s10p6d2f1g contracted to 10s8p4d2f1g pattern {5111111111/31111111/3111/11/1}

Atom   0Co   basis set group =>   1
Atom   1F    basis set group =>   2


           ************************************************************
           *        Program running with 24 parallel MPI-processes    *
           *              working on a common directory               *
           ************************************************************
------------------------------------------------------------------------------
                           ORCA GTO INTEGRAL CALCULATION
------------------------------------------------------------------------------

                         BASIS SET STATISTICS AND STARTUP INFO

 # of primitive gaussian shells          ...   63
 # of primitive gaussian functions       ...  169
 # of contracted shells                  ...   33
 # of contracted basis functions         ...  107
 Highest angular momentum                ...    4
 Maximum contraction depth               ...    8
 Integral package used                   ... LIBINT
 Integral threshhold            Thresh   ...  1.000e-10
 Primitive cut-off              TCut     ...  1.000e-11


------------------------------ INTEGRAL EVALUATION ----------------------------


 * One electron integrals 
 Pre-screening matrix                    ... done
 Shell pair data                         ... done (   0.000 sec)



           ************************************************************
           *        Program running with 24 parallel MPI-processes    *
           *              working on a common directory               *
           ************************************************************
-------------------------------------------------------------------------------
                                 ORCA SCF
-------------------------------------------------------------------------------

------------
SCF SETTINGS
------------
Hamiltonian:
 Density Functional     Method          .... DFT(GTOs)
 Exchange Functional    Exchange        .... TPSS
 Correlation Functional Correlation     .... TPSS
 LDA part of GGA corr.  LDAOpt          .... PW91-LDA
 Gradients option       PostSCFGGA      .... off
 Hybrid DFT is turned on
   Fraction HF Exchange ScalHFX         ....  0.100000
   Scaling of DF-GGA-X  ScalDFX         ....  0.900000
   Scaling of DF-GGA-C  ScalDFC         ....  1.000000
   Scaling of DF-LDA-C  ScalLDAC        ....  1.000000
   Perturbative correction              ....  0.000000
   Density functional embedding theory  .... OFF
   NL short-range parameter             ....  5.200000


General Settings:
 Integral files         IntName         .... TMD22_CoF
 Hartree-Fock type      HFTyp           .... UHF
 Total Charge           Charge          ....    0
 Multiplicity           Mult            ....    3
 Number of Electrons    NEL             ....   36
 Basis Dimension        Dim             ....  107
 Nuclear Repulsion      ENuc            ....     73.0625350096 Eh

Convergence Acceleration:
 DIIS                   CNVDIIS         .... on
   Start iteration      DIISMaxIt       ....    12
   Startup error        DIISStart       ....  0.200000
   # of expansion vecs  DIISMaxEq       ....     5
   Bias factor          DIISBfac        ....   1.050
   Max. coefficient     DIISMaxC        ....  10.000
 Newton-Raphson         CNVNR           .... off
 SOSCF                  CNVSOSCF        .... off
 Level Shifting         CNVShift        .... on
   Level shift para.    LevelShift      ....    0.2500
   Turn off err/grad.   ShiftErr        ....    0.0010
 Zerner damping         CNVZerner       .... off
 Static damping         CNVDamp         .... on
   Fraction old density DampFac         ....    0.7000
   Max. Damping (<1)    DampMax         ....    0.9800
   Min. Damping (>=0)   DampMin         ....    0.0000
   Turn off err/grad.   DampErr         ....    0.1000
 Fernandez-Rico         CNVRico         .... off

SCF Procedure:
 Maximum # iterations   MaxIter         ....   125
 SCF integral mode      SCFMode         .... Direct
   Integral package                     .... LIBINT
 Reset frequency        DirectResetFreq ....    20
 Integral Threshold     Thresh          ....  1.000e-10 Eh
 Primitive CutOff       TCut            ....  1.000e-11 Eh

Convergence Tolerance:
 Convergence Check Mode ConvCheckMode   .... Total+1el-Energy
 Convergence forced     ConvForced      .... 0
 Energy Change          TolE            ....  1.000e-06 Eh
 1-El. energy change                    ....  1.000e-03 Eh
 DIIS Error             TolErr          ....  1.000e-06


Diagonalization of the overlap matrix:
Smallest eigenvalue                        ... 2.298e-03
Time for diagonalization                   ...    0.004 sec
Threshold for overlap eigenvalues          ... 1.000e-08
Number of eigenvalues below threshold      ... 0
Time for construction of square roots      ...    0.002 sec
Total time needed                          ...    0.006 sec

-------------------
DFT GRID GENERATION
-------------------

General Integration Accuracy     IntAcc      ...  4.670
Radial Grid Type                 RadialGrid  ... Gauss-Chebyshev
Angular Grid (max. acc.)         AngularGrid ... Lebedev-302
Angular grid pruning method      GridPruning ... 3 (G Style)
Weight generation scheme         WeightScheme... Becke
Basis function cutoff            BFCut       ...    1.0000e-10
Integration weight cutoff        WCut        ...    1.0000e-14
Grids for H and He will be reduced by one unit

# of grid points (after initial pruning)     ...  15912 (   0.0 sec)
# of grid points (after weights+screening)   ...  15863 (   0.0 sec)
nearest neighbour list constructed           ...    0.0 sec
Grid point re-assignment to atoms done       ...    0.0 sec
Grid point division into batches done        ...    0.1 sec
Reduced shell lists constructed in    0.1 sec

Total number of grid points                  ...    15863
Total number of batches                      ...      249
Average number of points per batch           ...       63
Average number of grid points per atom       ...     7932
Average number of shells per batch           ...     5.92 (17.93%)
Average number of basis functions per batch  ...    16.08 (15.03%)
Average number of large shells per batch     ...     3.42 (57.75%)
Average number of large basis fcns per batch ...     8.58 (53.37%)
Maximum spatial batch extension              ...  28.57, 31.41, 18.45 au
Average spatial batch extension              ...   0.89,  0.95,  0.67 au

Time for grid setup =    0.156 sec

------------------------------
INITIAL GUESS: MODEL POTENTIAL
------------------------------
Loading Hartree-Fock densities                     ... done
Calculating cut-offs                               ... done
Setting up the integral package                    ... done
Initializing the effective Hamiltonian             ... done
Starting the Coulomb interaction                   ... done (   0.0 sec)
Reading the grid                                   ... done
Mapping shells                                     ... done
Starting the XC term evaluation                    ... done (   0.0 sec)
  promolecular density results
     # of electrons  =     36.000020312
     EX              =    -67.693511037
     EC              =     -1.514921245
     EX+EC           =    -69.208432282
Transforming the Hamiltonian                       ... done (   0.0 sec)
Diagonalizing the Hamiltonian                      ... done (   0.0 sec)
Back transforming the eigenvectors                 ... done (   0.0 sec)
Now organizing SCF variables                       ... done
                      ------------------
                      INITIAL GUESS DONE (   0.2 sec)
                      ------------------
--------------
SCF ITERATIONS
--------------
ITER       Energy         Delta-E        Max-DP      RMS-DP      [F,P]     Damp
               ***  Starting incremental Fock matrix formation  ***
  0  -1482.5276416806   0.000000000000 0.02595156  0.00094578  0.2680997 0.7000
  1  -1482.5823346698  -0.054692989198 0.01532777  0.00046682  0.0828061 0.7000
                               ***Turning on DIIS***
  2  -1482.5976552462  -0.015320576404 0.03886612  0.00076298  0.0349967 0.0000
  3  -1482.6397125566  -0.042057310436 0.01259658  0.00038658  0.0515640 0.0000
  4  -1482.6452324610  -0.005519904340 0.01130678  0.00022078  0.0296376 0.0000
  5  -1482.6479605141  -0.002728053074 0.01127680  0.00019934  0.0113671 0.0000
  6  -1482.6499990820  -0.002038567962 0.01164964  0.00023792  0.0117557 0.0000
  7  -1482.6523813420  -0.002382259992 0.01483009  0.00030161  0.0108118 0.0000
  8  -1482.6552491052  -0.002867763188 0.01286274  0.00023335  0.0104044 0.0000
  9  -1482.6573398177  -0.002090712486 0.01348592  0.00023597  0.0098485 0.0000
 10  -1482.6593495398  -0.002009722167 0.01676445  0.00028415  0.0093339 0.0000
 11  -1482.6615622046  -0.002212664714 0.01692603  0.00026876  0.0083971 0.0000
 12  -1482.6634601610  -0.001897956391 0.01938009  0.00031163  0.0075294 0.0000
 13  -1482.6653047797  -0.001844618753 0.00421670  0.00010243  0.0070235 0.0000
 14  -1482.6656365466  -0.000331766856 0.01330889  0.00022430  0.0119792 0.0000
 15  -1482.6668272329  -0.001190686370 0.02033324  0.00032657  0.0057841 0.0000
 16  -1482.6678829824  -0.001055749472 0.00538467  0.00010345  0.0133798 0.0000
 17  -1482.6684046721  -0.000521689671 0.00956793  0.00015904  0.0037360 0.0000
 18  -1482.6688224327  -0.000417760607 0.00832229  0.00013429  0.0049768 0.0000
 19  -1482.6691288463  -0.000306413595 0.00636393  0.00010502  0.0055429 0.0000
               *** Restarting incremental Fock matrix formation ***
                                   *** Resetting DIIS ***
 20  -1482.6693357825  -0.000206936268 0.00306319  0.00006941  0.0044050 0.0000
 21  -1482.6693776533  -0.000041870721 0.00182078  0.00004774  0.0098147 0.0000
 22  -1482.6694996107  -0.000121957420 0.00177029  0.00003951  0.0030796 0.0000
 23  -1482.6695550080  -0.000055397335 0.00207485  0.00004254  0.0020839 0.0000
 24  -1482.6696084191  -0.000053411070 0.00220779  0.00004674  0.0012802 0.0000
 25  -1482.6696614389  -0.000053019791 0.00653511  0.00014733  0.0008431 0.0000
 26  -1482.6697800070  -0.000118568109 0.00150712  0.00002843  0.0042228 0.0000
 27  -1482.6698148403  -0.000034833332 0.00229030  0.00004213  0.0016445 0.0000
 28  -1482.6698484527  -0.000033612384 0.00764312  0.00016296  0.0004726 0.0000
 29  -1482.6699516930  -0.000103240289 0.00103680  0.00001856  0.0013581 0.0000
 30  -1482.6699637682  -0.000012075218 0.00172205  0.00004012  0.0006052 0.0000
 31  -1482.6699830134  -0.000019245223 0.00079160  0.00001460  0.0013217 0.0000
 32  -1482.6699916216  -0.000008608167 0.00054701  0.00000941  0.0008257 0.0000
 33  -1482.6699872073   0.000004414291 0.00134854  0.00002393  0.0011493 0.0000
 34  -1482.6700002551  -0.000013047816 0.00296911  0.00006253  0.0002272 0.0000
 35  -1482.6700260501  -0.000025794940 0.00029548  0.00000526  0.0014212 0.0000
 36  -1482.6700289279  -0.000002877844 0.00040359  0.00000729  0.0011842 0.0000
 37  -1482.6700324335  -0.000003505568 0.00126383  0.00002683  0.0009831 0.0000
 38  -1482.6700423013  -0.000009867823 0.00046159  0.00000826  0.0012302 0.0000
 39  -1482.6700378783   0.000004422955 0.00076122  0.00001437  0.0016155 0.0000
               *** Restarting incremental Fock matrix formation ***
                                   *** Resetting DIIS ***
 40  -1482.6700456167  -0.000007738376 0.00242632  0.00004887  0.0001577 0.0000
 41  -1482.6700623847  -0.000016768000 0.00021565  0.00000455  0.0006732 0.0000
 42  -1482.6700605157   0.000001869001 0.00003164  0.00000062  0.0009439 0.0000
                 **** Energy Check signals convergence ****

               *****************************************************
               *                     SUCCESS                       *
               *           SCF CONVERGED AFTER  43 CYCLES          *
               *****************************************************


----------------
TOTAL SCF ENERGY
----------------

Total Energy       :        -1482.67006072 Eh          -40345.50348 eV

Components:
Nuclear Repulsion  :           73.06253501 Eh            1988.13265 eV
Electronic Energy  :        -1555.73259573 Eh          -42333.63613 eV
One Electron Energy:        -2202.64537474 Eh          -59937.02779 eV
Two Electron Energy:          646.91277901 Eh           17603.39166 eV

Virial components:
Potential Energy   :        -2962.76548499 Eh          -80620.94754 eV
Kinetic Energy     :         1480.09542427 Eh           40275.44406 eV
Virial Ratio       :            2.00173951


DFT components:
N(Alpha)           :       18.999988349188 electrons
N(Beta)            :       16.999988307086 electrons
N(Total)           :       35.999976656275 electrons
E(X)               :      -61.544104523041 Eh       
E(C)               :       -1.528940946009 Eh       
E(XC)              :      -63.073045469049 Eh       
DFET-embed. en.    :        0.000000000000 Eh       

---------------
SCF CONVERGENCE
---------------

  Last Energy change         ...   -2.0555e-07  Tolerance :   1.0000e-06
  Last MAX-Density change    ...    2.3748e-05  Tolerance :   1.0000e-05
  Last RMS-Density change    ...    4.6462e-07  Tolerance :   1.0000e-06
  Last DIIS Error            ...    9.4534e-04  Tolerance :   1.0000e-06

             **** THE GBW FILE WAS UPDATED (TMD22_CoF.gbw) ****
             **** DENSITY FILE WAS UPDATED (TMD22_CoF.scfp) ****
             **** ENERGY FILE WAS UPDATED (TMD22_CoF.en.tmp) ****
----------------------
UHF SPIN CONTAMINATION
----------------------

Warning: in a DFT calculation there is little theoretical justification to 
         calculate <S**2> as in Hartree-Fock theory. We will do it anyways
         but you should keep in mind that the values have only limited relevance

Expectation value of <S**2>     :     2.050612
Ideal value S*(S+1) for S=1.0   :     2.000000
Deviation                       :     0.050612

             **** THE GBW FILE WAS UPDATED (TMD22_CoF.gbw) ****
             **** DENSITY FILE WAS UPDATED (TMD22_CoF.scfp) ****
----------------
ORBITAL ENERGIES
----------------
                 SPIN UP ORBITALS
  NO   OCC          E(Eh)            E(eV) 
   0   1.0000    -277.285607     -7545.3250 
   1   1.0000     -32.677460      -889.1989 
   2   1.0000     -28.296725      -769.9930 
   3   1.0000     -28.293821      -769.9140 
   4   1.0000     -28.288316      -769.7642 
   5   1.0000     -24.515991      -667.1140 
   6   1.0000      -3.708054      -100.9013 
   7   1.0000      -2.400226       -65.3135 
   8   1.0000      -2.395736       -65.1913 
   9   1.0000      -2.381451       -64.8026 
  10   1.0000      -1.049109       -28.5477 
  11   1.0000      -0.375137       -10.2080 
  12   1.0000      -0.347075        -9.4444 
  13   1.0000      -0.333911        -9.0862 
  14   1.0000      -0.280689        -7.6379 
  15   1.0000      -0.264776        -7.2049 
  16   1.0000      -0.245225        -6.6729 
  17   1.0000      -0.229348        -6.2409 
  18   1.0000      -0.227202        -6.1825 
  19   0.0000      -0.123998        -3.3742 
  20   0.0000      -0.011731        -0.3192 
  21   0.0000      -0.008658        -0.2356 
  22   0.0000       0.031168         0.8481 
  23   0.0000       0.076462         2.0806 
  24   0.0000       0.120275         3.2728 
  25   0.0000       0.123783         3.3683 
  26   0.0000       0.145380         3.9560 
  27   0.0000       0.148909         4.0520 
  28   0.0000       0.149952         4.0804 
  29   0.0000       0.199461         5.4276 
  30   0.0000       0.201383         5.4799 
  31   0.0000       0.204987         5.5780 
  32   0.0000       0.276595         7.5265 
  33   0.0000       0.277658         7.5555 
  34   0.0000       0.287351         7.8192 
  35   0.0000       0.383663        10.4400 
  36   0.0000       0.550387        14.9768 
  37   0.0000       0.550487        14.9795 
  38   0.0000       0.571960        15.5638 
  39   0.0000       0.576426        15.6853 
  40   0.0000       0.632961        17.2237 
  41   0.0000       0.657272        17.8853 
  42   0.0000       0.693997        18.8846 
  43   0.0000       0.694876        18.9085 
  44   0.0000       0.807021        21.9602 
  45   0.0000       0.808187        21.9919 
  46   0.0000       0.948292        25.8043 
  47   0.0000       0.957833        26.0640 
  48   0.0000       1.054312        28.6893 
  49   0.0000       1.078993        29.3609 
  50   0.0000       1.083913        29.4948 
  51   0.0000       1.124311        30.5940 
  52   0.0000       1.392166        37.8828 
  53   0.0000       2.111056        57.4448 
  54   0.0000       2.270686        61.7885 
  55   0.0000       2.273361        61.8613 
  56   0.0000       2.296618        62.4942 
  57   0.0000       2.296682        62.4959 
  58   0.0000       2.621389        71.3316 
  59   0.0000       2.624074        71.4047 
  60   0.0000       2.660031        72.3831 
  61   0.0000       2.660309        72.3907 
  62   0.0000       2.660789        72.4037 
  63   0.0000       2.672091        72.7113 
  64   0.0000       2.766995        75.2938 
  65   0.0000       2.843378        77.3722 
  66   0.0000       2.848979        77.5247 
  67   0.0000       2.958240        80.4978 
  68   0.0000       3.197033        86.9957 
  69   0.0000       3.393415        92.3395 
  70   0.0000       3.396530        92.4243 
  71   0.0000       3.743968       101.8786 
  72   0.0000       3.768374       102.5427 
  73   0.0000       3.787137       103.0533 
  74   0.0000       3.809879       103.6721 
  75   0.0000       3.838880       104.4612 
  76   0.0000       3.958806       107.7246 
  77   0.0000       4.274996       116.3285 
  78   0.0000       6.981084       189.9649 
  79   0.0000       6.981262       189.9698 
  80   0.0000       6.994252       190.3233 
  81   0.0000       6.994284       190.3241 
  82   0.0000       7.028366       191.2516 
  83   0.0000       7.031461       191.3358 
  84   0.0000       7.131980       194.0710 
  85   0.0000       8.516777       231.7533 
  86   0.0000       8.517867       231.7829 
  87   0.0000       8.565259       233.0726 
  88   0.0000       8.569527       233.1887 
  89   0.0000       8.783193       239.0028 
  90   0.0000       9.947718       270.6912 
  91   0.0000       9.959133       271.0018 
  92   0.0000       9.962026       271.0805 
  93   0.0000       9.962888       271.1040 
  94   0.0000       9.971140       271.3285 
  95   0.0000       9.980272       271.5770 
  96   0.0000       9.989587       271.8305 
  97   0.0000       9.993342       271.9326 
  98   0.0000      10.016203       272.5547 
  99   0.0000      10.414594       283.3955 
 100   0.0000      10.424481       283.6645 
 101   0.0000      10.430251       283.8216 
 102   0.0000      10.441903       284.1386 
 103   0.0000      10.481360       285.2123 
 104   0.0000      10.529879       286.5326 
 105   0.0000      10.824092       294.5385 
 106   0.0000      57.108957      1554.0137 

                 SPIN DOWN ORBITALS
  NO   OCC          E(Eh)            E(eV) 
   0   1.0000    -277.285102     -7545.3112 
   1   1.0000     -32.639855      -888.1756 
   2   1.0000     -28.264078      -769.1046 
   3   1.0000     -28.261619      -769.0378 
   4   1.0000     -28.257899      -768.9365 
   5   1.0000     -24.514375      -667.0701 
   6   1.0000      -3.611086       -98.2626 
   7   1.0000      -2.296755       -62.4979 
   8   1.0000      -2.289918       -62.3118 
   9   1.0000      -2.288054       -62.2611 
  10   1.0000      -1.045523       -28.4501 
  11   1.0000      -0.362513        -9.8645 
  12   1.0000      -0.327940        -8.9237 
  13   1.0000      -0.318431        -8.6649 
  14   1.0000      -0.209919        -5.7122 
  15   1.0000      -0.197091        -5.3631 
  16   1.0000      -0.190855        -5.1934 
  17   0.0000      -0.111470        -3.0333 
  18   0.0000      -0.073447        -1.9986 
  19   0.0000      -0.062075        -1.6891 
  20   0.0000      -0.007399        -0.2013 
  21   0.0000      -0.006030        -0.1641 
  22   0.0000       0.033248         0.9047 
  23   0.0000       0.077693         2.1141 
  24   0.0000       0.121308         3.3010 
  25   0.0000       0.127478         3.4689 
  26   0.0000       0.148734         4.0473 
  27   0.0000       0.150449         4.0939 
  28   0.0000       0.150983         4.1084 
  29   0.0000       0.202383         5.5071 
  30   0.0000       0.207665         5.6509 
  31   0.0000       0.217311         5.9133 
  32   0.0000       0.281351         7.6559 
  33   0.0000       0.286987         7.8093 
  34   0.0000       0.289159         7.8684 
  35   0.0000       0.391050        10.6410 
  36   0.0000       0.550638        14.9836 
  37   0.0000       0.551249        15.0003 
  38   0.0000       0.588760        16.0210 
  39   0.0000       0.590910        16.0795 
  40   0.0000       0.644247        17.5308 
  41   0.0000       0.669168        18.2090 
  42   0.0000       0.698661        19.0115 
  43   0.0000       0.699531        19.0352 
  44   0.0000       0.813251        22.1297 
  45   0.0000       0.816214        22.2103 
  46   0.0000       0.967568        26.3289 
  47   0.0000       0.997111        27.1328 
  48   0.0000       1.058626        28.8067 
  49   0.0000       1.099187        29.9104 
  50   0.0000       1.122148        30.5352 
  51   0.0000       1.142907        31.1001 
  52   0.0000       1.402030        38.1512 
  53   0.0000       2.132745        58.0349 
  54   0.0000       2.280214        62.0478 
  55   0.0000       2.283199        62.1290 
  56   0.0000       2.299579        62.5747 
  57   0.0000       2.299704        62.5781 
  58   0.0000       2.672873        72.7326 
  59   0.0000       2.677685        72.8635 
  60   0.0000       2.714490        73.8650 
  61   0.0000       2.714703        73.8708 
  62   0.0000       2.715220        73.8849 
  63   0.0000       2.740415        74.5705 
  64   0.0000       2.815400        76.6109 
  65   0.0000       2.890389        78.6515 
  66   0.0000       2.903485        79.0078 
  67   0.0000       3.016452        82.0818 
  68   0.0000       3.224627        87.7466 
  69   0.0000       3.398709        92.4836 
  70   0.0000       3.400718        92.5382 
  71   0.0000       3.803109       103.4879 
  72   0.0000       3.818174       103.8978 
  73   0.0000       3.842993       104.5732 
  74   0.0000       3.874422       105.4284 
  75   0.0000       3.917663       106.6050 
  76   0.0000       3.986685       108.4832 
  77   0.0000       4.296060       116.9017 
  78   0.0000       6.984145       190.0483 
  79   0.0000       6.984246       190.0510 
  80   0.0000       6.998018       190.4257 
  81   0.0000       6.998023       190.4259 
  82   0.0000       7.033069       191.3795 
  83   0.0000       7.033754       191.3982 
  84   0.0000       7.136178       194.1853 
  85   0.0000       8.522465       231.9081 
  86   0.0000       8.523590       231.9387 
  87   0.0000       8.571680       233.2473 
  88   0.0000       8.572332       233.2650 
  89   0.0000       8.791823       239.2377 
  90   0.0000      10.044619       273.3280 
  91   0.0000      10.049236       273.4536 
  92   0.0000      10.051686       273.5203 
  93   0.0000      10.057850       273.6880 
  94   0.0000      10.061364       273.7836 
  95   0.0000      10.063327       273.8370 
  96   0.0000      10.064410       273.8665 
  97   0.0000      10.069915       274.0163 
  98   0.0000      10.095216       274.7048 
  99   0.0000      10.528677       286.4999 
 100   0.0000      10.539115       286.7839 
 101   0.0000      10.541886       286.8593 
 102   0.0000      10.565265       287.4955 
 103   0.0000      10.612471       288.7800 
 104   0.0000      10.631595       289.3004 
 105   0.0000      10.927265       297.3460 
 106   0.0000      57.110668      1554.0603 

                    ********************************
                    * MULLIKEN POPULATION ANALYSIS *
                    ********************************

--------------------------------------------
MULLIKEN ATOMIC CHARGES AND SPIN POPULATIONS
--------------------------------------------
   0 Co:    0.629971    1.958291
   1 F :   -0.629971    0.041709
Sum of atomic charges         :   -0.0000000
Sum of atomic spin populations:    2.0000000

-----------------------------------------------------
MULLIKEN REDUCED ORBITAL CHARGES AND SPIN POPULATIONS
-----------------------------------------------------
CHARGE
  0 Cos       :     6.514723  s :     6.514723
      pz      :     4.036890  p :    12.102246
      px      :     4.035081
      py      :     4.030275
      dz2     :     1.478736  d :     7.749362
      dxz     :     1.668586
      dyz     :     1.364433
      dx2y2   :     1.920997
      dxy     :     1.316609
      f0      :     0.001627  f :     0.003641
      f+1     :     0.000932
      f-1     :     0.000881
      f+2     :     0.000059
      f-2     :     0.000084
      f+3     :     0.000016
      f-3     :     0.000040
      g0      :     0.000015  g :     0.000057
      g+1     :     0.000006
      g-1     :     0.000006
      g+2     :     0.000003
      g-2     :     0.000013
      g+3     :     0.000005
      g-3     :     0.000001
      g+4     :     0.000005
      g-4     :     0.000003
  1 F s       :     3.986704  s :     3.986704
      pz      :     1.738653  p :     5.634849
      px      :     1.955413
      py      :     1.940783
      dz2     :     0.005645  d :     0.008180
      dxz     :     0.001432
      dyz     :     0.001997
      dx2y2   :    -0.000549
      dxy     :    -0.000346
      f0      :     0.000118  f :     0.000238
      f+1     :     0.000058
      f-1     :     0.000053
      f+2     :     0.000006
      f-2     :     0.000004
      f+3     :     0.000000
      f-3     :     0.000000

SPIN
  0 Cos       :    -0.093960  s :    -0.093960
      pz      :    -0.001220  p :     0.004083
      px      :     0.001649
      py      :     0.003654
      dz2     :     0.332145  d :     2.048026
      dxz     :     0.323701
      dyz     :     0.629339
      dx2y2   :     0.079356
      dxy     :     0.683485
      f0      :     0.000052  f :     0.000138
      f+1     :     0.000029
      f-1     :     0.000094
      f+2     :    -0.000001
      f-2     :    -0.000003
      f+3     :    -0.000006
      f-3     :    -0.000027
      g0      :     0.000001  g :     0.000004
      g+1     :    -0.000001
      g-1     :     0.000001
      g+2     :     0.000001
      g-2     :    -0.000003
      g+3     :     0.000005
      g-3     :     0.000001
      g+4     :    -0.000000
      g-4     :    -0.000000
  1 F s       :    -0.001901  s :    -0.001901
      pz      :     0.001852  p :     0.045137
      px      :     0.013687
      py      :     0.029598
      dz2     :     0.000130  d :    -0.001544
      dxz     :    -0.000593
      dyz     :    -0.001139
      dx2y2   :     0.000104
      dxy     :    -0.000046
      f0      :     0.000005  f :     0.000016
      f+1     :     0.000003
      f-1     :     0.000007
      f+2     :    -0.000000
      f-2     :     0.000001
      f+3     :     0.000000
      f-3     :     0.000000


                     *******************************
                     * LOEWDIN POPULATION ANALYSIS *
                     *******************************

-------------------------------------------
LOEWDIN ATOMIC CHARGES AND SPIN POPULATIONS
-------------------------------------------
   0 Co:    0.540506    1.960581
   1 F :   -0.540506    0.039419

----------------------------------------------------
LOEWDIN REDUCED ORBITAL CHARGES AND SPIN POPULATIONS
----------------------------------------------------
CHARGE
  0 Cos       :     6.354515  s :     6.354515
      pz      :     4.106952  p :    12.224177
      px      :     4.062413
      py      :     4.054811
      dz2     :     1.559443  d :     7.872760
      dxz     :     1.691154
      dyz     :     1.392408
      dx2y2   :     1.916159
      dxy     :     1.313596
      f0      :     0.004320  f :     0.007958
      f+1     :     0.001755
      f-1     :     0.001664
      f+2     :     0.000072
      f-2     :     0.000092
      f+3     :     0.000016
      f-3     :     0.000040
      g0      :     0.000033  g :     0.000083
      g+1     :     0.000010
      g-1     :     0.000010
      g+2     :     0.000003
      g-2     :     0.000013
      g+3     :     0.000005
      g-3     :     0.000001
      g+4     :     0.000005
      g-4     :     0.000003
  1 F s       :     3.847202  s :     3.847202
      pz      :     1.832730  p :     5.600141
      px      :     1.891024
      py      :     1.876387
      dz2     :     0.057693  d :     0.092648
      dxz     :     0.015008
      dyz     :     0.013030
      dx2y2   :     0.004266
      dxy     :     0.002651
      f0      :     0.000225  f :     0.000515
      f+1     :     0.000144
      f-1     :     0.000118
      f+2     :     0.000017
      f-2     :     0.000011
      f+3     :     0.000000
      f-3     :     0.000000

SPIN
  0 Cos       :    -0.075985  s :    -0.075985
      pz      :    -0.001525  p :     0.007339
      px      :     0.002420
      py      :     0.006444
      dz2     :     0.325416  d :     2.028991
      dxz     :     0.319953
      dyz     :     0.621411
      dx2y2   :     0.079698
      dxy     :     0.682512
      f0      :     0.000066  f :     0.000233
      f+1     :     0.000052
      f-1     :     0.000150
      f+2     :    -0.000001
      f-2     :    -0.000000
      f+3     :    -0.000006
      f-3     :    -0.000027
      g0      :     0.000001  g :     0.000004
      g+1     :    -0.000000
      g-1     :     0.000001
      g+2     :     0.000001
      g-2     :    -0.000003
      g+3     :     0.000005
      g-3     :     0.000001
      g+4     :    -0.000000
      g-4     :    -0.000000
  1 F s       :    -0.008003  s :    -0.008003
      pz      :    -0.003064  p :     0.041733
      px      :     0.014495
      py      :     0.030302
      dz2     :     0.000164  d :     0.005586
      dxz     :     0.001534
      dyz     :     0.003203
      dx2y2   :    -0.000237
      dxy     :     0.000921
      f0      :     0.000036  f :     0.000103
      f+1     :     0.000020
      f-1     :     0.000042
      f+2     :    -0.000001
      f-2     :     0.000004
      f+3     :     0.000000
      f-3     :     0.000000


                      *****************************
                      * MAYER POPULATION ANALYSIS *
                      *****************************

  NA   - Mulliken gross atomic population
  ZA   - Total nuclear charge
  QA   - Mulliken gross atomic charge
  VA   - Mayer's total valence
  BVA  - Mayer's bonded valence
  FA   - Mayer's free valence

  ATOM       NA         ZA         QA         VA         BVA        FA
  0 Co    26.3700    27.0000     0.6300     2.7475     0.7545     1.9930
  1 F      9.6300     9.0000    -0.6300     0.7566     0.7545     0.0022

  Mayer bond orders larger than 0.100000
B(  0-Co,  1-F ) :   0.7545 

-------
TIMINGS
-------

Total SCF time: 0 days 0 hours 0 min 7 sec 

Total time                  ....       7.645 sec
Sum of individual times     ....       7.381 sec  ( 96.5%)

Fock matrix formation       ....       6.933 sec  ( 90.7%)
  XC integration            ....       0.853 sec  ( 12.3% of F)
    Basis function eval.    ....       0.058 sec  (  6.8% of XC)
    Density eval.           ....       0.133 sec  ( 15.6% of XC)
    XC-Functional eval.     ....       0.057 sec  (  6.7% of XC)
    XC-Potential eval.      ....       0.308 sec  ( 36.1% of XC)
Diagonalization             ....       0.132 sec  (  1.7%)
Density matrix formation    ....       0.020 sec  (  0.3%)
Population analysis         ....       0.005 sec  (  0.1%)
Initial guess               ....       0.082 sec  (  1.1%)
Orbital Transformation      ....       0.000 sec  (  0.0%)
Orbital Orthonormalization  ....       0.000 sec  (  0.0%)
DIIS solution               ....       0.053 sec  (  0.7%)
Grid generation             ....       0.156 sec  (  2.0%)


-------------------------------------------------------------------------------
                          DFT DISPERSION CORRECTION                            
                                                                               
                              DFTD3 V3.1  Rev 1                                
                          USING Becke-Johnson damping                          
-------------------------------------------------------------------------------
The TPSSH functional is recognized
Active option DFTDOPT                   ...         4   

molecular C6(AA) [au] = 300.923928 


            DFT-D V3
 parameters
 s6 scaling factor         :     1.0000 
 a1 scaling factor         :     0.4529 
 s8 scaling factor         :     2.2382 
 a2 scaling factor         :     4.6550 
 ad hoc parameters k1-k3   :    16.0000     1.3333    -4.0000 

 Edisp/kcal,au: -0.305419550795  -0.000486716983 
 E6   /kcal   :  -0.119160186 
 E8   /kcal   :  -0.186259365 
 % E8         :  60.984755121 

-------------------------   ----------------
Dispersion correction           -0.000486717
-------------------------   ----------------


-------------------------   --------------------
FINAL SINGLE POINT ENERGY     -1482.670547438261
-------------------------   --------------------


                            ***************************************
                            *     ORCA property calculations      *
                            ***************************************

                                    ---------------------
                                    Active property flags
                                    ---------------------
   (+) Dipole Moment


------------------------------------------------------------------------------
                       ORCA ELECTRIC PROPERTIES CALCULATION
------------------------------------------------------------------------------

Dipole Moment Calculation                       ... on
Quadrupole Moment Calculation                   ... off
Polarizability Calculation                      ... off
GBWName                                         ... TMD22_CoF.gbw
Electron density file                           ... TMD22_CoF.scfp
The origin for moment calculation is the CENTER OF MASS  = ( 0.000000,  0.000000  0.020657)

-------------
DIPOLE MOMENT
-------------
                                X             Y             Z
Electronic contribution:      0.00000       0.00000       2.60008
Nuclear contribution   :      0.00000       0.00000      -0.74365
                        -----------------------------------------
Total Dipole Moment    :      0.00000       0.00000       1.85644
                        -----------------------------------------
Magnitude (a.u.)       :      1.85644
Magnitude (Debye)      :      4.71869



--------------------
Rotational spectrum 
--------------------
 
Rotational constants in cm-1:     0.000000     0.378809     0.378809 
Rotational constants in MHz :     0.000000 11356.420741 11356.420741 

 Dipole components along the rotational axes: 
x,y,z [a.u.] :     1.856438     0.000000     0.000000 
x,y,z [Debye]:     4.718690     0.000000     0.000000 

 

Timings for individual modules:

Sum of individual times         ...        8.697 sec (=   0.145 min)
GTO integral calculation        ...        0.684 sec (=   0.011 min)   7.9 %
SCF iterations                  ...        8.013 sec (=   0.134 min)  92.1 %
                             ****ORCA TERMINATED NORMALLY****
TOTAL RUN TIME: 0 days 0 hours 0 minutes 9 seconds 206 msec
