
                                 *****************
                                 * O   R   C   A *
                                 *****************

           --- An Ab Initio, DFT and Semiempirical electronic structure package ---

                  #######################################################
                  #                        -***-                        #
                  #          Department of theory and spectroscopy      #
                  #               Directorship: Frank Neese             #
                  #        Max Planck Institute fuer Kohlenforschung    #
                  #                Kaiser Wilhelm Platz 1               #
                  #                 D-45470 Muelheim/Ruhr               #
                  #                      Germany                        #
                  #                                                     #
                  #                  All rights reserved                #
                  #                        -***-                        #
                  #######################################################


                         Program Version 4.2.0 -  RELEASE  -


 With contributions from (in alphabetic order):
   Daniel Aravena         : Magnetic Suceptibility
   Michael Atanasov       : Ab Initio Ligand Field Theory (pilot matlab implementation)
   Alexander A. Auer      : GIAO ZORA, VPT2
   Ute Becker             : Parallelization
   Giovanni Bistoni       : ED, misc. LED, open-shell LED, HFLED
   Martin Brehm           : Molecular dynamics
   Dmytro Bykov           : SCF Hessian
   Vijay G. Chilkuri      : MRCI spin determinant printing, contributions to CSF-ICE
   Dipayan Datta          : RHF DLPNO-CCSD density
   Achintya Kumar Dutta   : EOM-CC, STEOM-CC
   Dmitry Ganyushin       : Spin-Orbit,Spin-Spin,Magnetic field MRCI
   Miquel Garcia          : C-PCM Hessian, Gaussian charge scheme
   Yang Guo               : DLPNO-NEVPT2, CIM, IAO-localization
   Andreas Hansen         : Spin unrestricted coupled pair/coupled cluster methods
   Benjamin Helmich-Paris : CASSCF linear response (MC-RPA)
   Lee Huntington         : MR-EOM, pCC
   Robert Izsak           : Overlap fitted RIJCOSX, COSX-SCS-MP3, EOM
   Christian Kollmar      : KDIIS, OOCD, Brueckner-CCSD(T), CCSD density
   Simone Kossmann        : Meta GGA functionals, TD-DFT gradient, OOMP2, MP2 Hessian
   Martin Krupicka        : AUTO-CI
   Lucas Lang             : DCDCAS
   Dagmar Lenk            : GEPOL surface, SMD
   Dimitrios Liakos       : Extrapolation schemes; Compound Job, initial MDCI parallelization
   Dimitrios Manganas     : Further ROCIS development; embedding schemes
   Dimitrios Pantazis     : SARC Basis sets
   Taras Petrenko         : DFT Hessian,TD-DFT gradient, ASA, ECA, R-Raman, ABS, FL, XAS/XES, NRVS
   Peter Pinski           : DLPNO-MP2, DLPNO-MP2 Gradient
   Christoph Reimann      : Effective Core Potentials
   Marius Retegan         : Local ZFS, SOC
   Christoph Riplinger    : Optimizer, TS searches, QM/MM, DLPNO-CCSD(T), (RO)-DLPNO pert. Triples
   Tobias Risthaus        : Range-separated hybrids, TD-DFT gradient, RPA, STAB
   Michael Roemelt        : Original ROCIS implementation
   Masaaki Saitow         : Open-shell DLPNO-CCSD energy and density
   Barbara Sandhoefer     : DKH picture change effects
   Avijit Sen             : IP-ROCIS
   Kantharuban Sivalingam : CASSCF convergence, NEVPT2, FIC-MRCI
   Bernardo de Souza      : ESD, SOC TD-DFT
   Georgi Stoychev        : AutoAux, RI-MP2 NMR
   Willem Van den Heuvel  : Paramagnetic NMR
   Boris Wezisla          : Elementary symmetry handling
   Frank Wennmohs         : Technical directorship


 We gratefully acknowledge several colleagues who have allowed us to
 interface, adapt or use parts of their codes:
   Stefan Grimme, W. Hujo, H. Kruse,             : VdW corrections, initial TS optimization,
                  C. Bannwarth                     DFT functionals, gCP, sTDA/sTD-DF
   Ed Valeev, F. Pavosevic, A. Kumar             : LibInt (2-el integral package), F12 methods
   Garnet Chan, S. Sharma, J. Yang, R. Olivares  : DMRG
   Ulf Ekstrom                                   : XCFun DFT Library
   Mihaly Kallay                                 : mrcc  (arbitrary order and MRCC methods)
   Andreas Klamt, Michael Diedenhofen            : otool_cosmo (COSMO solvation model)
   Jiri Pittner, Ondrej Demel                    : Mk-CCSD
   Frank Weinhold                                : gennbo (NPA and NBO analysis)
   Christopher J. Cramer and Donald G. Truhlar   : smd solvation model
   Lars Goerigk                                  : TD-DFT with DH, B97 family of functionals
   V. Asgeirsson, H. Jonsson                     : NEB implementation
   FAccTs GmbH                                   : IRC, NEB, NEB-TS, Multilevel, MM, QM/MM, CI optimization
   S Lehtola, MJT Oliveira, MAL Marques          : LibXC Library


 Your calculation uses the libint2 library for the computation of 2-el integrals
 For citations please refer to: http://libint.valeyev.net

 Your ORCA version has been built with support for libXC version: 4.2.3
 For citations please refer to: https://tddft.org/programs/libxc/

 This ORCA versions uses:
   CBLAS   interface :  Fast vector & matrix operations
   LAPACKE interface :  Fast linear algebra routines
   SCALAPACK package :  Parallel linear algebra routines


Your calculation utilizes the DFT-NL dispersion correction.
Cite in your paper:
Vydrov, O. A.; Van Voorhis, T. J. Chem. Phys. 2010, 133, 244103
Hujo, W.; Grimme, S. J. Chem. Theory Comput. 2011, 7, 3866 
   

----- Orbital basis set information -----
Your calculation utilizes the basis: def2-TZVPPD
   F. Weigend and R. Ahlrichs, Phys. Chem. Chem. Phys. 7, 3297 (2005).
   D. Rappoport and F. Furche, J. Chem. Phys. 133 134105 (2010).

----- AuxJK basis set information -----
Your calculation utilizes the auxiliary basis: def2/JK
   H-Ba, Hf-Rn: F. Weigend, J. Comput. Chem. 29, 167 (2008).

================================================================================
                                        WARNINGS
                       Please study these warnings very carefully!
================================================================================


INFO   : the flag for use of LIBINT has been found!

================================================================================
                                       INPUT FILE
================================================================================
NAME = MOR03_c2h4.in
|  1> #
|  2> # MOR03_c2h4 wB97X-V/Def2-TZVPPD
|  3> #
|  4> ! wb97x-v def2-tzvppd def2/jk grid4 nofinalgrid
|  5> 
|  6> *xyz 0 1
|  7> C        0.000000    0.665348   -0.000001 
|  8> C        0.000000   -0.665348   -0.000001 
|  9> H       -0.924311    1.237390    0.000003 
| 10> H        0.924311    1.237390    0.000003 
| 11> H        0.924311   -1.237390    0.000003 
| 12> H       -0.924311   -1.237390    0.000003 
| 13> *
| 14> 
| 15> %maxcore 5000
| 16> 
| 17> %pal
| 18> nprocs = 24
| 19> end
| 20> 
| 21> 
| 22>                          ****END OF INPUT****
================================================================================

                       ****************************
                       * Single Point Calculation *
                       ****************************

---------------------------------
CARTESIAN COORDINATES (ANGSTROEM)
---------------------------------
  C      0.000000    0.665348   -0.000001
  C      0.000000   -0.665348   -0.000001
  H     -0.924311    1.237390    0.000003
  H      0.924311    1.237390    0.000003
  H      0.924311   -1.237390    0.000003
  H     -0.924311   -1.237390    0.000003

----------------------------
CARTESIAN COORDINATES (A.U.)
----------------------------
  NO LB      ZA    FRAG     MASS         X           Y           Z
   0 C     6.0000    0    12.011    0.000000    1.257326   -0.000002
   1 C     6.0000    0    12.011    0.000000   -1.257326   -0.000002
   2 H     1.0000    0     1.008   -1.746695    2.338328    0.000006
   3 H     1.0000    0     1.008    1.746695    2.338328    0.000006
   4 H     1.0000    0     1.008    1.746695   -2.338328    0.000006
   5 H     1.0000    0     1.008   -1.746695   -2.338328    0.000006

--------------------------------
INTERNAL COORDINATES (ANGSTROEM)
--------------------------------
 C      0   0   0     0.000000000000     0.00000000     0.00000000
 C      1   0   0     1.330696000000     0.00000000     0.00000000
 H      1   2   0     1.087006381996   121.75273403     0.00000000
 H      1   2   3     1.087006381996   121.75273403   179.99950410
 H      2   1   3     1.087006381996   121.75273403   180.00049590
 H      2   1   3     1.087006381996   121.75273403     0.00000000

---------------------------
INTERNAL COORDINATES (A.U.)
---------------------------
 C      0   0   0     0.000000000000     0.00000000     0.00000000
 C      1   0   0     2.514651007504     0.00000000     0.00000000
 H      1   2   0     2.054144367798   121.75273403     0.00000000
 H      1   2   3     2.054144367798   121.75273403   179.99950410
 H      2   1   3     2.054144367798   121.75273403   180.00049590
 H      2   1   3     2.054144367798   121.75273403     0.00000000

---------------------
BASIS SET INFORMATION
---------------------
There are 2 groups of distinct atoms

 Group   1 Type C   : 12s6p3d1f contracted to 6s3p3d1f pattern {621111/411/111/1}
 Group   2 Type H   : 5s3p1d contracted to 3s3p1d pattern {311/111/1}

Atom   0C    basis set group =>   1
Atom   1C    basis set group =>   1
Atom   2H    basis set group =>   2
Atom   3H    basis set group =>   2
Atom   4H    basis set group =>   2
Atom   5H    basis set group =>   2
----------------------------------
AUXILIARY/JK BASIS SET INFORMATION
----------------------------------
There are 2 groups of distinct atoms

 Group   1 Type C   : 14s10p6d2f1g contracted to 10s8p5d1f1g pattern {5111111111/31111111/21111/2/1}
 Group   2 Type H   : 4s2p2d contracted to 2s2p2d pattern {31/11/11}

Atom   0C    basis set group =>   1
Atom   1C    basis set group =>   1
Atom   2H    basis set group =>   2
Atom   3H    basis set group =>   2
Atom   4H    basis set group =>   2
Atom   5H    basis set group =>   2


           ************************************************************
           *        Program running with 24 parallel MPI-processes    *
           *              working on a common directory               *
           ************************************************************
------------------------------------------------------------------------------
                           ORCA GTO INTEGRAL CALCULATION
------------------------------------------------------------------------------

                         BASIS SET STATISTICS AND STARTUP INFO

 # of primitive gaussian shells          ...   80
 # of primitive gaussian functions       ...  180
 # of contracted shells                  ...   54
 # of contracted basis functions         ...  142
 Highest angular momentum                ...    3
 Maximum contraction depth               ...    6
 Integral package used                   ... LIBINT
 Integral threshhold            Thresh   ...  1.000e-10
 Primitive cut-off              TCut     ...  1.000e-11


------------------------------ INTEGRAL EVALUATION ----------------------------


 * One electron integrals 
 Pre-screening matrix                    ... done
 Shell pair data                         ... done (   0.000 sec)



           ************************************************************
           *        Program running with 24 parallel MPI-processes    *
           *              working on a common directory               *
           ************************************************************
-------------------------------------------------------------------------------
                                 ORCA SCF
-------------------------------------------------------------------------------

------------
SCF SETTINGS
------------
Hamiltonian:
 Density Functional     Method          .... DFT(GTOs)
 Exchange Functional    Exchange        .... WB97X-V
 Correlation Functional Correlation     .... WB97X-V
 Gradients option       PostSCFGGA      .... off
 Hybrid DFT is turned on
   Fraction HF Exchange ScalHFX         ....  0.167000
   Scaling of DF-GGA-X  ScalDFX         ....  0.000000
   Scaling of DF-GGA-C  ScalDFC         ....  1.000000
   Scaling of DF-LDA-C  ScalLDAC        ....  1.000000
   Perturbative correction              ....  0.000000
   Density functional embedding theory  .... OFF
 Long-range corrected/Screened/Range-Separated Hybrid DFT is turned on
   Amount of maximum screened exact exchange              ....  0.833000
   Range separation parameter mu (erf(mu*r12)/r12)        ....  0.300000
   NL short-range parameter             ....  6.000000
   NL long-range parameter              ....  0.010000


General Settings:
 Integral files         IntName         .... MOR03_c2h4
 Hartree-Fock type      HFTyp           .... RHF
 Total Charge           Charge          ....    0
 Multiplicity           Mult            ....    1
 Number of Electrons    NEL             ....   16
 Basis Dimension        Dim             ....  142
 Nuclear Repulsion      ENuc            ....     33.3464005296 Eh

Convergence Acceleration:
 DIIS                   CNVDIIS         .... on
   Start iteration      DIISMaxIt       ....    12
   Startup error        DIISStart       ....  0.200000
   # of expansion vecs  DIISMaxEq       ....     5
   Bias factor          DIISBfac        ....   1.050
   Max. coefficient     DIISMaxC        ....  10.000
 Newton-Raphson         CNVNR           .... off
 SOSCF                  CNVSOSCF        .... on
   Start iteration      SOSCFMaxIt      ....   150
   Startup grad/error   SOSCFStart      ....  0.003300
 Level Shifting         CNVShift        .... on
   Level shift para.    LevelShift      ....    0.2500
   Turn off err/grad.   ShiftErr        ....    0.0010
 Zerner damping         CNVZerner       .... off
 Static damping         CNVDamp         .... on
   Fraction old density DampFac         ....    0.7000
   Max. Damping (<1)    DampMax         ....    0.9800
   Min. Damping (>=0)   DampMin         ....    0.0000
   Turn off err/grad.   DampErr         ....    0.1000
 Fernandez-Rico         CNVRico         .... off

SCF Procedure:
 Maximum # iterations   MaxIter         ....   125
 SCF integral mode      SCFMode         .... Direct
   Integral package                     .... LIBINT
 Reset frequency        DirectResetFreq ....    20
 Integral Threshold     Thresh          ....  1.000e-10 Eh
 Primitive CutOff       TCut            ....  1.000e-11 Eh

Convergence Tolerance:
 Convergence Check Mode ConvCheckMode   .... Total+1el-Energy
 Convergence forced     ConvForced      .... 0
 Energy Change          TolE            ....  1.000e-06 Eh
 1-El. energy change                    ....  1.000e-03 Eh
 Orbital Gradient       TolG            ....  5.000e-05
 Orbital Rotation angle TolX            ....  5.000e-05
 DIIS Error             TolErr          ....  1.000e-06


Diagonalization of the overlap matrix:
Smallest eigenvalue                        ... 1.182e-05
Time for diagonalization                   ...    0.004 sec
Threshold for overlap eigenvalues          ... 1.000e-08
Number of eigenvalues below threshold      ... 0
Time for construction of square roots      ...    0.002 sec
Total time needed                          ...    0.007 sec

-------------------
DFT GRID GENERATION
-------------------

General Integration Accuracy     IntAcc      ...  4.670
Radial Grid Type                 RadialGrid  ... Gauss-Chebyshev
Angular Grid (max. acc.)         AngularGrid ... Lebedev-302
Angular grid pruning method      GridPruning ... 3 (G Style)
Weight generation scheme         WeightScheme... Becke
Basis function cutoff            BFCut       ...    1.0000e-10
Integration weight cutoff        WCut        ...    1.0000e-14
Grids for H and He will be reduced by one unit

# of grid points (after initial pruning)     ...  26000 (   0.0 sec)
# of grid points (after weights+screening)   ...  25158 (   0.0 sec)
nearest neighbour list constructed           ...    0.0 sec
Grid point re-assignment to atoms done       ...    0.0 sec
Grid point division into batches done        ...    0.1 sec
Reduced shell lists constructed in    0.1 sec

Total number of grid points                  ...    25158
Total number of batches                      ...      396
Average number of points per batch           ...       63
Average number of grid points per atom       ...     4193
Average number of shells per batch           ...    47.06 (87.14%)
Average number of basis functions per batch  ...   127.06 (89.48%)
Average number of large shells per batch     ...    43.17 (91.74%)
Average number of large basis fcns per batch ...   116.94 (92.04%)
Maximum spatial batch extension              ...   3.19,  3.11, 18.71 au
Average spatial batch extension              ...   0.08,  0.07,  0.16 au

Time for grid setup =    0.182 sec

------------------------------
INITIAL GUESS: MODEL POTENTIAL
------------------------------
Loading Hartree-Fock densities                     ... done
Calculating cut-offs                               ... done
Setting up the integral package                    ... done
Initializing the effective Hamiltonian             ... done
Starting the Coulomb interaction                   ... done (   0.0 sec)
Reading the grid                                   ... done
Mapping shells                                     ... done
Starting the XC term evaluation                    ... done (   0.0 sec)
  promolecular density results
     # of electrons  =     15.998056115
     EX              =     -7.442279014
     EC              =     -0.606304379
     EX+EC           =     -8.048583393
Transforming the Hamiltonian                       ... done (   0.0 sec)
Diagonalizing the Hamiltonian                      ... done (   0.0 sec)
Back transforming the eigenvectors                 ... done (   0.0 sec)
Now organizing SCF variables                       ... done
                      ------------------
                      INITIAL GUESS DONE (   0.3 sec)
                      ------------------
--------------
SCF ITERATIONS
--------------
ITER       Energy         Delta-E        Max-DP      RMS-DP      [F,P]     Damp
               ***  Starting incremental Fock matrix formation  ***
  0    -78.6395466071   0.000000000000 0.01727949  0.00051935  0.2600615 0.7000
  1    -78.6447529969  -0.005206389805 0.01280819  0.00044658  0.1807228 0.7000
                               ***Turning on DIIS***
  2    -78.6479769568  -0.003223959927 0.00937605  0.00035093  0.1249885 0.7000
  3    -78.6500788558  -0.002101898952 0.02515420  0.00098672  0.0862006 0.0000
                      *** Initiating the SOSCF procedure ***
                           *** Shutting down DIIS ***
                      *** Re-Reading the Fockian *** 
                      *** Removing any level shift *** 
ITER      Energy       Delta-E        Grad      Rot      Max-DP    RMS-DP
  4    -78.65494242  -0.0048635594  0.002005  0.002005  0.005448  0.000201
               *** Restarting incremental Fock matrix formation ***
  5    -78.65497415  -0.0000317383  0.000864  0.001460  0.003774  0.000134
  6    -78.65498161  -0.0000074555  0.000305  0.000748  0.001469  0.000051
  7    -78.65498235  -0.0000007453  0.000031  0.000045  0.000063  0.000003
                 **** Energy Check signals convergence ****
              ***Rediagonalizing the Fockian in SOSCF/NRSCF***

               *****************************************************
               *                     SUCCESS                       *
               *           SCF CONVERGED AFTER   8 CYCLES          *
               *****************************************************


Setting up the DFT-NL grid :

General Integration Accuracy     IntAcc      ...  4.340
Radial Grid Type                 RadialGrid  ... Gauss-Chebyshev
Angular Grid (max. acc.)         AngularGrid ... Lebedev-110
Angular grid pruning method      GridPruning ... 3 (G Style)
Weight generation scheme         WeightScheme... Becke
Basis function cutoff            BFCut       ...    1.0000e-10
Integration weight cutoff        WCut        ...    1.0000e-14
Grids for H and He will be reduced by one unit

# of grid points (after initial pruning)     ...   6488 (   0.0 sec)
# of grid points (after weights+screening)   ...   6298 (   0.0 sec)
nearest neighbour list constructed           ...    0.0 sec
Grid point re-assignment to atoms done       ...    0.0 sec
Grid point division into batches done        ...    0.0 sec
Reduced shell lists constructed in    0.0 sec

Total number of grid points                  ...     6298
Total number of batches                      ...      101
Average number of points per batch           ...       62
Average number of grid points per atom       ...     1050
Average number of shells per batch           ...    43.83 (81.17%)
Average number of basis functions per batch  ...   117.17 (82.51%)
Average number of large shells per batch     ...    41.83 (95.44%)
Average number of large basis fcns per batch ...   113.83 (97.16%)
Maximum spatial batch extension              ...   3.49,  3.05, 20.08 au
Average spatial batch extension              ...   0.13,  0.11,  0.45 au

Final grid set up in    0.0 sec

-------------------------------------------------------------------------------
                         DFT-NL dispersion correction                          
-------------------------------------------------------------------------------

SC Energy -78.654982369 
NL    Energy 0.064922575 
SC+NL Energy -78.590059793 
NL done in    0.0 sec
-------------------------------------------------------------------------------

----------------
TOTAL SCF ENERGY
----------------

Total Energy       :          -78.59005979 Eh           -2138.54425 eV

Components:
Nuclear Repulsion  :           33.34640053 Eh             907.40169 eV
Electronic Energy  :         -111.93646032 Eh           -3045.94594 eV
One Electron Energy:         -170.24475610 Eh           -4632.59533 eV
Two Electron Energy:           58.30829577 Eh            1586.64939 eV

Virial components:
Potential Energy   :         -156.79664613 Eh           -4266.65365 eV
Kinetic Energy     :           78.20658633 Eh            2128.10941 eV
Virial Ratio       :            2.00490334


DFT components:
N(Alpha)           :        8.000027446194 electrons
N(Beta)            :        8.000027446194 electrons
N(Total)           :       16.000054892387 electrons
E(X)               :       -7.696727451330 Eh       
E(C)               :       -0.617202402011 Eh       
NL Energy, E(C,NL) :        0.064922575038 Eh       
E(XC)              :       -8.249007278303 Eh       
DFET-embed. en.    :        0.000000000000 Eh       

---------------
SCF CONVERGENCE
---------------

  Last Energy change         ...   -1.4211e-08  Tolerance :   1.0000e-06
  Last MAX-Density change    ...    5.0393e-05  Tolerance :   1.0000e-05
  Last RMS-Density change    ...    1.8635e-06  Tolerance :   1.0000e-06
  Last Orbital Gradient      ...    2.0612e-05  Tolerance :   5.0000e-05
  Last Orbital Rotation      ...    1.6169e-05  Tolerance :   5.0000e-05

             **** THE GBW FILE WAS UPDATED (MOR03_c2h4.gbw) ****
             **** DENSITY FILE WAS UPDATED (MOR03_c2h4.scfp) ****
             **** ENERGY FILE WAS UPDATED (MOR03_c2h4.en.tmp) ****
             **** THE GBW FILE WAS UPDATED (MOR03_c2h4.gbw) ****
             **** DENSITY FILE WAS UPDATED (MOR03_c2h4.scfp) ****
----------------
ORBITAL ENERGIES
----------------

  NO   OCC          E(Eh)            E(eV) 
   0   2.0000     -10.274002      -279.5698 
   1   2.0000     -10.273114      -279.5457 
   2   2.0000      -0.896448       -24.3936 
   3   2.0000      -0.704674       -19.1751 
   4   2.0000      -0.586027       -15.9466 
   5   2.0000      -0.532452       -14.4887 
   6   2.0000      -0.462184       -12.5767 
   7   2.0000      -0.380450       -10.3526 
   8   0.0000       0.073178         1.9913 
   9   0.0000       0.080201         2.1824 
  10   0.0000       0.084930         2.3111 
  11   0.0000       0.125172         3.4061 
  12   0.0000       0.164417         4.4740 
  13   0.0000       0.169523         4.6129 
  14   0.0000       0.189595         5.1591 
  15   0.0000       0.211299         5.7497 
  16   0.0000       0.222623         6.0579 
  17   0.0000       0.226677         6.1682 
  18   0.0000       0.251132         6.8336 
  19   0.0000       0.262889         7.1536 
  20   0.0000       0.272212         7.4073 
  21   0.0000       0.295395         8.0381 
  22   0.0000       0.311008         8.4630 
  23   0.0000       0.313611         8.5338 
  24   0.0000       0.335764         9.1366 
  25   0.0000       0.360189         9.8012 
  26   0.0000       0.363620         9.8946 
  27   0.0000       0.378160        10.2903 
  28   0.0000       0.429422        11.6852 
  29   0.0000       0.432855        11.7786 
  30   0.0000       0.436610        11.8808 
  31   0.0000       0.436665        11.8823 
  32   0.0000       0.453444        12.3388 
  33   0.0000       0.454913        12.3788 
  34   0.0000       0.455315        12.3897 
  35   0.0000       0.482214        13.1217 
  36   0.0000       0.505370        13.7518 
  37   0.0000       0.515477        14.0268 
  38   0.0000       0.536418        14.5967 
  39   0.0000       0.544781        14.8243 
  40   0.0000       0.558969        15.2103 
  41   0.0000       0.617826        16.8119 
  42   0.0000       0.633971        17.2512 
  43   0.0000       0.744635        20.2626 
  44   0.0000       0.758579        20.6420 
  45   0.0000       0.778860        21.1939 
  46   0.0000       0.809395        22.0248 
  47   0.0000       0.811386        22.0789 
  48   0.0000       0.816267        22.2118 
  49   0.0000       0.839147        22.8344 
  50   0.0000       0.874853        23.8060 
  51   0.0000       0.880587        23.9620 
  52   0.0000       0.971687        26.4410 
  53   0.0000       0.984662        26.7940 
  54   0.0000       1.041758        28.3477 
  55   0.0000       1.097196        29.8562 
  56   0.0000       1.109662        30.1954 
  57   0.0000       1.173337        31.9281 
  58   0.0000       1.197481        32.5851 
  59   0.0000       1.241675        33.7877 
  60   0.0000       1.242507        33.8103 
  61   0.0000       1.348653        36.6987 
  62   0.0000       1.380506        37.5655 
  63   0.0000       1.458203        39.6797 
  64   0.0000       1.472011        40.0555 
  65   0.0000       1.482014        40.3277 
  66   0.0000       1.556156        42.3452 
  67   0.0000       1.577032        42.9132 
  68   0.0000       1.593993        43.3748 
  69   0.0000       1.670553        45.4581 
  70   0.0000       1.688518        45.9469 
  71   0.0000       1.851977        50.3949 
  72   0.0000       1.861336        50.6495 
  73   0.0000       1.861491        50.6537 
  74   0.0000       1.882950        51.2377 
  75   0.0000       1.924212        52.3605 
  76   0.0000       2.193269        59.6819 
  77   0.0000       2.198706        59.8298 
  78   0.0000       2.238259        60.9061 
  79   0.0000       2.364179        64.3326 
  80   0.0000       2.620541        71.3085 
  81   0.0000       2.694593        73.3236 
  82   0.0000       2.814555        76.5879 
  83   0.0000       2.890740        78.6610 
  84   0.0000       2.900183        78.9180 
  85   0.0000       2.909786        79.1793 
  86   0.0000       2.911810        79.2344 
  87   0.0000       2.942395        80.0666 
  88   0.0000       2.953864        80.3787 
  89   0.0000       2.990843        81.3850 
  90   0.0000       3.033744        82.5524 
  91   0.0000       3.036690        82.6325 
  92   0.0000       3.084601        83.9363 
  93   0.0000       3.188806        86.7718 
  94   0.0000       3.269903        88.9786 
  95   0.0000       3.287722        89.4635 
  96   0.0000       3.316511        90.2469 
  97   0.0000       3.369858        91.6985 
  98   0.0000       3.432426        93.4011 
  99   0.0000       3.466467        94.3274 
 100   0.0000       3.540252        96.3352 
 101   0.0000       3.555211        96.7422 
 102   0.0000       3.591700        97.7351 
 103   0.0000       3.672343        99.9295 
 104   0.0000       3.777487       102.7906 
 105   0.0000       3.809655       103.6660 
 106   0.0000       3.809690       103.6669 
 107   0.0000       3.827712       104.1573 
 108   0.0000       3.835578       104.3714 
 109   0.0000       3.879364       105.5629 
 110   0.0000       3.971961       108.0826 
 111   0.0000       4.030045       109.6631 
 112   0.0000       4.075132       110.8900 
 113   0.0000       4.101538       111.6085 
 114   0.0000       4.127889       112.3256 
 115   0.0000       4.167761       113.4105 
 116   0.0000       4.181828       113.7933 
 117   0.0000       4.308418       117.2380 
 118   0.0000       4.329741       117.8183 
 119   0.0000       4.388822       119.4259 
 120   0.0000       4.457779       121.3023 
 121   0.0000       4.509324       122.7049 
 122   0.0000       4.629791       125.9830 
 123   0.0000       4.672279       127.1392 
 124   0.0000       4.749492       129.2403 
 125   0.0000       4.797474       130.5459 
 126   0.0000       4.814308       131.0040 
 127   0.0000       4.982638       135.5845 
 128   0.0000       5.114008       139.1592 
 129   0.0000       5.120211       139.3280 
 130   0.0000       5.175531       140.8334 
 131   0.0000       5.254981       142.9953 
 132   0.0000       5.275981       143.5667 
 133   0.0000       5.480803       149.1402 
 134   0.0000       5.494605       149.5158 
 135   0.0000       5.584990       151.9753 
 136   0.0000       5.631216       153.2332 
 137   0.0000       5.965809       162.3379 
 138   0.0000       6.029213       164.0632 
 139   0.0000       6.556238       178.4043 
 140   0.0000      23.264670       633.0639 
 141   0.0000      23.854093       649.1029 

                    ********************************
                    * MULLIKEN POPULATION ANALYSIS *
                    ********************************

-----------------------
MULLIKEN ATOMIC CHARGES
-----------------------
   0 C :   -0.075388
   1 C :   -0.075292
   2 H :    0.037668
   3 H :    0.037655
   4 H :    0.037682
   5 H :    0.037675
Sum of atomic charges:    0.0000000

--------------------------------
MULLIKEN REDUCED ORBITAL CHARGES
--------------------------------
  0 C s       :     3.143124  s :     3.143124
      pz      :     0.934064  p :     2.875524
      px      :     0.995546
      py      :     0.945914
      dz2     :     0.002305  d :     0.052200
      dxz     :     0.000000
      dyz     :     0.019437
      dx2y2   :     0.008520
      dxy     :     0.021938
      f0      :     0.000964  f :     0.004540
      f+1     :     0.000581
      f-1     :     0.000429
      f+2     :     0.000776
      f-2     :     0.000000
      f+3     :     0.001288
      f-3     :     0.000502
  1 C s       :     3.143053  s :     3.143053
      pz      :     0.934064  p :     2.875505
      px      :     0.995539
      py      :     0.945901
      dz2     :     0.002305  d :     0.052194
      dxz     :     0.000000
      dyz     :     0.019437
      dx2y2   :     0.008515
      dxy     :     0.021936
      f0      :     0.000964  f :     0.004540
      f+1     :     0.000581
      f-1     :     0.000429
      f+2     :     0.000776
      f-2     :     0.000000
      f+3     :     0.001288
      f-3     :     0.000502
  2 H s       :     0.921023  s :     0.921023
      pz      :     0.021715  p :     0.039516
      px      :     0.008829
      py      :     0.008972
      dz2     :     0.000083  d :     0.001793
      dxz     :     0.000393
      dyz     :     0.000271
      dx2y2   :     0.000685
      dxy     :     0.000361
  3 H s       :     0.921036  s :     0.921036
      pz      :     0.021715  p :     0.039516
      px      :     0.008830
      py      :     0.008972
      dz2     :     0.000083  d :     0.001793
      dxz     :     0.000393
      dyz     :     0.000271
      dx2y2   :     0.000685
      dxy     :     0.000361
  4 H s       :     0.921010  s :     0.921010
      pz      :     0.021715  p :     0.039514
      px      :     0.008830
      py      :     0.008970
      dz2     :     0.000083  d :     0.001793
      dxz     :     0.000393
      dyz     :     0.000271
      dx2y2   :     0.000685
      dxy     :     0.000361
  5 H s       :     0.921017  s :     0.921017
      pz      :     0.021715  p :     0.039515
      px      :     0.008829
      py      :     0.008970
      dz2     :     0.000083  d :     0.001793
      dxz     :     0.000393
      dyz     :     0.000271
      dx2y2   :     0.000685
      dxy     :     0.000361


                     *******************************
                     * LOEWDIN POPULATION ANALYSIS *
                     *******************************

----------------------
LOEWDIN ATOMIC CHARGES
----------------------
   0 C :    0.098286
   1 C :    0.098286
   2 H :   -0.049143
   3 H :   -0.049143
   4 H :   -0.049143
   5 H :   -0.049143

-------------------------------
LOEWDIN REDUCED ORBITAL CHARGES
-------------------------------
  0 C s       :     2.721148  s :     2.721148
      pz      :     0.753410  p :     2.705453
      px      :     0.941899
      py      :     1.010144
      dz2     :     0.039623  d :     0.446332
      dxz     :     0.000000
      dyz     :     0.060743
      dx2y2   :     0.107792
      dxy     :     0.238174
      f0      :     0.001026  f :     0.028781
      f+1     :     0.002315
      f-1     :     0.003547
      f+2     :     0.005056
      f-2     :     0.000000
      f+3     :     0.009304
      f-3     :     0.007532
  1 C s       :     2.721148  s :     2.721148
      pz      :     0.753410  p :     2.705452
      px      :     0.941899
      py      :     1.010144
      dz2     :     0.039623  d :     0.446332
      dxz     :     0.000000
      dyz     :     0.060743
      dx2y2   :     0.107792
      dxy     :     0.238174
      f0      :     0.001026  f :     0.028781
      f+1     :     0.002315
      f-1     :     0.003547
      f+2     :     0.005056
      f-2     :     0.000000
      f+3     :     0.009304
      f-3     :     0.007532
  2 H s       :     0.732570  s :     0.732570
      pz      :     0.081731  p :     0.288228
      px      :     0.123019
      py      :     0.083478
      dz2     :     0.002618  d :     0.028345
      dxz     :     0.005593
      dyz     :     0.002558
      dx2y2   :     0.009203
      dxy     :     0.008373
  3 H s       :     0.732570  s :     0.732570
      pz      :     0.081731  p :     0.288228
      px      :     0.123019
      py      :     0.083478
      dz2     :     0.002618  d :     0.028345
      dxz     :     0.005593
      dyz     :     0.002558
      dx2y2   :     0.009203
      dxy     :     0.008373
  4 H s       :     0.732570  s :     0.732570
      pz      :     0.081731  p :     0.288228
      px      :     0.123019
      py      :     0.083478
      dz2     :     0.002618  d :     0.028345
      dxz     :     0.005593
      dyz     :     0.002558
      dx2y2   :     0.009203
      dxy     :     0.008373
  5 H s       :     0.732570  s :     0.732570
      pz      :     0.081731  p :     0.288228
      px      :     0.123019
      py      :     0.083478
      dz2     :     0.002618  d :     0.028345
      dxz     :     0.005593
      dyz     :     0.002558
      dx2y2   :     0.009203
      dxy     :     0.008373


                      *****************************
                      * MAYER POPULATION ANALYSIS *
                      *****************************

  NA   - Mulliken gross atomic population
  ZA   - Total nuclear charge
  QA   - Mulliken gross atomic charge
  VA   - Mayer's total valence
  BVA  - Mayer's bonded valence
  FA   - Mayer's free valence

  ATOM       NA         ZA         QA         VA         BVA        FA
  0 C      6.0754     6.0000    -0.0754     3.8723     3.8723     0.0000
  1 C      6.0753     6.0000    -0.0753     3.8722     3.8722     0.0000
  2 H      0.9623     1.0000     0.0377     1.0182     1.0182     0.0000
  3 H      0.9623     1.0000     0.0377     1.0182     1.0182     0.0000
  4 H      0.9623     1.0000     0.0377     1.0182     1.0182     0.0000
  5 H      0.9623     1.0000     0.0377     1.0182     1.0182     0.0000

  Mayer bond orders larger than 0.100000
B(  0-C ,  1-C ) :   1.8237 B(  0-C ,  2-H ) :   1.0214 B(  0-C ,  3-H ) :   1.0214 
B(  1-C ,  4-H ) :   1.0214 B(  1-C ,  5-H ) :   1.0214 

-------
TIMINGS
-------

Total SCF time: 0 days 0 hours 0 min 2 sec 

Total time                  ....       2.882 sec
Sum of individual times     ....       2.667 sec  ( 92.5%)

Fock matrix formation       ....       2.318 sec  ( 80.4%)
  XC integration            ....       0.222 sec  (  9.6% of F)
    Basis function eval.    ....       0.033 sec  ( 15.0% of XC)
    Density eval.           ....       0.024 sec  ( 11.0% of XC)
    XC-Functional eval.     ....       0.016 sec  (  7.1% of XC)
    XC-Potential eval.      ....       0.047 sec  ( 21.1% of XC)
Diagonalization             ....       0.014 sec  (  0.5%)
Density matrix formation    ....       0.003 sec  (  0.1%)
Population analysis         ....       0.005 sec  (  0.2%)
Initial guess               ....       0.124 sec  (  4.3%)
Orbital Transformation      ....       0.000 sec  (  0.0%)
Orbital Orthonormalization  ....       0.000 sec  (  0.0%)
DIIS solution               ....       0.004 sec  (  0.1%)
SOSCF solution              ....       0.005 sec  (  0.2%)
Grid generation             ....       0.194 sec  (  6.7%)

-------------------------   --------------------
FINAL SINGLE POINT ENERGY       -78.590059793481
-------------------------   --------------------


                            ***************************************
                            *     ORCA property calculations      *
                            ***************************************

                                    ---------------------
                                    Active property flags
                                    ---------------------
   (+) Dipole Moment


------------------------------------------------------------------------------
                       ORCA ELECTRIC PROPERTIES CALCULATION
------------------------------------------------------------------------------

Dipole Moment Calculation                       ... on
Quadrupole Moment Calculation                   ... off
Polarizability Calculation                      ... off
GBWName                                         ... MOR03_c2h4.gbw
Electron density file                           ... MOR03_c2h4.scfp
The origin for moment calculation is the CENTER OF MASS  = ( 0.000000,  0.000000 -0.000001)

-------------
DIPOLE MOMENT
-------------
                                X             Y             Z
Electronic contribution:     -0.00000       0.00000      -0.00001
Nuclear contribution   :      0.00000       0.00000       0.00001
                        -----------------------------------------
Total Dipole Moment    :     -0.00000       0.00000       0.00000
                        -----------------------------------------
Magnitude (a.u.)       :      0.00000
Magnitude (Debye)      :      0.00001



--------------------
Rotational spectrum 
--------------------
 
Rotational constants in cm-1:     4.893731     1.002967     0.832372 
Rotational constants in MHz : 146710.378489 30068.182911 24953.899728 

 Dipole components along the rotational axes: 
x,y,z [a.u.] :     0.000000    -0.000000     0.000004 
x,y,z [Debye]:     0.000000    -0.000000     0.000011 

 

Timings for individual modules:

Sum of individual times         ...        4.183 sec (=   0.070 min)
GTO integral calculation        ...        0.839 sec (=   0.014 min)  20.1 %
SCF iterations                  ...        3.343 sec (=   0.056 min)  79.9 %
                             ****ORCA TERMINATED NORMALLY****
TOTAL RUN TIME: 0 days 0 hours 0 minutes 4 seconds 772 msec
