
                                 *****************
                                 * O   R   C   A *
                                 *****************

           --- An Ab Initio, DFT and Semiempirical electronic structure package ---

                  #######################################################
                  #                        -***-                        #
                  #          Department of theory and spectroscopy      #
                  #               Directorship: Frank Neese             #
                  #        Max Planck Institute fuer Kohlenforschung    #
                  #                Kaiser Wilhelm Platz 1               #
                  #                 D-45470 Muelheim/Ruhr               #
                  #                      Germany                        #
                  #                                                     #
                  #                  All rights reserved                #
                  #                        -***-                        #
                  #######################################################


                         Program Version 4.2.0 -  RELEASE  -


 With contributions from (in alphabetic order):
   Daniel Aravena         : Magnetic Suceptibility
   Michael Atanasov       : Ab Initio Ligand Field Theory (pilot matlab implementation)
   Alexander A. Auer      : GIAO ZORA, VPT2
   Ute Becker             : Parallelization
   Giovanni Bistoni       : ED, misc. LED, open-shell LED, HFLED
   Martin Brehm           : Molecular dynamics
   Dmytro Bykov           : SCF Hessian
   Vijay G. Chilkuri      : MRCI spin determinant printing, contributions to CSF-ICE
   Dipayan Datta          : RHF DLPNO-CCSD density
   Achintya Kumar Dutta   : EOM-CC, STEOM-CC
   Dmitry Ganyushin       : Spin-Orbit,Spin-Spin,Magnetic field MRCI
   Miquel Garcia          : C-PCM Hessian, Gaussian charge scheme
   Yang Guo               : DLPNO-NEVPT2, CIM, IAO-localization
   Andreas Hansen         : Spin unrestricted coupled pair/coupled cluster methods
   Benjamin Helmich-Paris : CASSCF linear response (MC-RPA)
   Lee Huntington         : MR-EOM, pCC
   Robert Izsak           : Overlap fitted RIJCOSX, COSX-SCS-MP3, EOM
   Christian Kollmar      : KDIIS, OOCD, Brueckner-CCSD(T), CCSD density
   Simone Kossmann        : Meta GGA functionals, TD-DFT gradient, OOMP2, MP2 Hessian
   Martin Krupicka        : AUTO-CI
   Lucas Lang             : DCDCAS
   Dagmar Lenk            : GEPOL surface, SMD
   Dimitrios Liakos       : Extrapolation schemes; Compound Job, initial MDCI parallelization
   Dimitrios Manganas     : Further ROCIS development; embedding schemes
   Dimitrios Pantazis     : SARC Basis sets
   Taras Petrenko         : DFT Hessian,TD-DFT gradient, ASA, ECA, R-Raman, ABS, FL, XAS/XES, NRVS
   Peter Pinski           : DLPNO-MP2, DLPNO-MP2 Gradient
   Christoph Reimann      : Effective Core Potentials
   Marius Retegan         : Local ZFS, SOC
   Christoph Riplinger    : Optimizer, TS searches, QM/MM, DLPNO-CCSD(T), (RO)-DLPNO pert. Triples
   Tobias Risthaus        : Range-separated hybrids, TD-DFT gradient, RPA, STAB
   Michael Roemelt        : Original ROCIS implementation
   Masaaki Saitow         : Open-shell DLPNO-CCSD energy and density
   Barbara Sandhoefer     : DKH picture change effects
   Avijit Sen             : IP-ROCIS
   Kantharuban Sivalingam : CASSCF convergence, NEVPT2, FIC-MRCI
   Bernardo de Souza      : ESD, SOC TD-DFT
   Georgi Stoychev        : AutoAux, RI-MP2 NMR
   Willem Van den Heuvel  : Paramagnetic NMR
   Boris Wezisla          : Elementary symmetry handling
   Frank Wennmohs         : Technical directorship


 We gratefully acknowledge several colleagues who have allowed us to
 interface, adapt or use parts of their codes:
   Stefan Grimme, W. Hujo, H. Kruse,             : VdW corrections, initial TS optimization,
                  C. Bannwarth                     DFT functionals, gCP, sTDA/sTD-DF
   Ed Valeev, F. Pavosevic, A. Kumar             : LibInt (2-el integral package), F12 methods
   Garnet Chan, S. Sharma, J. Yang, R. Olivares  : DMRG
   Ulf Ekstrom                                   : XCFun DFT Library
   Mihaly Kallay                                 : mrcc  (arbitrary order and MRCC methods)
   Andreas Klamt, Michael Diedenhofen            : otool_cosmo (COSMO solvation model)
   Jiri Pittner, Ondrej Demel                    : Mk-CCSD
   Frank Weinhold                                : gennbo (NPA and NBO analysis)
   Christopher J. Cramer and Donald G. Truhlar   : smd solvation model
   Lars Goerigk                                  : TD-DFT with DH, B97 family of functionals
   V. Asgeirsson, H. Jonsson                     : NEB implementation
   FAccTs GmbH                                   : IRC, NEB, NEB-TS, Multilevel, MM, QM/MM, CI optimization
   S Lehtola, MJT Oliveira, MAL Marques          : LibXC Library


 Your calculation uses the libint2 library for the computation of 2-el integrals
 For citations please refer to: http://libint.valeyev.net

 Your ORCA version has been built with support for libXC version: 4.2.3
 For citations please refer to: https://tddft.org/programs/libxc/

 This ORCA versions uses:
   CBLAS   interface :  Fast vector & matrix operations
   LAPACKE interface :  Fast linear algebra routines
   SCALAPACK package :  Parallel linear algebra routines


Your calculation utilizes the DFT-NL dispersion correction.
Cite in your paper:
Vydrov, O. A.; Van Voorhis, T. J. Chem. Phys. 2010, 133, 244103
Hujo, W.; Grimme, S. J. Chem. Theory Comput. 2011, 7, 3866 
   

----- Orbital basis set information -----
Your calculation utilizes the basis: def2-TZVPPD
   F. Weigend and R. Ahlrichs, Phys. Chem. Chem. Phys. 7, 3297 (2005).
   D. Rappoport and F. Furche, J. Chem. Phys. 133 134105 (2010).

----- AuxJK basis set information -----
Your calculation utilizes the auxiliary basis: def2/JK
   H-Ba, Hf-Rn: F. Weigend, J. Comput. Chem. 29, 167 (2008).

cite the ECPs for W  [Def2-ECP] as follows:
Ce-Yb(ecp-28): M. Dolg, H. Stoll, H.Preuss, J. Chem. Phys., 1989, 90, 1730-1734.
Y-Cd(ecp-28), Hf-Hg(ecp-46): D. Andrae,U. Haeussermann, M. Dolg, H. Stoll, H. Preuss, Theor. Chim. Acta, 1990, 77, 123-141.
In-Sb(ecp-28), Tl-Bi(ecp-46): B. Metz, H. Stoll, M. Dolg, J. Chem. Phys., 2000, 113, 2563-2569.
Te-Xe(ecp-28), Po-Rn(ecp-46): K. A. Peterson, D. Figgen, E. Goll, H. Stoll, M. Dolg, J. Chem. Phys., 2003, 119, 11113-11123.
Rb(ecp-28), Cs(ecp-46): T. Leininger, A. Nicklass, W. Kuechle, H. Stoll, M. Dolg, A. Bergner, Chem. Phys. Lett., 1996, 255, 274-280.
Sr(ecp-28), Ba(ecp-46): M. Kaupp, P. V. Schleyer, H. Stoll and H. Preuss, J. Chem. Phys., 1991, 94, 1360-1366.
La(ecp-46): M. Dolg, H. Stoll, A. Savin, H. Preuss, Theor. Chim. Acta, 1989, 75, 173-194.
Lu(ecp-28): X. Cao, M. Dolg, J. Chem. Phys., 2001, 115, 7348-7355.

ECP parameters for W  [Def2-ECP] have been obtained from:
TURBOMOLE (7.0.2)

================================================================================
                                        WARNINGS
                       Please study these warnings very carefully!
================================================================================


INFO   : the flag for use of LIBINT has been found!

================================================================================
                                       INPUT FILE
================================================================================
NAME = MOR09_ed07.in
|  1> #
|  2> # MOR09_ed07 wB97X-V/Def2-TZVPPD
|  3> #
|  4> ! wb97x-v def2-tzvppd def2/jk grid4 nofinalgrid
|  5> 
|  6> *xyz 0 1
|  7> W        0.102077    0.091078   -0.092267 
|  8> C        0.117393   -1.847063   -0.698289 
|  9> O        0.106421   -2.944423   -1.101491 
| 10> C        0.053830    0.623127   -1.953542 
| 11> O        0.062184    0.954188   -3.084324 
| 12> C       -0.079789    2.065684    0.368043 
| 13> O       -0.241835    3.206144    0.563164 
| 14> P       -2.374272   -0.093775    0.152024 
| 15> C       -2.924700   -0.636961    1.860300 
| 16> H       -4.020662   -0.654132    1.869520 
| 17> C       -3.301587    1.526034   -0.042070 
| 18> H       -2.720709    2.174283    0.626552 
| 19> C       -3.158465   -1.412689   -0.926528 
| 20> H       -2.602719   -2.298136   -0.589541 
| 21> C        3.533012   -1.160075   -0.926747 
| 22> P        2.541683   -0.047968    0.198665 
| 23> H        3.436930   -0.493420    2.480788 
| 24> H        3.117150   -2.146572   -0.686664 
| 25> C        3.597094    1.476716    0.423185 
| 26> H        4.630625    1.133957    0.560412 
| 27> C       -3.162167    2.103519   -1.458162 
| 28> H       -3.455722    3.159421   -1.453162 
| 29> H       -3.815975    1.580772   -2.162650 
| 30> H       -2.136423    2.033109   -1.825887 
| 31> C       -4.764402    1.570333    0.422322 
| 32> H       -5.415801    0.983387   -0.229568 
| 33> H       -5.116762    2.608723    0.390691 
| 34> H       -4.893747    1.210688    1.447022 
| 35> C       -4.655036   -1.682881   -0.716884 
| 36> H       -4.925909   -1.790522    0.337405 
| 37> H       -4.929224   -2.613829   -1.227923 
| 38> H       -5.265149   -0.883893   -1.147063 
| 39> C       -2.846467   -1.236186   -2.419424 
| 40> H       -3.119249   -2.151958   -2.956758 
| 41> H       -1.787229   -1.039228   -2.589757 
| 42> H       -3.419310   -0.412085   -2.852792 
| 43> C       -2.418211   -2.050160    2.179041 
| 44> H       -2.879973   -2.804800    1.536232 
| 45> H       -2.649558   -2.306479    3.219697 
| 46> H       -1.332968   -2.120913    2.045449 
| 47> C       -2.447309    0.375917    2.910548 
| 48> H       -1.357998    0.484909    2.881372 
| 49> H       -2.729985    0.039964    3.915237 
| 50> H       -2.881675    1.366975    2.750689 
| 51> C        5.039293   -1.175311   -0.637409 
| 52> H        5.257150   -1.324613    0.425881 
| 53> H        5.510398   -0.237807   -0.951034 
| 54> H        5.518847   -1.987312   -1.196567 
| 55> C        3.236493   -0.904929   -2.411567 
| 56> H        3.640990    0.053418   -2.749243 
| 57> C        1.267139   -0.464900    2.531536 
| 58> H        2.161630   -0.902783   -2.603826 
| 59> H        3.697388   -1.694627   -3.016368 
| 60> C        2.697601   -2.411104    1.824913 
| 61> H        0.411078   -0.840608    1.910182 
| 62> H        1.101298   -0.955345    3.499474 
| 63> H        1.182937    0.613220    2.672323 
| 64> C        2.601288   -0.882352    1.885247 
| 65> H        2.586441   -2.826896    2.833616 
| 66> H        3.659680   -2.747270    1.429848 
| 67> H        1.903309   -2.831808    1.199333 
| 68> C        3.181998    2.276906    1.664687 
| 69> H        2.135318    2.587016    1.600131 
| 70> H        3.793597    3.184158    1.733044 
| 71> H        3.324478    1.710719    2.590306 
| 72> C        3.508784    2.354763   -0.833649 
| 73> H        2.465553    2.610163   -1.046808 
| 74> H        3.919372    1.854332   -1.714343 
| 75> H        4.068793    3.284623   -0.679973 
| 76> *
| 77> 
| 78> %maxcore 5000
| 79> 
| 80> %pal
| 81> nprocs = 24
| 82> end
| 83> 
| 84> 
| 85>                          ****END OF INPUT****
================================================================================

                       ****************************
                       * Single Point Calculation *
                       ****************************

---------------------------------
CARTESIAN COORDINATES (ANGSTROEM)
---------------------------------
  W      0.102077    0.091078   -0.092267
  C      0.117393   -1.847063   -0.698289
  O      0.106421   -2.944423   -1.101491
  C      0.053830    0.623127   -1.953542
  O      0.062184    0.954188   -3.084324
  C     -0.079789    2.065684    0.368043
  O     -0.241835    3.206144    0.563164
  P     -2.374272   -0.093775    0.152024
  C     -2.924700   -0.636961    1.860300
  H     -4.020662   -0.654132    1.869520
  C     -3.301587    1.526034   -0.042070
  H     -2.720709    2.174283    0.626552
  C     -3.158465   -1.412689   -0.926528
  H     -2.602719   -2.298136   -0.589541
  C      3.533012   -1.160075   -0.926747
  P      2.541683   -0.047968    0.198665
  H      3.436930   -0.493420    2.480788
  H      3.117150   -2.146572   -0.686664
  C      3.597094    1.476716    0.423185
  H      4.630625    1.133957    0.560412
  C     -3.162167    2.103519   -1.458162
  H     -3.455722    3.159421   -1.453162
  H     -3.815975    1.580772   -2.162650
  H     -2.136423    2.033109   -1.825887
  C     -4.764402    1.570333    0.422322
  H     -5.415801    0.983387   -0.229568
  H     -5.116762    2.608723    0.390691
  H     -4.893747    1.210688    1.447022
  C     -4.655036   -1.682881   -0.716884
  H     -4.925909   -1.790522    0.337405
  H     -4.929224   -2.613829   -1.227923
  H     -5.265149   -0.883893   -1.147063
  C     -2.846467   -1.236186   -2.419424
  H     -3.119249   -2.151958   -2.956758
  H     -1.787229   -1.039228   -2.589757
  H     -3.419310   -0.412085   -2.852792
  C     -2.418211   -2.050160    2.179041
  H     -2.879973   -2.804800    1.536232
  H     -2.649558   -2.306479    3.219697
  H     -1.332968   -2.120913    2.045449
  C     -2.447309    0.375917    2.910548
  H     -1.357998    0.484909    2.881372
  H     -2.729985    0.039964    3.915237
  H     -2.881675    1.366975    2.750689
  C      5.039293   -1.175311   -0.637409
  H      5.257150   -1.324613    0.425881
  H      5.510398   -0.237807   -0.951034
  H      5.518847   -1.987312   -1.196567
  C      3.236493   -0.904929   -2.411567
  H      3.640990    0.053418   -2.749243
  C      1.267139   -0.464900    2.531536
  H      2.161630   -0.902783   -2.603826
  H      3.697388   -1.694627   -3.016368
  C      2.697601   -2.411104    1.824913
  H      0.411078   -0.840608    1.910182
  H      1.101298   -0.955345    3.499474
  H      1.182937    0.613220    2.672323
  C      2.601288   -0.882352    1.885247
  H      2.586441   -2.826896    2.833616
  H      3.659680   -2.747270    1.429848
  H      1.903309   -2.831808    1.199333
  C      3.181998    2.276906    1.664687
  H      2.135318    2.587016    1.600131
  H      3.793597    3.184158    1.733044
  H      3.324478    1.710719    2.590306
  C      3.508784    2.354763   -0.833649
  H      2.465553    2.610163   -1.046808
  H      3.919372    1.854332   -1.714343
  H      4.068793    3.284623   -0.679973

----------------------------
CARTESIAN COORDINATES (A.U.)
----------------------------
  NO LB      ZA    FRAG     MASS         X           Y           Z
   0 W    14.0000*   0   183.850    0.192898    0.172112   -0.174359
   1 C     6.0000    0    12.011    0.221841   -3.490443   -1.319575
   2 O     8.0000    0    15.999    0.201107   -5.564153   -2.081516
   3 C     6.0000    0    12.011    0.101724    1.177539   -3.691659
   4 O     8.0000    0    15.999    0.117511    1.803154   -5.828528
   5 C     6.0000    0    12.011   -0.150779    3.903577    0.695500
   6 O     8.0000    0    15.999   -0.457002    6.058734    1.064226
   7 P    15.0000    0    30.974   -4.486724   -0.177209    0.287284
   8 C     6.0000    0    12.011   -5.526882   -1.203682    3.515458
   9 H     1.0000    0     1.008   -7.597950   -1.236130    3.532881
  10 C     6.0000    0    12.011   -6.239095    2.883786   -0.079501
  11 H     1.0000    0     1.008   -5.141395    4.108799    1.184012
  12 C     6.0000    0    12.011   -5.968634   -2.669595   -1.750884
  13 H     1.0000    0     1.008   -4.918426   -4.342848   -1.114071
  14 C     6.0000    0    12.011    6.676425   -2.192224   -1.751298
  15 P    15.0000    0    30.974    4.803085   -0.090646    0.375422
  16 H     1.0000    0     1.008    6.494856   -0.932429    4.688010
  17 H     1.0000    0     1.008    5.890560   -4.056433   -1.297607
  18 C     6.0000    0    12.011    6.797523    2.790589    0.799704
  19 H     1.0000    0     1.008    8.750613    2.142868    1.059025
  20 C     6.0000    0    12.011   -5.975630    3.975075   -2.755527
  21 H     1.0000    0     1.008   -6.530368    5.970440   -2.746078
  22 H     1.0000    0     1.008   -7.211148    2.987226   -4.086816
  23 H     1.0000    0     1.008   -4.037254    3.842019   -3.450426
  24 C     6.0000    0    12.011   -9.003415    2.967499    0.798073
  25 H     1.0000    0     1.008  -10.234381    1.858332   -0.433821
  26 H     1.0000    0     1.008   -9.669279    4.929772    0.738299
  27 H     1.0000    0     1.008   -9.247842    2.287869    2.734475
  28 C     6.0000    0    12.011   -8.796743   -3.180184   -1.354714
  29 H     1.0000    0     1.008   -9.308619   -3.383596    0.637603
  30 H     1.0000    0     1.008   -9.314883   -4.939421   -2.320438
  31 H     1.0000    0     1.008   -9.949690   -1.670316   -2.167635
  32 C     6.0000    0    12.011   -5.379043   -2.336053   -4.572049
  33 H     1.0000    0     1.008   -5.894526   -4.066611   -5.587463
  34 H     1.0000    0     1.008   -3.377373   -1.963856   -4.893931
  35 H     1.0000    0     1.008   -6.461559   -0.778728   -5.390996
  36 C     6.0000    0    12.011   -4.569757   -3.874241    4.117791
  37 H     1.0000    0     1.008   -5.442360   -5.300304    2.903058
  38 H     1.0000    0     1.008   -5.006939   -4.358614    6.084346
  39 H     1.0000    0     1.008   -2.518944   -4.007945    3.865338
  40 C     6.0000    0    12.011   -4.624744    0.710380    5.500139
  41 H     1.0000    0     1.008   -2.566244    0.916345    5.445004
  42 H     1.0000    0     1.008   -5.158924    0.075521    7.398726
  43 H     1.0000    0     1.008   -5.445577    2.583208    5.198049
  44 C     6.0000    0    12.011    9.522884   -2.221016   -1.204528
  45 H     1.0000    0     1.008    9.934574   -2.503156    0.804798
  46 H     1.0000    0     1.008   10.413143   -0.449390   -1.797194
  47 H     1.0000    0     1.008   10.429109   -3.755475   -2.261184
  48 C     6.0000    0    12.011    6.116085   -1.710068   -4.557201
  49 H     1.0000    0     1.008    6.880474    0.100945   -5.195316
  50 C     6.0000    0    12.011    2.394546   -0.878534    4.783910
  51 H     1.0000    0     1.008    4.084889   -1.706013   -4.920518
  52 H     1.0000    0     1.008    6.987051   -3.202381   -5.700109
  53 C     6.0000    0    12.011    5.097727   -4.556326    3.448586
  54 H     1.0000    0     1.008    0.776825   -1.588519    3.609721
  55 H     1.0000    0     1.008    2.081152   -1.805340    6.613047
  56 H     1.0000    0     1.008    2.235427    1.158818    5.049959
  57 C     6.0000    0    12.011    4.915722   -1.667404    3.562601
  58 H     1.0000    0     1.008    4.887665   -5.342059    5.354758
  59 H     1.0000    0     1.008    6.915793   -5.191588    2.702021
  60 H     1.0000    0     1.008    3.596733   -5.351342    2.266411
  61 C     6.0000    0    12.011    6.013105    4.302729    3.145803
  62 H     1.0000    0     1.008    4.035166    4.888752    3.023809
  63 H     1.0000    0     1.008    7.168859    6.017187    3.274979
  64 H     1.0000    0     1.008    6.282353    3.232790    4.894969
  65 C     6.0000    0    12.011    6.630641    4.449857   -1.575368
  66 H     1.0000    0     1.008    4.659220    4.932493   -1.978180
  67 H     1.0000    0     1.008    7.406540    3.504180   -3.239639
  68 H     1.0000    0     1.008    7.688904    6.207038   -1.284963
* core charge reduced due to ECP

--------------------------------
INTERNAL COORDINATES (ANGSTROEM)
--------------------------------
 W      0   0   0     0.000000000000     0.00000000     0.00000000
 C      1   0   0     2.030735773118     0.00000000     0.00000000
 O      2   1   0     1.169141226366   177.02617244     0.00000000
 C      1   2   3     1.936426744557    88.60040407   342.40756214
 O      4   1   2     1.178278026003   178.12993917   259.18367697
 C      1   2   3     2.035688923508   173.67819466    28.98073318
 O      6   1   4     1.168323637678   175.57246662    39.02775979
 P      1   2   3     2.495226060719    88.05140084    77.60807931
 C      8   1   2     1.875161034673   113.70112360    90.70634755
 H      9   8   1     1.096135282292   107.79971223   178.18283519
 C      8   1   2     1.876530518415   114.60449240   206.83083617
 H     11   8   1     1.097588901078   100.67727431   311.02701173
 C      8   1   2     1.875571170963   114.25143188   334.96772670
 H     13   8   1     1.098376185327   100.30596366    57.20509265
 C      2   1   4     3.491503791072    80.74182143    84.38674459
 P     15   2   1     1.867101319006    63.79084529    21.58361074
 H     16  15   2     2.491581839403   104.76320312   115.16646325
 H     15   2   1     1.097158776541    55.80371237   148.97493831
 C     16  15   2     1.867876577608   104.98970107   198.94221713
 H     19  16  15     1.097497749233   106.98982538   317.97256238
 C     11   8   1     1.535657323132   112.03168389    64.38066257
 H     21  11   8     1.095960114068   109.49842263   196.38522736
 H     21  11   8     1.094089881599   111.09048760    77.61454556
 H     21  11   8     1.091938641711   111.81307116   316.51555276
 C     11   8   1     1.535398988957   117.67298147   194.47891938
 H     25  11   8     1.092605526353   111.84198957   289.92688754
 H     25  11   8     1.097001313518   108.94180691   171.30473056
 H     25  11   8     1.093656593749   112.74162456    52.08801184
 C     13   8   1     1.535147902204   116.92594793   173.63799588
 H     29  13   8     1.093839139239   112.97672982   312.85391659
 H     29  13   8     1.096815434596   109.23615066   193.03411878
 H     29  13   8     1.093468641047   111.19914904    74.79194453
 C     13   8   1     1.535328801211   113.16330501   303.85259903
 H     33  13   8     1.096255537301   109.26923148   166.39411718
 H     33  13   8     1.090775378021   111.71173933    46.43097491
 H     33  13   8     1.093206011818   111.44706236   285.37467398
 C      9   8   1     1.534685096625   111.04344904   296.64993234
 H     37   9   8     1.093576282079   111.96278242   293.55773212
 H     37   9   8     1.096442326119   110.04492507   173.55368166
 H     37   9   8     1.095721305133   111.16226151    53.90750942
 C      9   8   1     1.535201899188   109.92741424    60.22279228
 H     41   9   8     1.095138781051   110.90043083   302.09643030
 H     41   9   8     1.096435190016   110.15369964   182.41577594
 H     41   9   8     1.093811995363   111.98230407    62.19772200
 C     15   2   1     1.533894085294   161.14833142   110.72327899
 H     45  15   2     1.095599554469   112.31437114   328.58765185
 H     45  15   2     1.095086440271   111.09581930   207.49527653
 H     45  15   2     1.096346355802   109.91883790    88.70489954
 C     15   2   1     1.535484754427    84.66691937   263.36304826
 H     49  15   2     1.093650710416   111.88577048   129.61316010
 C     17  16  15     2.170571752692    70.11617992   225.32498055
 H     49  15   2     1.091924263475   111.14221369     8.86829085
 H     49  15   2     1.096280703939   109.42648825   248.99648629
 C     17  16  15     2.157380659439    75.95569309   299.99072980
 H     51  17  16     1.122531839326   138.15932952    41.77891909
 H     51  17  16     1.097699187915    99.54207447   163.59843073
 H     51  17  16     1.090529087449    95.34729759   273.33995721
 C     17  16  15     1.097376296203    44.98281221   266.11331848
 H     54  17  16     1.096686498081    95.28570784   201.91658085
 H     54  17  16     1.093014151794    94.68209580    93.55788205
 H     54  17  16     1.095099070075   139.79323023   327.78227357
 C     19  16  15     1.534254197100   111.72286908   199.42029634
 H     62  19  16     1.093560566058   111.04402897   301.21476812
 H     62  19  16     1.096281080633   109.33791888   182.59138281
 H     62  19  16     1.094366850069   112.29398383    63.20476084
 C     19  16  15     1.535707294332   109.62353127    76.71532905
 H     66  19  16     1.094987140857   110.33220720    56.45815197
 H     66  19  16     1.092993876077   112.08989654   296.14773922
 H     66  19  16     1.096296498515   109.92900704   175.99336297

---------------------------
INTERNAL COORDINATES (A.U.)
---------------------------
 W      0   0   0     0.000000000000     0.00000000     0.00000000
 C      1   0   0     3.837534461550     0.00000000     0.00000000
 O      2   1   0     2.209356729708   177.02617244     0.00000000
 C      1   2   3     3.659316225613    88.60040407   342.40756214
 O      4   1   2     2.226622778763   178.12993917   259.18367697
 C      1   2   3     3.846894559287   173.67819466    28.98073318
 O      6   1   4     2.207811710998   175.57246662    39.02775979
 P      1   2   3     4.715293896982    88.05140084    77.60807931
 C      8   1   2     3.543540812532   113.70112360    90.70634755
 H      9   8   1     2.071395489260   107.79971223   178.18283519
 C      8   1   2     3.546128761749   114.60449240   206.83083617
 H     11   8   1     2.074142430668   100.67727431   311.02701173
 C      8   1   2     3.544315857799   114.25143188   334.96772670
 H     13   8   1     2.075630182290   100.30596366    57.20509265
 C      2   1   4     6.597985960674    80.74182143    84.38674459
 P     15   2   1     3.528310157205    63.79084529    21.58361074
 H     16  15   2     4.708407316723   104.76320312   115.16646325
 H     15   2   1     2.073329613092    55.80371237   148.97493831
 C     16  15   2     3.529775183645   104.98970107   198.94221713
 H     19  16  15     2.073970178645   106.98982538   317.97256238
 C     11   8   1     2.901971776270   112.03168389    64.38066257
 H     21  11   8     2.071064469291   109.49842263   196.38522736
 H     21  11   8     2.067530242116   111.09048760    77.61454556
 H     21  11   8     2.063464987879   111.81307116   316.51555276
 C     11   8   1     2.901483595428   117.67298147   194.47891938
 H     25  11   8     2.064725217216   111.84198957   289.92688754
 H     25  11   8     2.073032051102   108.94180691   171.30473056
 H     25  11   8     2.066711446742   112.74162456    52.08801184
 C     13   8   1     2.901009110229   116.92594793   173.63799588
 H     29  13   8     2.067056407726   112.97672982   312.85391659
 H     29  13   8     2.072680790845   109.23615066   193.03411878
 H     29  13   8     2.066356267611   111.19914904    74.79194453
 C     13   8   1     2.901350959811   113.16330501   303.85259903
 H     33  13   8     2.071622738294   109.26923148   166.39411718
 H     33  13   8     2.061266738084   111.71173933    46.43097491
 H     33  13   8     2.065859970291   111.44706236   285.37467398
 C      9   8   1     2.900134534432   111.04344904   296.64993234
 H     37   9   8     2.066559679680   111.96278242   293.55773212
 H     37   9   8     2.071975718005   110.04492507   173.55368166
 H     37   9   8     2.070613185804   111.16226151    53.90750942
 C      9   8   1     2.901111149740   109.92741424    60.22279228
 H     41   9   8     2.069512374822   110.90043083   302.09643030
 H     41   9   8     2.071962232725   110.15369964   182.41577594
 H     41   9   8     2.067005113235   111.98230407    62.19772200
 C     15   2   1     2.898639739648   161.14833142   110.72327899
 H     45  15   2     2.070383110393   112.31437114   328.58765185
 H     45  15   2     2.069413465083   111.09581930   207.49527653
 H     45  15   2     2.071794360389   109.91883790    88.70489954
 C     15   2   1     2.901645668678    84.66691937   263.36304826
 H     49  15   2     2.066700328855   111.88577048   129.61316010
 C     17  16  15     4.101786166614    70.11617992   225.32498055
 H     49  15   2     2.063437816952   111.14221369     8.86829085
 H     49  15   2     2.071670296348   109.42648825   248.99648629
 C     17  16  15     4.076858612958    75.95569309   299.99072980
 H     51  17  16     2.121277752933   138.15932952    41.77891909
 H     51  17  16     2.074350842588    99.54207447   163.59843073
 H     51  17  16     2.060801316354    95.34729759   273.33995721
 C     17  16  15     2.073740665681    44.98281221   266.11331848
 H     54  17  16     2.072437136142    95.28570784   201.91658085
 H     54  17  16     2.065497407391    94.68209580    93.55788205
 H     54  17  16     2.069437331954   139.79323023   327.78227357
 C     19  16  15     2.899320252339   111.72286908   199.42029634
 H     62  19  16     2.066529980705   111.04402897   301.21476812
 H     62  19  16     2.071671008196   109.33791888   182.59138281
 H     62  19  16     2.068053636673   112.29398383    63.20476084
 C     19  16  15     2.902066208153   109.62353127    76.71532905
 H     66  19  16     2.069225816385   110.33220720    56.45815197
 H     66  19  16     2.065459091838   112.08989654   296.14773922
 H     66  19  16     2.071700143771   109.92900704   175.99336297

---------------------
BASIS SET INFORMATION
---------------------
There are 5 groups of distinct atoms

 Group   1 Type W   : 8s8p6d2f1g contracted to 6s5p3d2f1g pattern {311111/41111/411/11/1}
 Group   2 Type C   : 12s6p3d1f contracted to 6s3p3d1f pattern {621111/411/111/1}
 Group   3 Type O   : 12s7p3d1f contracted to 6s4p3d1f pattern {621111/4111/111/1}
 Group   4 Type P   : 15s9p4d1f contracted to 6s5p4d1f pattern {732111/51111/1111/1}
 Group   5 Type H   : 5s3p1d contracted to 3s3p1d pattern {311/111/1}

Atom   0W    basis set group =>   1
Atom   1C    basis set group =>   2
Atom   2O    basis set group =>   3
Atom   3C    basis set group =>   2
Atom   4O    basis set group =>   3
Atom   5C    basis set group =>   2
Atom   6O    basis set group =>   3
Atom   7P    basis set group =>   4
Atom   8C    basis set group =>   2
Atom   9H    basis set group =>   5
Atom  10C    basis set group =>   2
Atom  11H    basis set group =>   5
Atom  12C    basis set group =>   2
Atom  13H    basis set group =>   5
Atom  14C    basis set group =>   2
Atom  15P    basis set group =>   4
Atom  16H    basis set group =>   5
Atom  17H    basis set group =>   5
Atom  18C    basis set group =>   2
Atom  19H    basis set group =>   5
Atom  20C    basis set group =>   2
Atom  21H    basis set group =>   5
Atom  22H    basis set group =>   5
Atom  23H    basis set group =>   5
Atom  24C    basis set group =>   2
Atom  25H    basis set group =>   5
Atom  26H    basis set group =>   5
Atom  27H    basis set group =>   5
Atom  28C    basis set group =>   2
Atom  29H    basis set group =>   5
Atom  30H    basis set group =>   5
Atom  31H    basis set group =>   5
Atom  32C    basis set group =>   2
Atom  33H    basis set group =>   5
Atom  34H    basis set group =>   5
Atom  35H    basis set group =>   5
Atom  36C    basis set group =>   2
Atom  37H    basis set group =>   5
Atom  38H    basis set group =>   5
Atom  39H    basis set group =>   5
Atom  40C    basis set group =>   2
Atom  41H    basis set group =>   5
Atom  42H    basis set group =>   5
Atom  43H    basis set group =>   5
Atom  44C    basis set group =>   2
Atom  45H    basis set group =>   5
Atom  46H    basis set group =>   5
Atom  47H    basis set group =>   5
Atom  48C    basis set group =>   2
Atom  49H    basis set group =>   5
Atom  50C    basis set group =>   2
Atom  51H    basis set group =>   5
Atom  52H    basis set group =>   5
Atom  53C    basis set group =>   2
Atom  54H    basis set group =>   5
Atom  55H    basis set group =>   5
Atom  56H    basis set group =>   5
Atom  57C    basis set group =>   2
Atom  58H    basis set group =>   5
Atom  59H    basis set group =>   5
Atom  60H    basis set group =>   5
Atom  61C    basis set group =>   2
Atom  62H    basis set group =>   5
Atom  63H    basis set group =>   5
Atom  64H    basis set group =>   5
Atom  65C    basis set group =>   2
Atom  66H    basis set group =>   5
Atom  67H    basis set group =>   5
Atom  68H    basis set group =>   5
----------------------------------
AUXILIARY/JK BASIS SET INFORMATION
----------------------------------
There are 5 groups of distinct atoms

 Group   1 Type W   : 13s12p11d9f5g3h2i contracted to 11s9p9d7f4g3h2i pattern {31111111111/411111111/311111111/3111111/2111/111/11}
 Group   2 Type C   : 14s10p6d2f1g contracted to 10s8p5d1f1g pattern {5111111111/31111111/21111/2/1}
 Group   3 Type O   : 14s10p6d2f1g contracted to 10s8p4d2f1g pattern {5111111111/31111111/3111/11/1}
 Group   4 Type P   : 16s12p10d4f1g contracted to 13s11p9d4f1g pattern {4111111111111/21111111111/211111111/1111/1}
 Group   5 Type H   : 4s2p2d contracted to 2s2p2d pattern {31/11/11}

Atom   0W    basis set group =>   1
Atom   1C    basis set group =>   2
Atom   2O    basis set group =>   3
Atom   3C    basis set group =>   2
Atom   4O    basis set group =>   3
Atom   5C    basis set group =>   2
Atom   6O    basis set group =>   3
Atom   7P    basis set group =>   4
Atom   8C    basis set group =>   2
Atom   9H    basis set group =>   5
Atom  10C    basis set group =>   2
Atom  11H    basis set group =>   5
Atom  12C    basis set group =>   2
Atom  13H    basis set group =>   5
Atom  14C    basis set group =>   2
Atom  15P    basis set group =>   4
Atom  16H    basis set group =>   5
Atom  17H    basis set group =>   5
Atom  18C    basis set group =>   2
Atom  19H    basis set group =>   5
Atom  20C    basis set group =>   2
Atom  21H    basis set group =>   5
Atom  22H    basis set group =>   5
Atom  23H    basis set group =>   5
Atom  24C    basis set group =>   2
Atom  25H    basis set group =>   5
Atom  26H    basis set group =>   5
Atom  27H    basis set group =>   5
Atom  28C    basis set group =>   2
Atom  29H    basis set group =>   5
Atom  30H    basis set group =>   5
Atom  31H    basis set group =>   5
Atom  32C    basis set group =>   2
Atom  33H    basis set group =>   5
Atom  34H    basis set group =>   5
Atom  35H    basis set group =>   5
Atom  36C    basis set group =>   2
Atom  37H    basis set group =>   5
Atom  38H    basis set group =>   5
Atom  39H    basis set group =>   5
Atom  40C    basis set group =>   2
Atom  41H    basis set group =>   5
Atom  42H    basis set group =>   5
Atom  43H    basis set group =>   5
Atom  44C    basis set group =>   2
Atom  45H    basis set group =>   5
Atom  46H    basis set group =>   5
Atom  47H    basis set group =>   5
Atom  48C    basis set group =>   2
Atom  49H    basis set group =>   5
Atom  50C    basis set group =>   2
Atom  51H    basis set group =>   5
Atom  52H    basis set group =>   5
Atom  53C    basis set group =>   2
Atom  54H    basis set group =>   5
Atom  55H    basis set group =>   5
Atom  56H    basis set group =>   5
Atom  57C    basis set group =>   2
Atom  58H    basis set group =>   5
Atom  59H    basis set group =>   5
Atom  60H    basis set group =>   5
Atom  61C    basis set group =>   2
Atom  62H    basis set group =>   5
Atom  63H    basis set group =>   5
Atom  64H    basis set group =>   5
Atom  65C    basis set group =>   2
Atom  66H    basis set group =>   5
Atom  67H    basis set group =>   5
Atom  68H    basis set group =>   5
-------------------------
ECP PARAMETER INFORMATION
-------------------------

 Group 1, Type W  ECP Def2-ECP (replacing 60 core electrons, lmax=3)

Atom   0W    ECP group =>   1



           ************************************************************
           *        Program running with 24 parallel MPI-processes    *
           *              working on a common directory               *
           ************************************************************
------------------------------------------------------------------------------
                           ORCA GTO INTEGRAL CALCULATION
------------------------------------------------------------------------------

                         BASIS SET STATISTICS AND STARTUP INFO

 # of primitive gaussian shells          ...  992
 # of primitive gaussian functions       ... 2278
 # of contracted shells                  ...  658
 # of contracted basis functions         ... 1766
 Highest angular momentum                ...    4
 Maximum contraction depth               ...    7
 Integral package used                   ... LIBINT
 Integral threshhold            Thresh   ...  1.000e-10
 Primitive cut-off              TCut     ...  1.000e-11


------------------------------ INTEGRAL EVALUATION ----------------------------


 * One electron integrals 

   ECP integrals                         ... done
 Pre-screening matrix                    ... done
 Shell pair data                         ... done (   0.055 sec)



           ************************************************************
           *        Program running with 24 parallel MPI-processes    *
           *              working on a common directory               *
           ************************************************************
-------------------------------------------------------------------------------
                                 ORCA SCF
-------------------------------------------------------------------------------

------------
SCF SETTINGS
------------
Hamiltonian:
 Density Functional     Method          .... DFT(GTOs)
 Exchange Functional    Exchange        .... WB97X-V
 Correlation Functional Correlation     .... WB97X-V
 Gradients option       PostSCFGGA      .... off
 Hybrid DFT is turned on
   Fraction HF Exchange ScalHFX         ....  0.167000
   Scaling of DF-GGA-X  ScalDFX         ....  0.000000
   Scaling of DF-GGA-C  ScalDFC         ....  1.000000
   Scaling of DF-LDA-C  ScalLDAC        ....  1.000000
   Perturbative correction              ....  0.000000
   Density functional embedding theory  .... OFF
 Long-range corrected/Screened/Range-Separated Hybrid DFT is turned on
   Amount of maximum screened exact exchange              ....  0.833000
   Range separation parameter mu (erf(mu*r12)/r12)        ....  0.300000
   NL short-range parameter             ....  6.000000
   NL long-range parameter              ....  0.010000


General Settings:
 Integral files         IntName         .... MOR09_ed07
 Hartree-Fock type      HFTyp           .... RHF
 Total Charge           Charge          ....    0
 Multiplicity           Mult            ....    1
 Number of Electrons    NEL             ....  236
 Basis Dimension        Dim             .... 1766
 Nuclear Repulsion      ENuc            ....   3558.2821903299 Eh

Convergence Acceleration:
 DIIS                   CNVDIIS         .... on
   Start iteration      DIISMaxIt       ....    12
   Startup error        DIISStart       ....  0.200000
   # of expansion vecs  DIISMaxEq       ....     5
   Bias factor          DIISBfac        ....   1.050
   Max. coefficient     DIISMaxC        ....  10.000
 Newton-Raphson         CNVNR           .... off
 SOSCF                  CNVSOSCF        .... off
 Level Shifting         CNVShift        .... on
   Level shift para.    LevelShift      ....    0.2500
   Turn off err/grad.   ShiftErr        ....    0.0010
 Zerner damping         CNVZerner       .... off
 Static damping         CNVDamp         .... on
   Fraction old density DampFac         ....    0.7000
   Max. Damping (<1)    DampMax         ....    0.9800
   Min. Damping (>=0)   DampMin         ....    0.0000
   Turn off err/grad.   DampErr         ....    0.1000
 Fernandez-Rico         CNVRico         .... off

SCF Procedure:
 Maximum # iterations   MaxIter         ....   125
 SCF integral mode      SCFMode         .... Direct
   Integral package                     .... LIBINT
 Reset frequency        DirectResetFreq ....    20
 Integral Threshold     Thresh          ....  1.000e-10 Eh
 Primitive CutOff       TCut            ....  1.000e-11 Eh

Convergence Tolerance:
 Convergence Check Mode ConvCheckMode   .... Total+1el-Energy
 Convergence forced     ConvForced      .... 0
 Energy Change          TolE            ....  1.000e-06 Eh
 1-El. energy change                    ....  1.000e-03 Eh
 DIIS Error             TolErr          ....  1.000e-06


Diagonalization of the overlap matrix:
Smallest eigenvalue                        ... 2.214e-07
Time for diagonalization                   ...    0.371 sec
Threshold for overlap eigenvalues          ... 1.000e-08
Number of eigenvalues below threshold      ... 0
Time for construction of square roots      ...    0.417 sec
Total time needed                          ...    0.800 sec

-------------------
DFT GRID GENERATION
-------------------

General Integration Accuracy     IntAcc      ...  4.670
Radial Grid Type                 RadialGrid  ... Gauss-Chebyshev
Angular Grid (max. acc.)         AngularGrid ... Lebedev-302
Angular grid pruning method      GridPruning ... 3 (G Style)
Weight generation scheme         WeightScheme... Becke
Basis function cutoff            BFCut       ...    1.0000e-10
Integration weight cutoff        WCut        ...    1.0000e-14
Grids for H and He will be reduced by one unit

# of grid points (after initial pruning)     ... 316980 (   0.0 sec)
# of grid points (after weights+screening)   ... 264848 (   0.3 sec)
nearest neighbour list constructed           ...    0.0 sec
Grid point re-assignment to atoms done       ...    0.1 sec
Grid point division into batches done        ...    0.7 sec
Reduced shell lists constructed in    1.4 sec

Total number of grid points                  ...   264848
Total number of batches                      ...     4176
Average number of points per batch           ...       63
Average number of grid points per atom       ...     3838
Average number of shells per batch           ...   354.95 (53.94%)
Average number of basis functions per batch  ...   922.77 (52.25%)
Average number of large shells per batch     ...   254.91 (71.82%)
Average number of large basis fcns per batch ...   668.45 (72.44%)
Maximum spatial batch extension              ...   3.10,  4.47,  3.27 au
Average spatial batch extension              ...   0.05,  0.05,  0.05 au

Time for grid setup =    1.799 sec

------------------------------
INITIAL GUESS: MODEL POTENTIAL
------------------------------
Loading Hartree-Fock densities                     ... done
  calling /sw/apps/orca/orca_4_2_0_linux_x86-64_openmpi314/orca MOR09_ed07_atom74.inp > MOR09_ed07_atom74.out in order to generate an atomic fitting density for atom 0 (W  with ECP) on-the-fly... 
    atom 0 (W ), assumed electronic state with S=5: 1s2 2s2 2p6 3s2 3p6 4s2 3d10 4p6 5s2 4d10 5p6 6s2 4f14 5d4           ... done
Calculating cut-offs                               ... done
Setting up the integral package                    ... done
Initializing the effective Hamiltonian             ... done
Starting the Coulomb interaction                   ... done (   0.7 sec)
Reading the grid                                   ... done
Mapping shells                                     ... done
Starting the XC term evaluation                    ... done (   1.9 sec)
  promolecular density results
     # of electrons  =    295.980285154
     EX              =   -388.777300807
     EC              =    -15.079354676
     EX+EC           =   -403.856655484
Transforming the Hamiltonian                       ... done (   0.2 sec)
Diagonalizing the Hamiltonian                      ... done (   0.4 sec)
Back transforming the eigenvectors                 ... done (   0.1 sec)
Now organizing SCF variables                       ... done
                      ------------------
                      INITIAL GUESS DONE (   7.6 sec)
                      ------------------
--------------
SCF ITERATIONS
--------------
ITER       Energy         Delta-E        Max-DP      RMS-DP      [F,P]     Damp
               ***  Starting incremental Fock matrix formation  ***
  0  -1801.5447255869   0.000000000000 6.09314716  0.00986265  0.3521241 0.7000
  1  -1801.7278583162  -0.183132729258 4.63500061  0.00712934  0.2326781 0.7000
                               ***Turning on DIIS***
  2  -1801.8118642778  -0.084005961622 3.48550096  0.00502969  0.1565962 0.7000
  3  -1801.8670212558  -0.055156977968 3.05588649  0.00378143  0.1081105 0.7000
  4  -1801.9066427247  -0.039621468935 7.59676400  0.00895104  0.0770964 0.0000
  5  -1802.0010136641  -0.094370939338 0.35343854  0.00053995  0.0052667 0.0000
  6  -1802.0015324188  -0.000518754758 0.48554946  0.00071310  0.0027675 0.0000
  7  -1802.0016655305  -0.000133111694 0.17198129  0.00044142  0.0012610 0.0000
  8  -1802.0017068580  -0.000041327469 0.61676095  0.00063396  0.0011267 0.0000
  9  -1802.0017234723  -0.000016614269 0.13633975  0.00038597  0.0003779 0.0000
 10  -1802.0017275174  -0.000004045120 0.09319381  0.00026537  0.0002691 0.0000
 11  -1802.0017280992  -0.000000581788 0.14871708  0.00029690  0.0001290 0.0000
 12  -1802.0017281856  -0.000000086454 0.14487129  0.00019767  0.0000783 0.0000
 13  -1802.0017279620   0.000000223644 0.19289424  0.00032234  0.0000330 0.0000
 14  -1802.0017281802  -0.000000218236 0.18272149  0.00020325  0.0000300 0.0000
                 **** Energy Check signals convergence ****

               *****************************************************
               *                     SUCCESS                       *
               *           SCF CONVERGED AFTER  15 CYCLES          *
               *****************************************************


Setting up the DFT-NL grid :

General Integration Accuracy     IntAcc      ...  4.340
Radial Grid Type                 RadialGrid  ... Gauss-Chebyshev
Angular Grid (max. acc.)         AngularGrid ... Lebedev-110
Angular grid pruning method      GridPruning ... 3 (G Style)
Weight generation scheme         WeightScheme... Becke
Basis function cutoff            BFCut       ...    1.0000e-10
Integration weight cutoff        WCut        ...    1.0000e-14
Grids for H and He will be reduced by one unit

# of grid points (after initial pruning)     ...  80414 (   0.0 sec)
# of grid points (after weights+screening)   ...  69140 (   0.1 sec)
nearest neighbour list constructed           ...    0.0 sec
Grid point re-assignment to atoms done       ...    0.0 sec
Grid point division into batches done        ...    0.0 sec
Reduced shell lists constructed in    0.2 sec

Total number of grid points                  ...    69140
Total number of batches                      ...     1118
Average number of points per batch           ...       61
Average number of grid points per atom       ...     1002
Average number of shells per batch           ...   369.23 (56.11%)
Average number of basis functions per batch  ...   967.15 (54.76%)
Average number of large shells per batch     ...   267.46 (72.44%)
Average number of large basis fcns per batch ...   701.42 (72.52%)
Maximum spatial batch extension              ...   3.33,  3.50,  3.16 au
Average spatial batch extension              ...   0.07,  0.06,  0.07 au

Final grid set up in    0.4 sec

-------------------------------------------------------------------------------
                         DFT-NL dispersion correction                          
-------------------------------------------------------------------------------

SC Energy -1802.001728030 
NL    Energy 0.847059173 
SC+NL Energy -1801.154668857 
NL done in    2.1 sec
-------------------------------------------------------------------------------

----------------
TOTAL SCF ENERGY
----------------

Total Energy       :        -1801.15466886 Eh          -49011.91026 eV

Components:
Nuclear Repulsion  :         3558.28219033 Eh           96825.78093 eV
Electronic Energy  :        -5359.43685919 Eh         -145837.69118 eV
One Electron Energy:        -9570.22293160 Eh         -260419.00542 eV
Two Electron Energy:         4210.78607242 Eh          114581.31423 eV

Virial components:
Potential Energy   :        -3551.96329921 Eh          -96653.83516 eV
Kinetic Energy     :         1750.80863035 Eh           47641.92490 eV
Virial Ratio       :            2.02875588


DFT components:
N(Alpha)           :      117.999884167974 electrons
N(Beta)            :      117.999884167974 electrons
N(Total)           :      235.999768335949 electrons
E(X)               :     -136.140916768782 Eh       
E(C)               :       -9.935813816784 Eh       
NL Energy, E(C,NL) :        0.847059172501 Eh       
E(XC)              :     -145.229671413065 Eh       
DFET-embed. en.    :        0.000000000000 Eh       

---------------
SCF CONVERGENCE
---------------

  Last Energy change         ...    1.5066e-07  Tolerance :   1.0000e-06
  Last MAX-Density change    ...    1.8696e-01  Tolerance :   1.0000e-05
  Last RMS-Density change    ...    2.2908e-04  Tolerance :   1.0000e-06
  Last DIIS Error            ...    1.8472e-05  Tolerance :   1.0000e-06

             **** THE GBW FILE WAS UPDATED (MOR09_ed07.gbw) ****
             **** DENSITY FILE WAS UPDATED (MOR09_ed07.scfp) ****
             **** ENERGY FILE WAS UPDATED (MOR09_ed07.en.tmp) ****
             **** THE GBW FILE WAS UPDATED (MOR09_ed07.gbw) ****
             **** DENSITY FILE WAS UPDATED (MOR09_ed07.scfp) ****
----------------
ORBITAL ENERGIES
----------------

  NO   OCC          E(Eh)            E(eV) 
   0   2.0000     -77.086523     -2097.6309 
   1   2.0000     -77.084648     -2097.5799 
   2   2.0000     -19.260016      -524.0917 
   3   2.0000     -19.258717      -524.0563 
   4   2.0000     -19.215391      -522.8774 
   5   2.0000     -10.361804      -281.9590 
   6   2.0000     -10.361550      -281.9521 
   7   2.0000     -10.329336      -281.0755 
   8   2.0000     -10.300616      -280.2940 
   9   2.0000     -10.300127      -280.2807 
  10   2.0000     -10.290136      -280.0088 
  11   2.0000     -10.289614      -279.9946 
  12   2.0000     -10.288250      -279.9575 
  13   2.0000     -10.284205      -279.8475 
  14   2.0000     -10.283848      -279.8377 
  15   2.0000     -10.278639      -279.6960 
  16   2.0000     -10.274489      -279.5831 
  17   2.0000     -10.272452      -279.5276 
  18   2.0000     -10.272045      -279.5165 
  19   2.0000     -10.270280      -279.4685 
  20   2.0000     -10.267440      -279.3913 
  21   2.0000     -10.266467      -279.3648 
  22   2.0000     -10.264319      -279.3063 
  23   2.0000     -10.259639      -279.1790 
  24   2.0000     -10.255927      -279.0780 
  25   2.0000     -10.253771      -279.0193 
  26   2.0000      -6.666464      -181.4037 
  27   2.0000      -6.663375      -181.3196 
  28   2.0000      -4.820377      -131.1691 
  29   2.0000      -4.819671      -131.1499 
  30   2.0000      -4.817039      -131.0783 
  31   2.0000      -4.816908      -131.0747 
  32   2.0000      -4.816311      -131.0585 
  33   2.0000      -4.813439      -130.9803 
  34   2.0000      -3.010639       -81.9237 
  35   2.0000      -1.664271       -45.2871 
  36   2.0000      -1.662748       -45.2457 
  37   2.0000      -1.652200       -44.9586 
  38   2.0000      -1.225619       -33.3508 
  39   2.0000      -1.224174       -33.3115 
  40   2.0000      -1.181778       -32.1578 
  41   2.0000      -0.966018       -26.2867 
  42   2.0000      -0.955725       -26.0066 
  43   2.0000      -0.934574       -25.4311 
  44   2.0000      -0.924045       -25.1445 
  45   2.0000      -0.922350       -25.0984 
  46   2.0000      -0.917751       -24.9733 
  47   2.0000      -0.841467       -22.8975 
  48   2.0000      -0.827080       -22.5060 
  49   2.0000      -0.823182       -22.3999 
  50   2.0000      -0.820807       -22.3353 
  51   2.0000      -0.819822       -22.3085 
  52   2.0000      -0.809730       -22.0339 
  53   2.0000      -0.789396       -21.4806 
  54   2.0000      -0.783457       -21.3189 
  55   2.0000      -0.725341       -19.7375 
  56   2.0000      -0.714069       -19.4308 
  57   2.0000      -0.711492       -19.3607 
  58   2.0000      -0.710917       -19.3450 
  59   2.0000      -0.683346       -18.5948 
  60   2.0000      -0.653694       -17.7879 
  61   2.0000      -0.651739       -17.7347 
  62   2.0000      -0.642202       -17.4752 
  63   2.0000      -0.628580       -17.1045 
  64   2.0000      -0.606749       -16.5105 
  65   2.0000      -0.597773       -16.2662 
  66   2.0000      -0.592754       -16.1296 
  67   2.0000      -0.586177       -15.9507 
  68   2.0000      -0.585083       -15.9209 
  69   2.0000      -0.568609       -15.4726 
  70   2.0000      -0.568159       -15.4604 
  71   2.0000      -0.566153       -15.4058 
  72   2.0000      -0.555775       -15.1234 
  73   2.0000      -0.550708       -14.9855 
  74   2.0000      -0.549107       -14.9420 
  75   2.0000      -0.545959       -14.8563 
  76   2.0000      -0.541977       -14.7479 
  77   2.0000      -0.537585       -14.6284 
  78   2.0000      -0.537074       -14.6145 
  79   2.0000      -0.534444       -14.5430 
  80   2.0000      -0.525248       -14.2927 
  81   2.0000      -0.522737       -14.2244 
  82   2.0000      -0.520661       -14.1679 
  83   2.0000      -0.518503       -14.1092 
  84   2.0000      -0.517868       -14.0919 
  85   2.0000      -0.513525       -13.9737 
  86   2.0000      -0.513115       -13.9626 
  87   2.0000      -0.509485       -13.8638 
  88   2.0000      -0.507566       -13.8116 
  89   2.0000      -0.503927       -13.7126 
  90   2.0000      -0.501600       -13.6492 
  91   2.0000      -0.499737       -13.5985 
  92   2.0000      -0.496017       -13.4973 
  93   2.0000      -0.494077       -13.4445 
  94   2.0000      -0.492480       -13.4011 
  95   2.0000      -0.477862       -13.0033 
  96   2.0000      -0.475332       -12.9344 
  97   2.0000      -0.473011       -12.8713 
  98   2.0000      -0.469645       -12.7797 
  99   2.0000      -0.462237       -12.5781 
 100   2.0000      -0.460686       -12.5359 
 101   2.0000      -0.459931       -12.5153 
 102   2.0000      -0.454668       -12.3721 
 103   2.0000      -0.450247       -12.2518 
 104   2.0000      -0.449461       -12.2304 
 105   2.0000      -0.445892       -12.1333 
 106   2.0000      -0.444803       -12.1037 
 107   2.0000      -0.443592       -12.0708 
 108   2.0000      -0.441945       -12.0259 
 109   2.0000      -0.404957       -11.0194 
 110   2.0000      -0.398897       -10.8545 
 111   2.0000      -0.397229       -10.8091 
 112   2.0000      -0.396008       -10.7759 
 113   2.0000      -0.386201       -10.5091 
 114   2.0000      -0.344870        -9.3844 
 115   2.0000      -0.270803        -7.3689 
 116   2.0000      -0.263242        -7.1632 
 117   2.0000      -0.252969        -6.8836 
 118   0.0000       0.016811         0.4574 
 119   0.0000       0.046134         1.2554 
 120   0.0000       0.047951         1.3048 
 121   0.0000       0.052653         1.4328 
 122   0.0000       0.056399         1.5347 
 123   0.0000       0.060510         1.6466 
 124   0.0000       0.068192         1.8556 
 125   0.0000       0.072617         1.9760 
 126   0.0000       0.073037         1.9874 
 127   0.0000       0.080905         2.2015 
 128   0.0000       0.081528         2.2185 
 129   0.0000       0.086135         2.3438 
 130   0.0000       0.088969         2.4210 
 131   0.0000       0.089857         2.4451 
 132   0.0000       0.094390         2.5685 
 133   0.0000       0.095825         2.6075 
 134   0.0000       0.104589         2.8460 
 135   0.0000       0.104957         2.8560 
 136   0.0000       0.106129         2.8879 
 137   0.0000       0.110116         2.9964 
 138   0.0000       0.113710         3.0942 
 139   0.0000       0.117482         3.1968 
 140   0.0000       0.119315         3.2467 
 141   0.0000       0.121179         3.2975 
 142   0.0000       0.122631         3.3370 
 143   0.0000       0.125381         3.4118 
 144   0.0000       0.131690         3.5835 
 145   0.0000       0.134117         3.6495 
 146   0.0000       0.136264         3.7079 
 147   0.0000       0.140584         3.8255 
 148   0.0000       0.143348         3.9007 
 149   0.0000       0.145922         3.9707 
 150   0.0000       0.148953         4.0532 
 151   0.0000       0.149273         4.0619 
 152   0.0000       0.150805         4.1036 
 153   0.0000       0.153641         4.1808 
 154   0.0000       0.157500         4.2858 
 155   0.0000       0.160756         4.3744 
 156   0.0000       0.162765         4.4291 
 157   0.0000       0.165598         4.5062 
 158   0.0000       0.167186         4.5494 
 159   0.0000       0.168830         4.5941 
 160   0.0000       0.170150         4.6300 
 161   0.0000       0.171385         4.6636 
 162   0.0000       0.174222         4.7408 
 163   0.0000       0.176049         4.7905 
 164   0.0000       0.177358         4.8262 
 165   0.0000       0.181950         4.9511 
 166   0.0000       0.182881         4.9764 
 167   0.0000       0.183951         5.0056 
 168   0.0000       0.187173         5.0932 
 169   0.0000       0.189566         5.1584 
 170   0.0000       0.191731         5.2173 
 171   0.0000       0.194329         5.2880 
 172   0.0000       0.196941         5.3590 
 173   0.0000       0.198973         5.4143 
 174   0.0000       0.200865         5.4658 
 175   0.0000       0.202431         5.5084 
 176   0.0000       0.205514         5.5923 
 177   0.0000       0.207833         5.6554 
 178   0.0000       0.208463         5.6726 
 179   0.0000       0.210330         5.7234 
 180   0.0000       0.211326         5.7505 
 181   0.0000       0.213871         5.8197 
 182   0.0000       0.217642         5.9223 
 183   0.0000       0.222456         6.0533 
 184   0.0000       0.225138         6.1263 
 185   0.0000       0.225753         6.1430 
 186   0.0000       0.227838         6.1998 
 187   0.0000       0.228594         6.2204 
 188   0.0000       0.232420         6.3245 
 189   0.0000       0.234195         6.3728 
 190   0.0000       0.235962         6.4208 
 191   0.0000       0.238812         6.4984 
 192   0.0000       0.242527         6.5995 
 193   0.0000       0.243359         6.6221 
 194   0.0000       0.243622         6.6293 
 195   0.0000       0.245513         6.6807 
 196   0.0000       0.249313         6.7842 
 197   0.0000       0.250260         6.8099 
 198   0.0000       0.251496         6.8435 
 199   0.0000       0.254817         6.9339 
 200   0.0000       0.255388         6.9495 
 201   0.0000       0.256809         6.9881 
 202   0.0000       0.258997         7.0477 
 203   0.0000       0.260553         7.0900 
 204   0.0000       0.262822         7.1517 
 205   0.0000       0.264578         7.1995 
 206   0.0000       0.265883         7.2350 
 207   0.0000       0.269905         7.3445 
 208   0.0000       0.271264         7.3815 
 209   0.0000       0.274809         7.4779 
 210   0.0000       0.276275         7.5178 
 211   0.0000       0.279291         7.5999 
 212   0.0000       0.280355         7.6288 
 213   0.0000       0.283297         7.7089 
 214   0.0000       0.284577         7.7437 
 215   0.0000       0.285934         7.7807 
 216   0.0000       0.288872         7.8606 
 217   0.0000       0.289630         7.8812 
 218   0.0000       0.293262         7.9801 
 219   0.0000       0.295926         8.0526 
 220   0.0000       0.297258         8.0888 
 221   0.0000       0.297716         8.1013 
 222   0.0000       0.300367         8.1734 
 223   0.0000       0.302335         8.2270 
 224   0.0000       0.304197         8.2776 
 225   0.0000       0.305675         8.3178 
 226   0.0000       0.307169         8.3585 
 227   0.0000       0.310232         8.4418 
 228   0.0000       0.310952         8.4614 
 229   0.0000       0.314170         8.5490 
 230   0.0000       0.316019         8.5993 
 231   0.0000       0.319473         8.6933 
 232   0.0000       0.320320         8.7164 
 233   0.0000       0.322472         8.7749 
 234   0.0000       0.323425         8.8008 
 235   0.0000       0.324554         8.8316 
 236   0.0000       0.326333         8.8800 
 237   0.0000       0.328215         8.9312 
 238   0.0000       0.330003         8.9798 
 239   0.0000       0.331730         9.0268 
 240   0.0000       0.333026         9.0621 
 241   0.0000       0.334875         9.1124 
 242   0.0000       0.336325         9.1519 
 243   0.0000       0.337339         9.1795 
 244   0.0000       0.339195         9.2300 
 245   0.0000       0.342408         9.3174 
 246   0.0000       0.344515         9.3747 
 247   0.0000       0.345105         9.3908 
 248   0.0000       0.347561         9.4576 
 249   0.0000       0.349350         9.5063 
 250   0.0000       0.351992         9.5782 
 251   0.0000       0.352317         9.5870 
 252   0.0000       0.354888         9.6570 
 253   0.0000       0.356251         9.6941 
 254   0.0000       0.358762         9.7624 
 255   0.0000       0.359980         9.7956 
 256   0.0000       0.361131         9.8269 
 257   0.0000       0.363377         9.8880 
 258   0.0000       0.364491         9.9183 
 259   0.0000       0.368451        10.0261 
 260   0.0000       0.369887        10.0651 
 261   0.0000       0.372539        10.1373 
 262   0.0000       0.373431        10.1616 
 263   0.0000       0.376227        10.2376 
 264   0.0000       0.378325        10.2948 
 265   0.0000       0.378531        10.3004 
 266   0.0000       0.381084        10.3698 
 267   0.0000       0.384215        10.4550 
 268   0.0000       0.385323        10.4852 
 269   0.0000       0.386261        10.5107 
 270   0.0000       0.387928        10.5561 
 271   0.0000       0.389432        10.5970 
 272   0.0000       0.392646        10.6844 
 273   0.0000       0.394435        10.7331 
 274   0.0000       0.396073        10.7777 
 275   0.0000       0.397389        10.8135 
 276   0.0000       0.399388        10.8679 
 277   0.0000       0.400322        10.8933 
 278   0.0000       0.402038        10.9400 
 279   0.0000       0.402798        10.9607 
 280   0.0000       0.405579        11.0364 
 281   0.0000       0.407971        11.1015 
 282   0.0000       0.409467        11.1422 
 283   0.0000       0.410196        11.1620 
 284   0.0000       0.412366        11.2210 
 285   0.0000       0.415110        11.2957 
 286   0.0000       0.416978        11.3466 
 287   0.0000       0.417674        11.3655 
 288   0.0000       0.418731        11.3942 
 289   0.0000       0.420054        11.4302 
 290   0.0000       0.420548        11.4437 
 291   0.0000       0.424428        11.5493 
 292   0.0000       0.427323        11.6280 
 293   0.0000       0.432268        11.7626 
 294   0.0000       0.432855        11.7786 
 295   0.0000       0.435777        11.8581 
 296   0.0000       0.440078        11.9751 
 297   0.0000       0.440546        11.9879 
 298   0.0000       0.442504        12.0411 
 299   0.0000       0.443591        12.0707 
 300   0.0000       0.444942        12.1075 
 301   0.0000       0.449912        12.2427 
 302   0.0000       0.451588        12.2883 
 303   0.0000       0.453767        12.3476 
 304   0.0000       0.455168        12.3857 
 305   0.0000       0.457313        12.4441 
 306   0.0000       0.458992        12.4898 
 307   0.0000       0.460418        12.5286 
 308   0.0000       0.462097        12.5743 
 309   0.0000       0.468126        12.7383 
 310   0.0000       0.469594        12.7783 
 311   0.0000       0.471239        12.8231 
 312   0.0000       0.473835        12.8937 
 313   0.0000       0.474734        12.9182 
 314   0.0000       0.477353        12.9894 
 315   0.0000       0.478499        13.0206 
 316   0.0000       0.481275        13.0962 
 317   0.0000       0.483572        13.1587 
 318   0.0000       0.485483        13.2107 
 319   0.0000       0.488070        13.2811 
 320   0.0000       0.489682        13.3249 
 321   0.0000       0.493104        13.4180 
 322   0.0000       0.494256        13.4494 
 323   0.0000       0.495998        13.4968 
 324   0.0000       0.496719        13.5164 
 325   0.0000       0.499336        13.5876 
 326   0.0000       0.500191        13.6109 
 327   0.0000       0.502540        13.6748 
 328   0.0000       0.505025        13.7424 
 329   0.0000       0.505897        13.7662 
 330   0.0000       0.508851        13.8465 
 331   0.0000       0.511158        13.9093 
 332   0.0000       0.511666        13.9232 
 333   0.0000       0.514865        14.0102 
 334   0.0000       0.515363        14.0237 
 335   0.0000       0.517900        14.0928 
 336   0.0000       0.518686        14.1142 
 337   0.0000       0.520651        14.1676 
 338   0.0000       0.523067        14.2334 
 339   0.0000       0.523569        14.2470 
 340   0.0000       0.527637        14.3577 
 341   0.0000       0.531070        14.4511 
 342   0.0000       0.531841        14.4721 
 343   0.0000       0.533894        14.5280 
 344   0.0000       0.535346        14.5675 
 345   0.0000       0.539316        14.6755 
 346   0.0000       0.541729        14.7412 
 347   0.0000       0.542012        14.7489 
 348   0.0000       0.543523        14.7900 
 349   0.0000       0.543834        14.7985 
 350   0.0000       0.547737        14.9047 
 351   0.0000       0.549689        14.9578 
 352   0.0000       0.550204        14.9718 
 353   0.0000       0.552949        15.0465 
 354   0.0000       0.557405        15.1677 
 355   0.0000       0.558734        15.2039 
 356   0.0000       0.560626        15.2554 
 357   0.0000       0.562459        15.3053 
 358   0.0000       0.565266        15.3817 
 359   0.0000       0.566005        15.4018 
 360   0.0000       0.567451        15.4411 
 361   0.0000       0.568599        15.4724 
 362   0.0000       0.572228        15.5711 
 363   0.0000       0.573624        15.6091 
 364   0.0000       0.574777        15.6405 
 365   0.0000       0.578171        15.7328 
 366   0.0000       0.579011        15.7557 
 367   0.0000       0.582798        15.8587 
 368   0.0000       0.585475        15.9316 
 369   0.0000       0.587593        15.9892 
 370   0.0000       0.588880        16.0242 
 371   0.0000       0.589934        16.0529 
 372   0.0000       0.593290        16.1442 
 373   0.0000       0.594136        16.1672 
 374   0.0000       0.596834        16.2407 
 375   0.0000       0.598118        16.2756 
 376   0.0000       0.599596        16.3158 
 377   0.0000       0.601317        16.3627 
 378   0.0000       0.603491        16.4218 
 379   0.0000       0.605888        16.4871 
 380   0.0000       0.608568        16.5600 
 381   0.0000       0.609653        16.5895 
 382   0.0000       0.611895        16.6505 
 383   0.0000       0.615507        16.7488 
 384   0.0000       0.618218        16.8226 
 385   0.0000       0.618865        16.8402 
 386   0.0000       0.621427        16.9099 
 387   0.0000       0.623232        16.9590 
 388   0.0000       0.624979        17.0065 
 389   0.0000       0.627903        17.0861 
 390   0.0000       0.631188        17.1755 
 391   0.0000       0.632481        17.2107 
 392   0.0000       0.634373        17.2622 
 393   0.0000       0.635305        17.2875 
 394   0.0000       0.638686        17.3795 
 395   0.0000       0.641758        17.4631 
 396   0.0000       0.642113        17.4728 
 397   0.0000       0.643589        17.5130 
 398   0.0000       0.647779        17.6270 
 399   0.0000       0.649822        17.6826 
 400   0.0000       0.651061        17.7163 
 401   0.0000       0.653141        17.7729 
 402   0.0000       0.655869        17.8471 
 403   0.0000       0.657245        17.8846 
 404   0.0000       0.658559        17.9203 
 405   0.0000       0.661600        18.0031 
 406   0.0000       0.664088        18.0708 
 407   0.0000       0.666540        18.1375 
 408   0.0000       0.667624        18.1670 
 409   0.0000       0.669334        18.2135 
 410   0.0000       0.670634        18.2489 
 411   0.0000       0.674875        18.3643 
 412   0.0000       0.675459        18.3802 
 413   0.0000       0.675842        18.3906 
 414   0.0000       0.680264        18.5109 
 415   0.0000       0.681979        18.5576 
 416   0.0000       0.683482        18.5985 
 417   0.0000       0.685154        18.6440 
 418   0.0000       0.687877        18.7181 
 419   0.0000       0.688367        18.7314 
 420   0.0000       0.689856        18.7719 
 421   0.0000       0.691526        18.8174 
 422   0.0000       0.694754        18.9052 
 423   0.0000       0.695476        18.9249 
 424   0.0000       0.699484        19.0339 
 425   0.0000       0.699778        19.0419 
 426   0.0000       0.704133        19.1604 
 427   0.0000       0.705460        19.1965 
 428   0.0000       0.706504        19.2250 
 429   0.0000       0.708080        19.2678 
 430   0.0000       0.710213        19.3259 
 431   0.0000       0.713259        19.4088 
 432   0.0000       0.714024        19.4296 
 433   0.0000       0.717523        19.5248 
 434   0.0000       0.718448        19.5500 
 435   0.0000       0.719167        19.5695 
 436   0.0000       0.721656        19.6372 
 437   0.0000       0.723356        19.6835 
 438   0.0000       0.726083        19.7577 
 439   0.0000       0.727816        19.8049 
 440   0.0000       0.729743        19.8573 
 441   0.0000       0.731472        19.9044 
 442   0.0000       0.732781        19.9400 
 443   0.0000       0.734743        19.9934 
 444   0.0000       0.738251        20.0888 
 445   0.0000       0.738771        20.1030 
 446   0.0000       0.741298        20.1717 
 447   0.0000       0.742053        20.1923 
 448   0.0000       0.742405        20.2019 
 449   0.0000       0.744721        20.2649 
 450   0.0000       0.747395        20.3377 
 451   0.0000       0.748331        20.3631 
 452   0.0000       0.751730        20.4556 
 453   0.0000       0.752628        20.4800 
 454   0.0000       0.754224        20.5235 
 455   0.0000       0.754567        20.5328 
 456   0.0000       0.755703        20.5637 
 457   0.0000       0.758085        20.6285 
 458   0.0000       0.760256        20.6876 
 459   0.0000       0.760758        20.7013 
 460   0.0000       0.762785        20.7564 
 461   0.0000       0.764187        20.7946 
 462   0.0000       0.766151        20.8480 
 463   0.0000       0.768964        20.9246 
 464   0.0000       0.770875        20.9766 
 465   0.0000       0.773304        21.0427 
 466   0.0000       0.775559        21.1040 
 467   0.0000       0.777887        21.1674 
 468   0.0000       0.778925        21.1956 
 469   0.0000       0.780271        21.2323 
 470   0.0000       0.782210        21.2850 
 471   0.0000       0.783369        21.3166 
 472   0.0000       0.785627        21.3780 
 473   0.0000       0.789096        21.4724 
 474   0.0000       0.789552        21.4848 
 475   0.0000       0.791527        21.5385 
 476   0.0000       0.794120        21.6091 
 477   0.0000       0.796574        21.6759 
 478   0.0000       0.797909        21.7122 
 479   0.0000       0.801431        21.8080 
 480   0.0000       0.803237        21.8572 
 481   0.0000       0.805030        21.9060 
 482   0.0000       0.809733        22.0339 
 483   0.0000       0.810517        22.0553 
 484   0.0000       0.810765        22.0620 
 485   0.0000       0.813178        22.1277 
 486   0.0000       0.814851        22.1732 
 487   0.0000       0.815319        22.1860 
 488   0.0000       0.818166        22.2634 
 489   0.0000       0.819445        22.2982 
 490   0.0000       0.821624        22.3575 
 491   0.0000       0.822375        22.3780 
 492   0.0000       0.824697        22.4411 
 493   0.0000       0.826797        22.4983 
 494   0.0000       0.829036        22.5592 
 495   0.0000       0.833216        22.6730 
 496   0.0000       0.833834        22.6898 
 497   0.0000       0.834926        22.7195 
 498   0.0000       0.837066        22.7777 
 499   0.0000       0.838313        22.8117 
 500   0.0000       0.839757        22.8510 
 501   0.0000       0.841360        22.8946 
 502   0.0000       0.843856        22.9625 
 503   0.0000       0.846638        23.0382 
 504   0.0000       0.849151        23.1066 
 505   0.0000       0.850952        23.1556 
 506   0.0000       0.852591        23.2002 
 507   0.0000       0.854849        23.2616 
 508   0.0000       0.855765        23.2866 
 509   0.0000       0.857025        23.3208 
 510   0.0000       0.860620        23.4187 
 511   0.0000       0.863648        23.5011 
 512   0.0000       0.864685        23.5293 
 513   0.0000       0.866156        23.5693 
 514   0.0000       0.868777        23.6406 
 515   0.0000       0.872735        23.7483 
 516   0.0000       0.875594        23.8261 
 517   0.0000       0.877621        23.8813 
 518   0.0000       0.879636        23.9361 
 519   0.0000       0.880945        23.9717 
 520   0.0000       0.884710        24.0742 
 521   0.0000       0.885427        24.0937 
 522   0.0000       0.886754        24.1298 
 523   0.0000       0.890157        24.2224 
 524   0.0000       0.890891        24.2424 
 525   0.0000       0.893067        24.3016 
 526   0.0000       0.897291        24.4165 
 527   0.0000       0.898451        24.4481 
 528   0.0000       0.899723        24.4827 
 529   0.0000       0.901141        24.5213 
 530   0.0000       0.906557        24.6687 
 531   0.0000       0.907922        24.7058 
 532   0.0000       0.909047        24.7364 
 533   0.0000       0.912484        24.8300 
 534   0.0000       0.915301        24.9066 
 535   0.0000       0.916695        24.9445 
 536   0.0000       0.918259        24.9871 
 537   0.0000       0.920749        25.0549 
 538   0.0000       0.922959        25.1150 
 539   0.0000       0.924514        25.1573 
 540   0.0000       0.925756        25.1911 
 541   0.0000       0.930626        25.3236 
 542   0.0000       0.931780        25.3550 
 543   0.0000       0.933533        25.4027 
 544   0.0000       0.936646        25.4874 
 545   0.0000       0.938867        25.5479 
 546   0.0000       0.944833        25.7102 
 547   0.0000       0.946606        25.7585 
 548   0.0000       0.948300        25.8046 
 549   0.0000       0.950389        25.8614 
 550   0.0000       0.951938        25.9035 
 551   0.0000       0.954273        25.9671 
 552   0.0000       0.957660        26.0592 
 553   0.0000       0.959715        26.1152 
 554   0.0000       0.966002        26.2863 
 555   0.0000       0.967029        26.3142 
 556   0.0000       0.971416        26.4336 
 557   0.0000       0.972038        26.4505 
 558   0.0000       0.973422        26.4882 
 559   0.0000       0.975589        26.5471 
 560   0.0000       0.978108        26.6157 
 561   0.0000       0.980209        26.6729 
 562   0.0000       0.984689        26.7947 
 563   0.0000       0.986553        26.8455 
 564   0.0000       0.987423        26.8691 
 565   0.0000       0.988387        26.8954 
 566   0.0000       0.992862        27.0171 
 567   0.0000       0.994826        27.0706 
 568   0.0000       0.997594        27.1459 
 569   0.0000       1.001578        27.2543 
 570   0.0000       1.002287        27.2736 
 571   0.0000       1.003608        27.3096 
 572   0.0000       1.008105        27.4319 
 573   0.0000       1.011259        27.5178 
 574   0.0000       1.013830        27.5877 
 575   0.0000       1.017891        27.6982 
 576   0.0000       1.018519        27.7153 
 577   0.0000       1.021324        27.7916 
 578   0.0000       1.025759        27.9123 
 579   0.0000       1.026506        27.9327 
 580   0.0000       1.030812        28.0498 
 581   0.0000       1.032837        28.1049 
 582   0.0000       1.034296        28.1446 
 583   0.0000       1.036333        28.2001 
 584   0.0000       1.039648        28.2903 
 585   0.0000       1.042077        28.3563 
 586   0.0000       1.044918        28.4337 
 587   0.0000       1.045856        28.4592 
 588   0.0000       1.053113        28.6567 
 589   0.0000       1.056169        28.7398 
 590   0.0000       1.057468        28.7752 
 591   0.0000       1.061792        28.8928 
 592   0.0000       1.065268        28.9874 
 593   0.0000       1.070560        29.1314 
 594   0.0000       1.074202        29.2305 
 595   0.0000       1.077122        29.3100 
 596   0.0000       1.078252        29.3407 
 597   0.0000       1.083167        29.4745 
 598   0.0000       1.085243        29.5310 
 599   0.0000       1.088543        29.6208 
 600   0.0000       1.088606        29.6225 
 601   0.0000       1.096849        29.8468 
 602   0.0000       1.100373        29.9427 
 603   0.0000       1.101666        29.9778 
 604   0.0000       1.105646        30.0861 
 605   0.0000       1.107731        30.1429 
 606   0.0000       1.109099        30.1801 
 607   0.0000       1.111008        30.2321 
 608   0.0000       1.111530        30.2463 
 609   0.0000       1.119334        30.4586 
 610   0.0000       1.123329        30.5673 
 611   0.0000       1.127430        30.6789 
 612   0.0000       1.129627        30.7387 
 613   0.0000       1.131805        30.7980 
 614   0.0000       1.133932        30.8559 
 615   0.0000       1.137367        30.9493 
 616   0.0000       1.138258        30.9736 
 617   0.0000       1.141425        31.0598 
 618   0.0000       1.145248        31.1638 
 619   0.0000       1.150435        31.3049 
 620   0.0000       1.151916        31.3452 
 621   0.0000       1.155146        31.4331 
 622   0.0000       1.157168        31.4881 
 623   0.0000       1.159114        31.5411 
 624   0.0000       1.162826        31.6421 
 625   0.0000       1.167205        31.7613 
 626   0.0000       1.168609        31.7995 
 627   0.0000       1.174502        31.9598 
 628   0.0000       1.175922        31.9985 
 629   0.0000       1.178506        32.0688 
 630   0.0000       1.184778        32.2395 
 631   0.0000       1.187921        32.3250 
 632   0.0000       1.189557        32.3695 
 633   0.0000       1.191869        32.4324 
 634   0.0000       1.192266        32.4432 
 635   0.0000       1.195514        32.5316 
 636   0.0000       1.199875        32.6502 
 637   0.0000       1.202400        32.7190 
 638   0.0000       1.203618        32.7521 
 639   0.0000       1.207257        32.8511 
 640   0.0000       1.209578        32.9143 
 641   0.0000       1.214615        33.0514 
 642   0.0000       1.219736        33.1907 
 643   0.0000       1.222749        33.2727 
 644   0.0000       1.228763        33.4363 
 645   0.0000       1.232389        33.5350 
 646   0.0000       1.235485        33.6193 
 647   0.0000       1.239241        33.7214 
 648   0.0000       1.240346        33.7515 
 649   0.0000       1.245647        33.8958 
 650   0.0000       1.246679        33.9239 
 651   0.0000       1.250914        34.0391 
 652   0.0000       1.255191        34.1555 
 653   0.0000       1.257233        34.2111 
 654   0.0000       1.260633        34.3036 
 655   0.0000       1.266550        34.4646 
 656   0.0000       1.268803        34.5259 
 657   0.0000       1.272678        34.6313 
 658   0.0000       1.273528        34.6545 
 659   0.0000       1.280544        34.8454 
 660   0.0000       1.283409        34.9233 
 661   0.0000       1.286758        35.0145 
 662   0.0000       1.289056        35.0770 
 663   0.0000       1.292324        35.1659 
 664   0.0000       1.296541        35.2807 
 665   0.0000       1.299176        35.3524 
 666   0.0000       1.300613        35.3915 
 667   0.0000       1.302372        35.4394 
 668   0.0000       1.307168        35.5698 
 669   0.0000       1.308076        35.5946 
 670   0.0000       1.312758        35.7220 
 671   0.0000       1.314390        35.7664 
 672   0.0000       1.318064        35.8663 
 673   0.0000       1.324152        36.0320 
 674   0.0000       1.326591        36.0984 
 675   0.0000       1.327910        36.1343 
 676   0.0000       1.329669        36.1821 
 677   0.0000       1.332547        36.2604 
 678   0.0000       1.336920        36.3795 
 679   0.0000       1.340027        36.4640 
 680   0.0000       1.342878        36.5416 
 681   0.0000       1.345986        36.6261 
 682   0.0000       1.350257        36.7424 
 683   0.0000       1.356682        36.9172 
 684   0.0000       1.358273        36.9605 
 685   0.0000       1.361062        37.0364 
 686   0.0000       1.367301        37.2062 
 687   0.0000       1.369317        37.2610 
 688   0.0000       1.372746        37.3543 
[...]
      f-3     :     0.000400
 49 H s       :     0.688516  s :     0.688516
      pz      :     0.080019  p :     0.304381
      px      :     0.086021
      py      :     0.138342
      dz2     :     0.003882  d :     0.029699
      dxz     :     0.001865
      dyz     :     0.007831
      dx2y2   :     0.008297
      dxy     :     0.007824
 50 C s       :     2.620277  s :     2.620277
      pz      :     0.885649  p :     2.643349
      px      :     0.846415
      py      :     0.911286
      dz2     :     0.142769  d :     0.636470
      dxz     :     0.143190
      dyz     :     0.091926
      dx2y2   :     0.154723
      dxy     :     0.103861
      f0      :     0.003128  f :     0.030870
      f+1     :     0.004564
      f-1     :     0.004998
      f+2     :     0.003875
      f-2     :     0.004986
      f+3     :     0.003651
      f-3     :     0.005669
 51 H s       :     0.677630  s :     0.677630
      pz      :     0.085221  p :     0.333198
      px      :     0.158980
      py      :     0.088997
      dz2     :     0.003124  d :     0.029735
      dxz     :     0.009250
      dyz     :     0.000202
      dx2y2   :     0.007504
      dxy     :     0.009655
 52 H s       :     0.696919  s :     0.696919
      pz      :     0.085691  p :     0.276335
      px      :     0.087418
      py      :     0.103225
      dz2     :     0.006404  d :     0.029475
      dxz     :     0.003909
      dyz     :     0.006643
      dx2y2   :     0.006876
      dxy     :     0.005643
 53 C s       :     2.622400  s :     2.622400
      pz      :     0.907699  p :     2.678219
      px      :     0.906111
      py      :     0.864410
      dz2     :     0.095796  d :     0.550926
      dxz     :     0.070921
      dyz     :     0.143823
      dx2y2   :     0.112704
      dxy     :     0.127681
      f0      :     0.004791  f :     0.030822
      f+1     :     0.001045
      f-1     :     0.005219
      f+2     :     0.004988
      f-2     :     0.003869
      f+3     :     0.005238
      f-3     :     0.005672
 54 H s       :     0.647891  s :     0.647891
      pz      :     0.149028  p :     0.398070
      px      :     0.141099
      py      :     0.107943
      dz2     :     0.006541  d :     0.028307
      dxz     :     0.006860
      dyz     :     0.003252
      dx2y2   :     0.006241
      dxy     :     0.005412
 55 H s       :     0.685959  s :     0.685959
      pz      :     0.113907  p :     0.272996
      px      :     0.069515
      py      :     0.089575
      dz2     :     0.009753  d :     0.029453
      dxz     :     0.007619
      dyz     :     0.007940
      dx2y2   :     0.002449
      dxy     :     0.001692
 56 H s       :     0.675300  s :     0.675300
      pz      :     0.094299  p :     0.327226
      px      :     0.088552
      py      :     0.144374
      dz2     :     0.002805  d :     0.029972
      dxz     :     0.000366
      dyz     :     0.009755
      dx2y2   :     0.007999
      dxy     :     0.009047
 57 C s       :     2.639380  s :     2.639380
      pz      :     0.904607  p :     2.679521
      px      :     0.887845
      py      :     0.887069
      dz2     :     0.167254  d :     0.978307
      dxz     :     0.193541
      dyz     :     0.211087
      dx2y2   :     0.208442
      dxy     :     0.197984
      f0      :     0.004471  f :     0.041708
      f+1     :     0.005131
      f-1     :     0.004508
      f+2     :     0.007641
      f-2     :     0.004973
      f+3     :     0.008076
      f-3     :     0.006908
 58 H s       :     0.694428  s :     0.694428
      pz      :     0.121878  p :     0.279019
      px      :     0.078634
      py      :     0.078507
      dz2     :     0.009419  d :     0.029504
      dxz     :     0.008524
      dyz     :     0.008599
      dx2y2   :     0.001813
      dxy     :     0.001150
 59 H s       :     0.687550  s :     0.687550
      pz      :     0.097698  p :     0.303168
      px      :     0.126028
      py      :     0.079442
      dz2     :     0.004627  d :     0.029694
      dxz     :     0.007949
      dyz     :     0.001860
      dx2y2   :     0.007596
      dxy     :     0.007661
 60 H s       :     0.677387  s :     0.677387
      pz      :     0.113863  p :     0.314735
      px      :     0.119653
      py      :     0.081219
      dz2     :     0.006768  d :     0.029491
      dxz     :     0.006539
      dyz     :     0.004020
      dx2y2   :     0.006410
      dxy     :     0.005754
 61 C s       :     2.622715  s :     2.622715
      pz      :     0.876920  p :     2.676595
      px      :     0.909698
      py      :     0.889977
      dz2     :     0.155367  d :     0.555563
      dxz     :     0.070796
      dyz     :     0.130645
      dx2y2   :     0.089926
      dxy     :     0.108829
      f0      :     0.004022  f :     0.030821
      f+1     :     0.005145
      f-1     :     0.006594
      f+2     :     0.004620
      f-2     :     0.003633
      f+3     :     0.004282
      f-3     :     0.002525
 62 H s       :     0.674610  s :     0.674610
      pz      :     0.083881  p :     0.334200
      px      :     0.161914
      py      :     0.088406
      dz2     :     0.002738  d :     0.029517
      dxz     :     0.008323
      dyz     :     0.001092
      dx2y2   :     0.007898
      dxy     :     0.009467
 63 H s       :     0.693316  s :     0.693316
      pz      :     0.077077  p :     0.279822
      px      :     0.091078
      py      :     0.111667
      dz2     :     0.002650  d :     0.029608
      dxz     :     0.002594
      dyz     :     0.007057
      dx2y2   :     0.009634
      dxy     :     0.007673
 64 H s       :     0.688362  s :     0.688362
      pz      :     0.109724  p :     0.305252
      px      :     0.082686
      py      :     0.112842
      dz2     :     0.009538  d :     0.029583
      dxz     :     0.006774
      dyz     :     0.007810
      dx2y2   :     0.002538
      dxy     :     0.002923
 65 C s       :     2.627226  s :     2.627226
      pz      :     0.877154  p :     2.680601
      px      :     0.915890
      py      :     0.887558
      dz2     :     0.140917  d :     0.537597
      dxz     :     0.089702
      dyz     :     0.121433
      dx2y2   :     0.082989
      dxy     :     0.102556
      f0      :     0.004516  f :     0.030592
      f+1     :     0.005025
      f-1     :     0.006024
      f+2     :     0.003659
      f-2     :     0.004771
      f+3     :     0.004707
      f-3     :     0.001891
 66 H s       :     0.680738  s :     0.680738
      pz      :     0.076980  p :     0.307877
      px      :     0.146272
      py      :     0.084625
      dz2     :     0.002944  d :     0.029553
      dxz     :     0.008846
      dyz     :     0.001117
      dx2y2   :     0.007421
      dxy     :     0.009224
 67 H s       :     0.688862  s :     0.688862
      pz      :     0.113799  p :     0.312540
      px      :     0.087735
      py      :     0.111006
      dz2     :     0.009081  d :     0.029632
      dxz     :     0.006797
      dyz     :     0.007182
      dx2y2   :     0.003483
      dxy     :     0.003090
 68 H s       :     0.695968  s :     0.695968
      pz      :     0.078138  p :     0.279837
      px      :     0.089273
      py      :     0.112426
      dz2     :     0.002953  d :     0.029481
      dxz     :     0.002220
      dyz     :     0.007213
      dx2y2   :     0.009277
      dxy     :     0.007818


                      *****************************
                      * MAYER POPULATION ANALYSIS *
                      *****************************

  NA   - Mulliken gross atomic population
  ZA   - Total nuclear charge
  QA   - Mulliken gross atomic charge
  VA   - Mayer's total valence
  BVA  - Mayer's bonded valence
  FA   - Mayer's free valence

  ATOM       NA         ZA         QA         VA         BVA        FA
  0 W     15.8386    14.0000    -1.8386     5.6015     5.6015    -0.0000
  1 C      5.3742     6.0000     0.6258     4.2297     4.2297    -0.0000
  2 O      8.3953     8.0000    -0.3953     2.1246     2.1246     0.0000
  3 C      4.9409     6.0000     1.0591     3.8341     3.8341    -0.0000
  4 O      8.4820     8.0000    -0.4820     2.1059     2.1059    -0.0000
  5 C      5.3490     6.0000     0.6510     3.8665     3.8665    -0.0000
  6 O      8.4068     8.0000    -0.4068     2.2017     2.2017     0.0000
  7 P     15.4112    15.0000    -0.4112     4.2372     4.2372    -0.0000
  8 C      5.5063     6.0000     0.4937     4.2147     4.2147    -0.0000
  9 H      0.7151     1.0000     0.2849     0.6105     0.6105    -0.0000
 10 C      5.2323     6.0000     0.7677     3.5770     3.5770     0.0000
 11 H      0.8952     1.0000     0.1048     0.8595     0.8595     0.0000
 12 C      5.2138     6.0000     0.7862     3.6906     3.6906     0.0000
 13 H      0.8434     1.0000     0.1566     0.7894     0.7894     0.0000
 14 C      4.9515     6.0000     1.0485     2.6880     2.6880    -0.0000
 15 P     15.7104    15.0000    -0.7104     4.4276     4.4276     0.0000
 16 H      0.6548     1.0000     0.3452     0.6674     0.6674     0.0000
 17 H      0.7542     1.0000     0.2458     0.7898     0.7898     0.0000
 18 C      5.2656     6.0000     0.7344     3.3370     3.3370    -0.0000
 19 H      0.6963     1.0000     0.3037     0.6516     0.6516    -0.0000
 20 C      6.4698     6.0000    -0.4698     3.9938     3.9938    -0.0000
 21 H      0.8725     1.0000     0.1275     0.9833     0.9833    -0.0000
 22 H      0.9896     1.0000     0.0104     1.0945     1.0945    -0.0000
 23 H      1.0441     1.0000    -0.0441     1.1796     1.1796    -0.0000
 24 C      6.5078     6.0000    -0.5078     4.0438     4.0438     0.0000
 25 H      1.0112     1.0000    -0.0112     1.1172     1.1172     0.0000
 26 H      0.8639     1.0000     0.1361     1.0070     1.0070     0.0000
 27 H      0.9375     1.0000     0.0625     1.0817     1.0817     0.0000
 28 C      6.5989     6.0000    -0.5989     4.0972     4.0972     0.0000
 29 H      0.9071     1.0000     0.0929     1.0439     1.0439     0.0000
 30 H      0.8739     1.0000     0.1261     1.0049     1.0049     0.0000
 31 H      0.9723     1.0000     0.0277     1.0817     1.0817     0.0000
 32 C      6.3551     6.0000    -0.3551     3.8390     3.8390     0.0000
 33 H      0.8749     1.0000     0.1251     0.9765     0.9765    -0.0000
 34 H      1.0623     1.0000    -0.0623     1.1764     1.1764     0.0000
 35 H      1.0062     1.0000    -0.0062     1.1065     1.1065     0.0000
 36 C      6.4822     6.0000    -0.4822     4.0400     4.0400     0.0000
 37 H      0.9362     1.0000     0.0638     1.0725     1.0725     0.0000
 38 H      0.8883     1.0000     0.1117     1.0144     1.0144    -0.0000
 39 H      1.0549     1.0000    -0.0549     1.0726     1.0726    -0.0000
 40 C      6.3759     6.0000    -0.3759     4.0253     4.0253     0.0000
 41 H      1.1471     1.0000    -0.1471     1.2044     1.2044     0.0000
 42 H      0.8845     1.0000     0.1155     1.0390     1.0390     0.0000
 43 H      0.9180     1.0000     0.0820     1.0814     1.0814     0.0000
 44 C      6.6508     6.0000    -0.6508     4.0533     4.0533    -0.0000
 45 H      0.9030     1.0000     0.0970     1.0511     1.0511     0.0000
 46 H      0.9268     1.0000     0.0732     1.0438     1.0438    -0.0000
 47 H      0.8853     1.0000     0.1147     1.0221     1.0221    -0.0000
 48 C      6.3107     6.0000    -0.3107     3.8664     3.8664    -0.0000
 49 H      1.0272     1.0000    -0.0272     1.0986     1.0986    -0.0000
 50 C      6.4213     6.0000    -0.4213     5.0901     5.0901     0.0000
 51 H      1.0242     1.0000    -0.0242     1.1222     1.1222    -0.0000
 52 H      0.8801     1.0000     0.1199     1.0018     1.0018     0.0000
 53 C      6.5470     6.0000    -0.5470     3.9666     3.9666     0.0000
 54 H      1.3229     1.0000    -0.3229     1.5486     1.5486     0.0000
 55 H      0.9214     1.0000     0.0786     0.9597     0.9597     0.0000
 56 H      0.9368     1.0000     0.0632     1.0652     1.0652     0.0000
 57 C      5.1785     6.0000     0.8215     3.3689     3.3689    -0.0000
 58 H      0.8721     1.0000     0.1279     1.0135     1.0135    -0.0000
 59 H      0.9353     1.0000     0.0647     1.0233     1.0233    -0.0000
 60 H      0.9794     1.0000     0.0206     1.1095     1.1095     0.0000
 61 C      6.4318     6.0000    -0.4318     4.0272     4.0272    -0.0000
 62 H      1.0355     1.0000    -0.0355     1.1423     1.1423    -0.0000
 63 H      0.8517     1.0000     0.1483     0.9769     0.9769    -0.0000
 64 H      0.9594     1.0000     0.0406     1.0485     1.0485    -0.0000
 65 C      6.4735     6.0000    -0.4735     4.1800     4.1800    -0.0000
 66 H      0.9938     1.0000     0.0062     1.1167     1.1167     0.0000
 67 H      1.0034     1.0000    -0.0034     1.1136     1.1136    -0.0000
 68 H      0.8575     1.0000     0.1425     0.9792     0.9792    -0.0000

  Mayer bond orders larger than 0.100000
B(  0-W ,  1-C ) :   1.2460 B(  0-W ,  3-C ) :   1.7130 B(  0-W ,  4-O ) :   0.1186 
B(  0-W ,  5-C ) :   0.7640 B(  0-W ,  7-P ) :  -0.1722 B(  0-W , 10-C ) :   0.1600 
B(  0-W , 14-C ) :   0.1090 B(  0-W , 15-P ) :   0.3721 B(  0-W , 16-H ) :   0.1278 
B(  0-W , 18-C ) :   0.2422 B(  0-W , 19-H ) :  -0.1275 B(  0-W , 24-C ) :   0.1428 
B(  0-W , 50-C ) :   0.1647 B(  0-W , 54-H ) :   0.1690 B(  1-C ,  2-O ) :   1.9755 
B(  1-C ,  5-C ) :   0.5398 B(  1-C ,  7-P ) :   0.4313 B(  1-C , 15-P ) :   0.2290 
B(  1-C , 50-C ) :   0.1189 B(  1-C , 54-H ) :  -0.1188 B(  3-C ,  4-O ) :   1.8851 
B(  3-C ,  5-C ) :   0.2219 B(  3-C , 15-P ) :   0.1895 B(  5-C ,  6-O ) :   2.0391 
B(  5-C ,  7-P ) :   0.3769 B(  5-C , 14-C ) :  -0.1249 B(  5-C , 15-P ) :   0.1510 
B(  7-P ,  8-C ) :   1.0888 B(  7-P , 10-C ) :   0.7224 B(  7-P , 12-C ) :   0.8083 
B(  7-P , 15-P ) :  -0.2212 B(  7-P , 24-C ) :   0.1704 B(  7-P , 28-C ) :   0.1937 
B(  7-P , 40-C ) :   0.1155 B(  8-C ,  9-H ) :   0.7694 B(  8-C , 10-C ) :   0.3251 
B(  8-C , 12-C ) :   0.3322 B(  8-C , 36-C ) :   0.8211 B(  8-C , 39-H ) :  -0.1005 
B(  8-C , 40-C ) :   0.8720 B( 10-C , 11-H ) :   0.8524 B( 10-C , 12-C ) :   0.2982 
B( 10-C , 20-C ) :   0.7541 B( 10-C , 24-C ) :   0.6462 B( 10-C , 25-H ) :  -0.1016 
B( 10-C , 40-C ) :   0.1610 B( 12-C , 13-H ) :   0.8073 B( 12-C , 28-C ) :   0.6647 
B( 12-C , 31-H ) :  -0.1008 B( 12-C , 32-C ) :   0.8026 B( 12-C , 36-C ) :   0.1972 
B( 14-C , 15-P ) :   0.2529 B( 14-C , 17-H ) :   0.8065 B( 14-C , 18-C ) :   0.2596 
B( 14-C , 44-C ) :   0.6178 B( 14-C , 48-C ) :   0.7486 B( 14-C , 57-C ) :   0.2442 
B( 14-C , 61-C ) :   0.1131 B( 15-P , 16-H ) :  -0.2132 B( 15-P , 18-C ) :   0.8775 
B( 15-P , 44-C ) :   0.2354 B( 15-P , 48-C ) :   0.1336 B( 15-P , 50-C ) :   0.4914 
B( 15-P , 53-C ) :   0.1098 B( 15-P , 57-C ) :   0.7694 B( 15-P , 61-C ) :   0.2024 
B( 15-P , 62-H ) :   0.1204 B( 15-P , 65-C ) :   0.2981 B( 16-H , 57-C ) :   0.7770 
B( 18-C , 19-H ) :   0.6942 B( 18-C , 57-C ) :   0.2483 B( 18-C , 61-C ) :   0.5875 
B( 18-C , 62-H ) :  -0.1086 B( 18-C , 65-C ) :   0.7384 B( 20-C , 21-H ) :   0.9594 
B( 20-C , 22-H ) :   1.0428 B( 20-C , 23-H ) :   0.9399 B( 20-C , 24-C ) :   0.1727 
B( 22-H , 23-H ) :   0.1100 B( 24-C , 25-H ) :   1.0325 B( 24-C , 26-H ) :   1.0100 
B( 24-C , 27-H ) :   0.9232 B( 28-C , 29-H ) :   0.9127 B( 28-C , 30-H ) :   1.0138 
B( 28-C , 31-H ) :   1.0495 B( 28-C , 32-C ) :   0.1562 B( 32-C , 33-H ) :   0.9595 
B( 32-C , 34-H ) :   0.8944 B( 32-C , 35-H ) :   1.0072 B( 34-H , 35-H ) :   0.1227 
B( 36-C , 37-H ) :   0.9199 B( 36-C , 38-H ) :   0.9816 B( 36-C , 39-H ) :   0.9791 
B( 37-H , 39-H ) :   0.1093 B( 40-C , 41-H ) :   1.0008 B( 40-C , 42-H ) :   0.9512 
B( 40-C , 43-H ) :   0.8778 B( 41-H , 42-H ) :   0.1007 B( 41-H , 43-H ) :   0.1314 
B( 44-C , 45-H ) :   0.9529 B( 44-C , 46-H ) :   1.0735 B( 44-C , 47-H ) :   1.0115 
B( 44-C , 48-C ) :   0.1129 B( 48-C , 49-H ) :   0.9964 B( 48-C , 51-H ) :   0.9556 
B( 48-C , 52-H ) :   0.9810 B( 49-H , 51-H ) :   0.1050 B( 50-C , 53-C ) :   0.2062 
B( 50-C , 54-H ) :   1.3757 B( 50-C , 55-H ) :   0.8330 B( 50-C , 56-H ) :   0.9329 
B( 50-C , 57-C ) :   0.7987 B( 53-C , 57-C ) :   0.6548 B( 53-C , 58-H ) :   0.9646 
B( 53-C , 59-H ) :   1.0207 B( 53-C , 60-H ) :   1.0181 B( 54-H , 56-H ) :   0.1300 
B( 61-C , 62-H ) :   1.0211 B( 61-C , 63-H ) :   0.9609 B( 61-C , 64-H ) :   0.9901 
B( 61-C , 65-C ) :   0.1587 B( 62-H , 64-H ) :   0.1090 B( 65-C , 66-H ) :   1.0266 
B( 65-C , 67-H ) :   0.9433 B( 65-C , 68-H ) :   0.9596 B( 66-H , 67-H ) :   0.1203 


-------
TIMINGS
-------

Total SCF time: 0 days 2 hours 41 min 53 sec 

Total time                  ....    9713.846 sec
Sum of individual times     ....    9707.777 sec  ( 99.9%)

Fock matrix formation       ....    9677.976 sec  ( 99.6%)
  XC integration            ....      33.457 sec  (  0.3% of F)
    Basis function eval.    ....       5.368 sec  ( 16.0% of XC)
    Density eval.           ....      15.061 sec  ( 45.0% of XC)
    XC-Functional eval.     ....       0.242 sec  (  0.7% of XC)
    XC-Potential eval.      ....       8.035 sec  ( 24.0% of XC)
Diagonalization             ....       8.379 sec  (  0.1%)
Density matrix formation    ....       0.586 sec  (  0.0%)
Population analysis         ....       1.024 sec  (  0.0%)
Initial guess               ....       5.808 sec  (  0.1%)
Orbital Transformation      ....       0.000 sec  (  0.0%)
Orbital Orthonormalization  ....       0.000 sec  (  0.0%)
DIIS solution               ....      11.852 sec  (  0.1%)
Grid generation             ....       2.152 sec  (  0.0%)

-------------------------   --------------------
FINAL SINGLE POINT ENERGY     -1801.154668857042
-------------------------   --------------------


                            ***************************************
                            *     ORCA property calculations      *
                            ***************************************

                                    ---------------------
                                    Active property flags
                                    ---------------------
   (+) Dipole Moment


------------------------------------------------------------------------------
                       ORCA ELECTRIC PROPERTIES CALCULATION
------------------------------------------------------------------------------

Dipole Moment Calculation                       ... on
Quadrupole Moment Calculation                   ... off
Polarizability Calculation                      ... off
GBWName                                         ... MOR09_ed07.gbw
Electron density file                           ... MOR09_ed07.scfp
The origin for moment calculation is the CENTER OF MASS  = ( 0.024778,  0.027164 -0.048519)

-------------
DIPOLE MOMENT
-------------
                                X             Y             Z
Electronic contribution:     17.80156      16.07884     -19.95351
Nuclear contribution   :    -17.42159     -16.73751      21.91193
                        -----------------------------------------
Total Dipole Moment    :      0.37996      -0.65866       1.95841
                        -----------------------------------------
Magnitude (a.u.)       :      2.10086
Magnitude (Debye)      :      5.33995



--------------------
Rotational spectrum 
--------------------
 
Rotational constants in cm-1:     0.007992     0.003859     0.003786 
Rotational constants in MHz :   239.602072   115.683770   113.510152 

 Dipole components along the rotational axes: 
x,y,z [a.u.] :     0.381069    -0.494753     2.005893 
x,y,z [Debye]:     0.968601    -1.257563     5.098575 

 

Timings for individual modules:

Sum of individual times         ...     9728.512 sec (= 162.142 min)
GTO integral calculation        ...       14.119 sec (=   0.235 min)   0.1 %
SCF iterations                  ...     9714.392 sec (= 161.907 min)  99.9 %
                             ****ORCA TERMINATED NORMALLY****
TOTAL RUN TIME: 0 days 2 hours 42 minutes 9 seconds 436 msec
