
                                 *****************
                                 * O   R   C   A *
                                 *****************

           --- An Ab Initio, DFT and Semiempirical electronic structure package ---

                  #######################################################
                  #                        -***-                        #
                  #          Department of theory and spectroscopy      #
                  #               Directorship: Frank Neese             #
                  #        Max Planck Institute fuer Kohlenforschung    #
                  #                Kaiser Wilhelm Platz 1               #
                  #                 D-45470 Muelheim/Ruhr               #
                  #                      Germany                        #
                  #                                                     #
                  #                  All rights reserved                #
                  #                        -***-                        #
                  #######################################################


                         Program Version 4.2.0 -  RELEASE  -


 With contributions from (in alphabetic order):
   Daniel Aravena         : Magnetic Suceptibility
   Michael Atanasov       : Ab Initio Ligand Field Theory (pilot matlab implementation)
   Alexander A. Auer      : GIAO ZORA, VPT2
   Ute Becker             : Parallelization
   Giovanni Bistoni       : ED, misc. LED, open-shell LED, HFLED
   Martin Brehm           : Molecular dynamics
   Dmytro Bykov           : SCF Hessian
   Vijay G. Chilkuri      : MRCI spin determinant printing, contributions to CSF-ICE
   Dipayan Datta          : RHF DLPNO-CCSD density
   Achintya Kumar Dutta   : EOM-CC, STEOM-CC
   Dmitry Ganyushin       : Spin-Orbit,Spin-Spin,Magnetic field MRCI
   Miquel Garcia          : C-PCM Hessian, Gaussian charge scheme
   Yang Guo               : DLPNO-NEVPT2, CIM, IAO-localization
   Andreas Hansen         : Spin unrestricted coupled pair/coupled cluster methods
   Benjamin Helmich-Paris : CASSCF linear response (MC-RPA)
   Lee Huntington         : MR-EOM, pCC
   Robert Izsak           : Overlap fitted RIJCOSX, COSX-SCS-MP3, EOM
   Christian Kollmar      : KDIIS, OOCD, Brueckner-CCSD(T), CCSD density
   Simone Kossmann        : Meta GGA functionals, TD-DFT gradient, OOMP2, MP2 Hessian
   Martin Krupicka        : AUTO-CI
   Lucas Lang             : DCDCAS
   Dagmar Lenk            : GEPOL surface, SMD
   Dimitrios Liakos       : Extrapolation schemes; Compound Job, initial MDCI parallelization
   Dimitrios Manganas     : Further ROCIS development; embedding schemes
   Dimitrios Pantazis     : SARC Basis sets
   Taras Petrenko         : DFT Hessian,TD-DFT gradient, ASA, ECA, R-Raman, ABS, FL, XAS/XES, NRVS
   Peter Pinski           : DLPNO-MP2, DLPNO-MP2 Gradient
   Christoph Reimann      : Effective Core Potentials
   Marius Retegan         : Local ZFS, SOC
   Christoph Riplinger    : Optimizer, TS searches, QM/MM, DLPNO-CCSD(T), (RO)-DLPNO pert. Triples
   Tobias Risthaus        : Range-separated hybrids, TD-DFT gradient, RPA, STAB
   Michael Roemelt        : Original ROCIS implementation
   Masaaki Saitow         : Open-shell DLPNO-CCSD energy and density
   Barbara Sandhoefer     : DKH picture change effects
   Avijit Sen             : IP-ROCIS
   Kantharuban Sivalingam : CASSCF convergence, NEVPT2, FIC-MRCI
   Bernardo de Souza      : ESD, SOC TD-DFT
   Georgi Stoychev        : AutoAux, RI-MP2 NMR
   Willem Van den Heuvel  : Paramagnetic NMR
   Boris Wezisla          : Elementary symmetry handling
   Frank Wennmohs         : Technical directorship


 We gratefully acknowledge several colleagues who have allowed us to
 interface, adapt or use parts of their codes:
   Stefan Grimme, W. Hujo, H. Kruse,             : VdW corrections, initial TS optimization,
                  C. Bannwarth                     DFT functionals, gCP, sTDA/sTD-DF
   Ed Valeev, F. Pavosevic, A. Kumar             : LibInt (2-el integral package), F12 methods
   Garnet Chan, S. Sharma, J. Yang, R. Olivares  : DMRG
   Ulf Ekstrom                                   : XCFun DFT Library
   Mihaly Kallay                                 : mrcc  (arbitrary order and MRCC methods)
   Andreas Klamt, Michael Diedenhofen            : otool_cosmo (COSMO solvation model)
   Jiri Pittner, Ondrej Demel                    : Mk-CCSD
   Frank Weinhold                                : gennbo (NPA and NBO analysis)
   Christopher J. Cramer and Donald G. Truhlar   : smd solvation model
   Lars Goerigk                                  : TD-DFT with DH, B97 family of functionals
   V. Asgeirsson, H. Jonsson                     : NEB implementation
   FAccTs GmbH                                   : IRC, NEB, NEB-TS, Multilevel, MM, QM/MM, CI optimization
   S Lehtola, MJT Oliveira, MAL Marques          : LibXC Library


 Your calculation uses the libint2 library for the computation of 2-el integrals
 For citations please refer to: http://libint.valeyev.net

 Your ORCA version has been built with support for libXC version: 4.2.3
 For citations please refer to: https://tddft.org/programs/libxc/

 This ORCA versions uses:
   CBLAS   interface :  Fast vector & matrix operations
   LAPACKE interface :  Fast linear algebra routines
   SCALAPACK package :  Parallel linear algebra routines


Your calculation utilizes the DFT-NL dispersion correction.
Cite in your paper:
Vydrov, O. A.; Van Voorhis, T. J. Chem. Phys. 2010, 133, 244103
Hujo, W.; Grimme, S. J. Chem. Theory Comput. 2011, 7, 3866 
   

----- Orbital basis set information -----
Your calculation utilizes the basis: def2-TZVPPD
   F. Weigend and R. Ahlrichs, Phys. Chem. Chem. Phys. 7, 3297 (2005).
   D. Rappoport and F. Furche, J. Chem. Phys. 133 134105 (2010).

----- AuxJK basis set information -----
Your calculation utilizes the auxiliary basis: def2/JK
   H-Ba, Hf-Rn: F. Weigend, J. Comput. Chem. 29, 167 (2008).

================================================================================
                                        WARNINGS
                       Please study these warnings very carefully!
================================================================================


INFO   : the flag for use of LIBINT has been found!

================================================================================
                                       INPUT FILE
================================================================================
NAME = MOR08_ed05.in
|  1> #
|  2> # MOR08_ed05 wB97X-V/Def2-TZVPPD
|  3> #
|  4> ! wb97x-v def2-tzvppd def2/jk grid4 nofinalgrid
|  5> 
|  6> *xyz 0 1
|  7> Mn      -0.000015    0.000034   -0.156112 
|  8> O       -2.966556    0.069032   -0.568565 
|  9> C       -1.835048    0.042703   -0.376221 
| 10> C        0.000106   -0.000266    1.691489 
| 11> O        0.000196   -0.000501    2.842648 
| 12> C        1.835004   -0.042558   -0.376374 
| 13> O        2.966501   -0.068795   -0.568793 
| 14> C        0.042608    1.834986   -0.376689 
| 15> O        0.068875    2.966413   -0.569532 
| 16> C       -0.042655   -1.834886   -0.377054 
| 17> O       -0.068962   -2.966280   -0.570073 
| 18> H       -0.000145    0.000318   -1.733571 
| 19> *
| 20> 
| 21> %maxcore 5000
| 22> 
| 23> %pal
| 24> nprocs = 24
| 25> end
| 26> 
| 27> 
| 28>                          ****END OF INPUT****
================================================================================

                       ****************************
                       * Single Point Calculation *
                       ****************************

---------------------------------
CARTESIAN COORDINATES (ANGSTROEM)
---------------------------------
  Mn    -0.000015    0.000034   -0.156112
  O     -2.966556    0.069032   -0.568565
  C     -1.835048    0.042703   -0.376221
  C      0.000106   -0.000266    1.691489
  O      0.000196   -0.000501    2.842648
  C      1.835004   -0.042558   -0.376374
  O      2.966501   -0.068795   -0.568793
  C      0.042608    1.834986   -0.376689
  O      0.068875    2.966413   -0.569532
  C     -0.042655   -1.834886   -0.377054
  O     -0.068962   -2.966280   -0.570073
  H     -0.000145    0.000318   -1.733571

----------------------------
CARTESIAN COORDINATES (A.U.)
----------------------------
  NO LB      ZA    FRAG     MASS         X           Y           Z
   0 Mn   25.0000    0    54.940   -0.000028    0.000064   -0.295009
   1 O     8.0000    0    15.999   -5.605978    0.130452   -1.074432
   2 C     6.0000    0    12.011   -3.467738    0.080697   -0.710955
   3 C     6.0000    0    12.011    0.000200   -0.000503    3.196451
   4 O     8.0000    0    15.999    0.000370   -0.000947    5.371826
   5 C     6.0000    0    12.011    3.467655   -0.080423   -0.711244
   6 O     8.0000    0    15.999    5.605874   -0.130004   -1.074863
   7 C     6.0000    0    12.011    0.080517    3.467621   -0.711839
   8 O     8.0000    0    15.999    0.130155    5.605708   -1.076260
   9 C     6.0000    0    12.011   -0.080606   -3.467432   -0.712529
  10 O     8.0000    0    15.999   -0.130319   -5.605457   -1.077282
  11 H     1.0000    0     1.008   -0.000274    0.000601   -3.275974

--------------------------------
INTERNAL COORDINATES (ANGSTROEM)
--------------------------------
 Mn     0   0   0     0.000000000000     0.00000000     0.00000000
 O      1   0   0     2.995871109693     0.00000000     0.00000000
 C      2   1   0     1.148041717291     1.73161333     0.00000000
 C      1   2   3     1.847601028318    97.91722965     0.00000000
 O      4   1   2     1.151159027505   179.99749875   108.23266519
 C      1   2   3     1.848681735040   165.24395151   179.99165883
 O      6   1   4     1.148041337557   177.19411049   180.01700720
 C      1   2   3     1.848653503327    89.05705601   263.19308037
 O      8   1   2     1.148044177838   177.18260780   277.87169018
 C      1   2   3     1.848665719746    89.05837728    96.78041205
 O     10   1   2     1.148042148985   177.18502860    82.12677139
 H      1   2   3     1.577459030922    82.08177762   179.99122719

---------------------------
INTERNAL COORDINATES (A.U.)
---------------------------
 Mn     0   0   0     0.000000000000     0.00000000     0.00000000
 O      1   0   0     5.661375929847     0.00000000     0.00000000
 C      2   1   0     2.169484435997     1.73161333     0.00000000
 C      1   2   3     3.491459948272    97.91722965     0.00000000
 O      4   1   2     2.175375298575   179.99749875   108.23266519
 C      1   2   3     3.493502188007   165.24395151   179.99165883
 O      6   1   4     2.169483718403   177.19411049   180.01700720
 C      1   2   3     3.493448837802    89.05705601   263.19308037
 O      8   1   2     2.169489085756   177.18260780   277.87169018
 C      1   2   3     3.493471923488    89.05837728    96.78041205
 O     10   1   2     2.169485251780   177.18502860    82.12677139
 H      1   2   3     2.980965555923    82.08177762   179.99122719

---------------------
BASIS SET INFORMATION
---------------------
There are 4 groups of distinct atoms

 Group   1 Type Mn  : 17s13p7d2f1g contracted to 6s6p4d2f1g pattern {842111/631111/4111/11/1}
 Group   2 Type O   : 12s7p3d1f contracted to 6s4p3d1f pattern {621111/4111/111/1}
 Group   3 Type C   : 12s6p3d1f contracted to 6s3p3d1f pattern {621111/411/111/1}
 Group   4 Type H   : 5s3p1d contracted to 3s3p1d pattern {311/111/1}

Atom   0Mn   basis set group =>   1
Atom   1O    basis set group =>   2
Atom   2C    basis set group =>   3
Atom   3C    basis set group =>   3
Atom   4O    basis set group =>   2
Atom   5C    basis set group =>   3
Atom   6O    basis set group =>   2
Atom   7C    basis set group =>   3
Atom   8O    basis set group =>   2
Atom   9C    basis set group =>   3
Atom  10O    basis set group =>   2
Atom  11H    basis set group =>   4
----------------------------------
AUXILIARY/JK BASIS SET INFORMATION
----------------------------------
There are 4 groups of distinct atoms

 Group   1 Type Mn  : 19s14p12d10f7g3h1i contracted to 16s13p11d9f5g3h1i pattern {4111111111111111/2111111111111/21111111111/211111111/31111/111/1}
 Group   2 Type O   : 14s10p6d2f1g contracted to 10s8p4d2f1g pattern {5111111111/31111111/3111/11/1}
 Group   3 Type C   : 14s10p6d2f1g contracted to 10s8p5d1f1g pattern {5111111111/31111111/21111/2/1}
 Group   4 Type H   : 4s2p2d contracted to 2s2p2d pattern {31/11/11}

Atom   0Mn   basis set group =>   1
Atom   1O    basis set group =>   2
Atom   2C    basis set group =>   3
Atom   3C    basis set group =>   3
Atom   4O    basis set group =>   2
Atom   5C    basis set group =>   3
Atom   6O    basis set group =>   2
Atom   7C    basis set group =>   3
Atom   8O    basis set group =>   2
Atom   9C    basis set group =>   3
Atom  10O    basis set group =>   2
Atom  11H    basis set group =>   4


           ************************************************************
           *        Program running with 24 parallel MPI-processes    *
           *              working on a common directory               *
           ************************************************************
------------------------------------------------------------------------------
                           ORCA GTO INTEGRAL CALCULATION
------------------------------------------------------------------------------

                         BASIS SET STATISTICS AND STARTUP INFO

 # of primitive gaussian shells          ...  274
 # of primitive gaussian functions       ...  668
 # of contracted shells                  ...  161
 # of contracted basis functions         ...  469
 Highest angular momentum                ...    4
 Maximum contraction depth               ...    8
 Integral package used                   ... LIBINT
 Integral threshhold            Thresh   ...  1.000e-10
 Primitive cut-off              TCut     ...  1.000e-11


------------------------------ INTEGRAL EVALUATION ----------------------------


 * One electron integrals 
 Pre-screening matrix                    ... done
 Shell pair data                         ... done (   0.004 sec)



           ************************************************************
           *        Program running with 24 parallel MPI-processes    *
           *              working on a common directory               *
           ************************************************************
-------------------------------------------------------------------------------
                                 ORCA SCF
-------------------------------------------------------------------------------

------------
SCF SETTINGS
------------
Hamiltonian:
 Density Functional     Method          .... DFT(GTOs)
 Exchange Functional    Exchange        .... WB97X-V
 Correlation Functional Correlation     .... WB97X-V
 Gradients option       PostSCFGGA      .... off
 Hybrid DFT is turned on
   Fraction HF Exchange ScalHFX         ....  0.167000
   Scaling of DF-GGA-X  ScalDFX         ....  0.000000
   Scaling of DF-GGA-C  ScalDFC         ....  1.000000
   Scaling of DF-LDA-C  ScalLDAC        ....  1.000000
   Perturbative correction              ....  0.000000
   Density functional embedding theory  .... OFF
 Long-range corrected/Screened/Range-Separated Hybrid DFT is turned on
   Amount of maximum screened exact exchange              ....  0.833000
   Range separation parameter mu (erf(mu*r12)/r12)        ....  0.300000
   NL short-range parameter             ....  6.000000
   NL long-range parameter              ....  0.010000


General Settings:
 Integral files         IntName         .... MOR08_ed05
 Hartree-Fock type      HFTyp           .... RHF
 Total Charge           Charge          ....    0
 Multiplicity           Mult            ....    1
 Number of Electrons    NEL             ....   96
 Basis Dimension        Dim             ....  469
 Nuclear Repulsion      ENuc            ....    797.8872903274 Eh

Convergence Acceleration:
 DIIS                   CNVDIIS         .... on
   Start iteration      DIISMaxIt       ....    12
   Startup error        DIISStart       ....  0.200000
   # of expansion vecs  DIISMaxEq       ....     5
   Bias factor          DIISBfac        ....   1.050
   Max. coefficient     DIISMaxC        ....  10.000
 Newton-Raphson         CNVNR           .... off
 SOSCF                  CNVSOSCF        .... off
 Level Shifting         CNVShift        .... on
   Level shift para.    LevelShift      ....    0.2500
   Turn off err/grad.   ShiftErr        ....    0.0010
 Zerner damping         CNVZerner       .... off
 Static damping         CNVDamp         .... on
   Fraction old density DampFac         ....    0.7000
   Max. Damping (<1)    DampMax         ....    0.9800
   Min. Damping (>=0)   DampMin         ....    0.0000
   Turn off err/grad.   DampErr         ....    0.1000
 Fernandez-Rico         CNVRico         .... off

SCF Procedure:
 Maximum # iterations   MaxIter         ....   125
 SCF integral mode      SCFMode         .... Direct
   Integral package                     .... LIBINT
 Reset frequency        DirectResetFreq ....    20
 Integral Threshold     Thresh          ....  1.000e-10 Eh
 Primitive CutOff       TCut            ....  1.000e-11 Eh

Convergence Tolerance:
 Convergence Check Mode ConvCheckMode   .... Total+1el-Energy
 Convergence forced     ConvForced      .... 0
 Energy Change          TolE            ....  1.000e-06 Eh
 1-El. energy change                    ....  1.000e-03 Eh
 DIIS Error             TolErr          ....  1.000e-06


Diagonalization of the overlap matrix:
Smallest eigenvalue                        ... 1.809e-06
Time for diagonalization                   ...    0.029 sec
Threshold for overlap eigenvalues          ... 1.000e-08
Number of eigenvalues below threshold      ... 0
Time for construction of square roots      ...    0.030 sec
Total time needed                          ...    0.060 sec

-------------------
DFT GRID GENERATION
-------------------

General Integration Accuracy     IntAcc      ...  4.670
Radial Grid Type                 RadialGrid  ... Gauss-Chebyshev
Angular Grid (max. acc.)         AngularGrid ... Lebedev-302
Angular grid pruning method      GridPruning ... 3 (G Style)
Weight generation scheme         WeightScheme... Becke
Basis function cutoff            BFCut       ...    1.0000e-10
Integration weight cutoff        WCut        ...    1.0000e-14
Grids for H and He will be reduced by one unit

# of grid points (after initial pruning)     ...  75178 (   0.0 sec)
# of grid points (after weights+screening)   ...  70507 (   0.0 sec)
nearest neighbour list constructed           ...    0.0 sec
Grid point re-assignment to atoms done       ...    0.0 sec
Grid point division into batches done        ...    0.3 sec
Reduced shell lists constructed in    0.4 sec

Total number of grid points                  ...    70507
Total number of batches                      ...     1106
Average number of points per batch           ...       63
Average number of grid points per atom       ...     5876
Average number of shells per batch           ...   123.69 (76.82%)
Average number of basis functions per batch  ...   376.60 (80.30%)
Average number of large shells per batch     ...   107.50 (86.91%)
Average number of large basis fcns per batch ...   325.58 (86.45%)
Maximum spatial batch extension              ...   1.38,  1.38,  1.24 au
Average spatial batch extension              ...   0.05,  0.05,  0.04 au

Time for grid setup =    0.518 sec

------------------------------
INITIAL GUESS: MODEL POTENTIAL
------------------------------
Loading Hartree-Fock densities                     ... done
Calculating cut-offs                               ... done
Setting up the integral package                    ... done
Initializing the effective Hamiltonian             ... done
Starting the Coulomb interaction                   ... done (   0.0 sec)
Reading the grid                                   ... done
Mapping shells                                     ... done
Starting the XC term evaluation                    ... done (   0.1 sec)
  promolecular density results
     # of electrons  =     95.999720786
     EX              =    -84.723465674
     EC              =     -4.539272820
     EX+EC           =    -89.262738494
Transforming the Hamiltonian                       ... done (   0.0 sec)
Diagonalizing the Hamiltonian                      ... done (   0.0 sec)
Back transforming the eigenvectors                 ... done (   0.0 sec)
Now organizing SCF variables                       ... done
                      ------------------
                      INITIAL GUESS DONE (   0.8 sec)
                      ------------------
--------------
SCF ITERATIONS
--------------
ITER       Energy         Delta-E        Max-DP      RMS-DP      [F,P]     Damp
               ***  Starting incremental Fock matrix formation  ***
  0  -1717.6762749911   0.000000000000 0.46176987  0.00229654  0.8116790 0.7000
  1  -1717.9897070587  -0.313432067634 0.14063093  0.00077693  0.2372354 0.7000
                               ***Turning on DIIS***
  2  -1718.1685327102  -0.178825651524 0.16827048  0.00068963  0.1688188 0.7000
  3  -1718.2989712738  -0.130438563524 0.08788843  0.00040711  0.1067312 0.7000
  4  -1718.3902031146  -0.091231840808 0.22643057  0.00103499  0.0733559 0.0000
  5  -1718.6100064143  -0.219803299744 0.04663058  0.00023152  0.0534525 0.0000
  6  -1718.6139244929  -0.003918078549 0.02003789  0.00013876  0.0237518 0.0000
  7  -1718.6151515651  -0.001227072293 0.00418125  0.00005864  0.0080606 0.0000
  8  -1718.6154479411  -0.000296375938 0.00292554  0.00004623  0.0064486 0.0000
  9  -1718.6155533444  -0.000105403296 0.00265607  0.00002583  0.0024553 0.0000
 10  -1718.6155896202  -0.000036275830 0.00246393  0.00002108  0.0006956 0.0000
 11  -1718.6155939181  -0.000004297853 0.00096515  0.00000805  0.0010527 0.0000
 12  -1718.6155953899  -0.000001471852 0.00265632  0.00003969  0.0001558 0.0000
 13  -1718.6155955008  -0.000000110847 0.00075315  0.00001227  0.0000933 0.0000
                 **** Energy Check signals convergence ****

               *****************************************************
               *                     SUCCESS                       *
               *           SCF CONVERGED AFTER  14 CYCLES          *
               *****************************************************


Setting up the DFT-NL grid :

General Integration Accuracy     IntAcc      ...  4.340
Radial Grid Type                 RadialGrid  ... Gauss-Chebyshev
Angular Grid (max. acc.)         AngularGrid ... Lebedev-110
Angular grid pruning method      GridPruning ... 3 (G Style)
Weight generation scheme         WeightScheme... Becke
Basis function cutoff            BFCut       ...    1.0000e-10
Integration weight cutoff        WCut        ...    1.0000e-14
Grids for H and He will be reduced by one unit

# of grid points (after initial pruning)     ...  20566 (   0.0 sec)
# of grid points (after weights+screening)   ...  19496 (   0.0 sec)
nearest neighbour list constructed           ...    0.0 sec
Grid point re-assignment to atoms done       ...    0.0 sec
Grid point division into batches done        ...    0.0 sec
Reduced shell lists constructed in    0.0 sec

Total number of grid points                  ...    19496
Total number of batches                      ...      309
Average number of points per batch           ...       63
Average number of grid points per atom       ...     1625
Average number of shells per batch           ...   120.29 (74.71%)
Average number of basis functions per batch  ...   366.00 (78.04%)
Average number of large shells per batch     ...   104.36 (86.76%)
Average number of large basis fcns per batch ...   316.07 (86.36%)
Maximum spatial batch extension              ...   1.94,  1.93,  1.46 au
Average spatial batch extension              ...   0.07,  0.07,  0.06 au

Final grid set up in    0.1 sec

-------------------------------------------------------------------------------
                         DFT-NL dispersion correction                          
-------------------------------------------------------------------------------

SC Energy -1718.615595516 
NL    Energy 0.379536303 
SC+NL Energy -1718.236059213 
NL done in    0.1 sec
-------------------------------------------------------------------------------

----------------
TOTAL SCF ENERGY
----------------

Total Energy       :        -1718.23605921 Eh          -46755.58018 eV

Components:
Nuclear Repulsion  :          797.88729033 Eh           21711.61697 eV
Electronic Energy  :        -2516.12334954 Eh          -68467.19715 eV
One Electron Energy:        -3947.41771219 Eh         -107414.69681 eV
Two Electron Energy:         1431.29436265 Eh           38947.49966 eV

Virial components:
Potential Energy   :        -3432.70997295 Eh          -93408.78717 eV
Kinetic Energy     :         1714.47391374 Eh           46653.20700 eV
Virial Ratio       :            2.00219434


DFT components:
N(Alpha)           :       48.000073514688 electrons
N(Beta)            :       48.000073514688 electrons
N(Total)           :       96.000147029375 electrons
E(X)               :      -85.243909192008 Eh       
E(C)               :       -4.564851216668 Eh       
NL Energy, E(C,NL) :        0.379536303048 Eh       
E(XC)              :      -89.429224105628 Eh       
DFET-embed. en.    :        0.000000000000 Eh       

---------------
SCF CONVERGENCE
---------------

  Last Energy change         ...   -1.5355e-08  Tolerance :   1.0000e-06
  Last MAX-Density change    ...    1.2092e-03  Tolerance :   1.0000e-05
  Last RMS-Density change    ...    1.7536e-05  Tolerance :   1.0000e-06
  Last DIIS Error            ...    3.7891e-05  Tolerance :   1.0000e-06

             **** THE GBW FILE WAS UPDATED (MOR08_ed05.gbw) ****
             **** DENSITY FILE WAS UPDATED (MOR08_ed05.scfp) ****
             **** ENERGY FILE WAS UPDATED (MOR08_ed05.en.tmp) ****
             **** THE GBW FILE WAS UPDATED (MOR08_ed05.gbw) ****
             **** DENSITY FILE WAS UPDATED (MOR08_ed05.scfp) ****
----------------
ORBITAL ENERGIES
----------------

  NO   OCC          E(Eh)            E(eV) 
   0   2.0000    -235.416277     -6406.0026 
   1   2.0000     -27.424485      -746.2582 
   2   2.0000     -23.495325      -639.3403 
   3   2.0000     -23.495323      -639.3403 
   4   2.0000     -23.490216      -639.2013 
   5   2.0000     -19.319009      -525.6970 
   6   2.0000     -19.319008      -525.6969 
   7   2.0000     -19.318997      -525.6966 
   8   2.0000     -19.318994      -525.6965 
   9   2.0000     -19.311548      -525.4939 
  10   2.0000     -10.423238      -283.6307 
  11   2.0000     -10.423233      -283.6306 
  12   2.0000     -10.423230      -283.6305 
  13   2.0000     -10.423226      -283.6304 
  14   2.0000     -10.415334      -283.4156 
  15   2.0000      -3.304334       -89.9155 
  16   2.0000      -2.168081       -58.9965 
  17   2.0000      -2.168078       -58.9964 
  18   2.0000      -2.156401       -58.6787 
  19   2.0000      -1.291882       -35.1539 
  20   2.0000      -1.290987       -35.1295 
  21   2.0000      -1.290975       -35.1292 
  22   2.0000      -1.290280       -35.1103 
  23   2.0000      -1.282486       -34.8982 
  24   2.0000      -0.759041       -20.6545 
  25   2.0000      -0.708089       -19.2681 
  26   2.0000      -0.708081       -19.2679 
  27   2.0000      -0.701781       -19.0964 
  28   2.0000      -0.701756       -19.0958 
  29   2.0000      -0.638519       -17.3750 
  30   2.0000      -0.619192       -16.8491 
  31   2.0000      -0.606799       -16.5118 
  32   2.0000      -0.606797       -16.5118 
  33   2.0000      -0.606100       -16.4928 
  34   2.0000      -0.604455       -16.4481 
  35   2.0000      -0.604443       -16.4477 
  36   2.0000      -0.589825       -16.0499 
  37   2.0000      -0.583040       -15.8653 
  38   2.0000      -0.583038       -15.8653 
  39   2.0000      -0.581053       -15.8113 
  40   2.0000      -0.576176       -15.6785 
  41   2.0000      -0.566750       -15.4220 
  42   2.0000      -0.542092       -14.7511 
  43   2.0000      -0.542082       -14.7508 
  44   2.0000      -0.415281       -11.3004 
  45   2.0000      -0.381723       -10.3872 
  46   2.0000      -0.371303       -10.1037 
  47   2.0000      -0.371289       -10.1033 
  48   0.0000       0.036518         0.9937 
  49   0.0000       0.037481         1.0199 
  50   0.0000       0.037489         1.0201 
  51   0.0000       0.053529         1.4566 
  52   0.0000       0.054844         1.4924 
  53   0.0000       0.054890         1.4936 
  54   0.0000       0.054894         1.4937 
  55   0.0000       0.056627         1.5409 
  56   0.0000       0.059361         1.6153 
  57   0.0000       0.065541         1.7834 
  58   0.0000       0.065555         1.7838 
  59   0.0000       0.074132         2.0172 
  60   0.0000       0.076326         2.0769 
  61   0.0000       0.078116         2.1256 
  62   0.0000       0.078142         2.1263 
  63   0.0000       0.096089         2.6147 
  64   0.0000       0.098487         2.6800 
  65   0.0000       0.098493         2.6801 
  66   0.0000       0.107452         2.9239 
  67   0.0000       0.110332         3.0023 
  68   0.0000       0.115028         3.1301 
  69   0.0000       0.115051         3.1307 
  70   0.0000       0.118455         3.2233 
  71   0.0000       0.129266         3.5175 
  72   0.0000       0.135911         3.6983 
  73   0.0000       0.141713         3.8562 
  74   0.0000       0.141725         3.8565 
  75   0.0000       0.158085         4.3017 
  76   0.0000       0.175624         4.7790 
  77   0.0000       0.175656         4.7798 
  78   0.0000       0.178846         4.8666 
  79   0.0000       0.181116         4.9284 
  80   0.0000       0.182966         4.9788 
  81   0.0000       0.182974         4.9790 
  82   0.0000       0.193706         5.2710 
  83   0.0000       0.211859         5.7650 
  84   0.0000       0.222222         6.0470 
  85   0.0000       0.236212         6.4277 
  86   0.0000       0.262998         7.1565 
  87   0.0000       0.263035         7.1575 
  88   0.0000       0.270410         7.3582 
  89   0.0000       0.278546         7.5796 
  90   0.0000       0.290263         7.8985 
  91   0.0000       0.290278         7.8989 
  92   0.0000       0.294654         8.0179 
  93   0.0000       0.301695         8.2095 
  94   0.0000       0.305330         8.3085 
  95   0.0000       0.305346         8.3089 
  96   0.0000       0.321488         8.7481 
  97   0.0000       0.323267         8.7965 
  98   0.0000       0.336800         9.1648 
  99   0.0000       0.336850         9.1661 
 100   0.0000       0.341245         9.2858 
 101   0.0000       0.351170         9.5558 
 102   0.0000       0.372317        10.1313 
 103   0.0000       0.372389        10.1332 
 104   0.0000       0.389951        10.6111 
 105   0.0000       0.392002        10.6669 
 106   0.0000       0.395777        10.7697 
 107   0.0000       0.400680        10.9031 
 108   0.0000       0.400727        10.9043 
 109   0.0000       0.408388        11.1128 
 110   0.0000       0.409256        11.1364 
 111   0.0000       0.420329        11.4377 
 112   0.0000       0.420373        11.4389 
 113   0.0000       0.438183        11.9236 
 114   0.0000       0.439182        11.9508 
 115   0.0000       0.439222        11.9518 
 116   0.0000       0.460347        12.5267 
 117   0.0000       0.498253        13.5582 
 118   0.0000       0.509502        13.8643 
 119   0.0000       0.509545        13.8654 
 120   0.0000       0.525419        14.2974 
 121   0.0000       0.535050        14.5594 
 122   0.0000       0.541401        14.7323 
 123   0.0000       0.542903        14.7731 
 124   0.0000       0.542989        14.7755 
 125   0.0000       0.546186        14.8625 
 126   0.0000       0.560933        15.2638 
 127   0.0000       0.560958        15.2644 
 128   0.0000       0.572204        15.5705 
 129   0.0000       0.582715        15.8565 
 130   0.0000       0.582754        15.8575 
 131   0.0000       0.602065        16.3830 
 132   0.0000       0.605995        16.4900 
 133   0.0000       0.614328        16.7167 
 134   0.0000       0.614406        16.7188 
 135   0.0000       0.616166        16.7667 
 136   0.0000       0.621259        16.9053 
 137   0.0000       0.624264        16.9871 
 138   0.0000       0.625673        17.0254 
 139   0.0000       0.627573        17.0771 
 140   0.0000       0.627592        17.0776 
 141   0.0000       0.639223        17.3941 
 142   0.0000       0.643136        17.5006 
 143   0.0000       0.656134        17.8543 
 144   0.0000       0.656189        17.8558 
 145   0.0000       0.656980        17.8773 
 146   0.0000       0.657018        17.8784 
 147   0.0000       0.666922        18.1479 
 148   0.0000       0.670173        18.2363 
 149   0.0000       0.685952        18.6657 
 150   0.0000       0.685972        18.6663 
 151   0.0000       0.686083        18.6693 
 152   0.0000       0.700231        19.0543 
 153   0.0000       0.705335        19.1931 
 154   0.0000       0.740690        20.1552 
 155   0.0000       0.744270        20.2526 
 156   0.0000       0.746316        20.3083 
 157   0.0000       0.746402        20.3106 
 158   0.0000       0.756017        20.5723 
 159   0.0000       0.756101        20.5745 
 160   0.0000       0.764103        20.7923 
 161   0.0000       0.766679        20.8624 
 162   0.0000       0.773333        21.0435 
 163   0.0000       0.773365        21.0443 
 164   0.0000       0.793471        21.5915 
 165   0.0000       0.805499        21.9187 
 166   0.0000       0.806581        21.9482 
 167   0.0000       0.815075        22.1793 
 168   0.0000       0.815111        22.1803 
 169   0.0000       0.822728        22.3876 
 170   0.0000       0.835005        22.7216 
 171   0.0000       0.855533        23.2802 
 172   0.0000       0.855652        23.2835 
 173   0.0000       0.858995        23.3744 
 174   0.0000       0.893616        24.3165 
 175   0.0000       0.911200        24.7950 
 176   0.0000       0.915157        24.9027 
 177   0.0000       0.926240        25.2043 
 178   0.0000       0.932157        25.3653 
 179   0.0000       0.932174        25.3657 
 180   0.0000       0.936690        25.4886 
 181   0.0000       0.943959        25.6864 
 182   0.0000       0.944032        25.6884 
 183   0.0000       0.974864        26.5274 
 184   0.0000       0.978329        26.6217 
 185   0.0000       0.978383        26.6231 
 186   0.0000       0.984464        26.7886 
 187   0.0000       1.002262        27.2729 
 188   0.0000       1.022404        27.8210 
 189   0.0000       1.030385        28.0382 
 190   0.0000       1.030419        28.0391 
 191   0.0000       1.065179        28.9850 
 192   0.0000       1.084336        29.5063 
 193   0.0000       1.084363        29.5070 
 194   0.0000       1.092610        29.7314 
 195   0.0000       1.097639        29.8683 
 196   0.0000       1.097677        29.8693 
 197   0.0000       1.099571        29.9208 
 198   0.0000       1.103631        30.0313 
 199   0.0000       1.112685        30.2777 
 200   0.0000       1.130105        30.7517 
 201   0.0000       1.138706        30.9858 
 202   0.0000       1.138711        30.9859 
 203   0.0000       1.142813        31.0975 
 204   0.0000       1.179386        32.0927 
 205   0.0000       1.179451        32.0945 
 206   0.0000       1.211449        32.9652 
 207   0.0000       1.212748        33.0006 
 208   0.0000       1.212934        33.0056 
 209   0.0000       1.307024        35.5659 
 210   0.0000       1.337815        36.4038 
 211   0.0000       1.352037        36.7908 
 212   0.0000       1.364864        37.1398 
 213   0.0000       1.364878        37.1402 
 214   0.0000       1.366755        37.1913 
 215   0.0000       1.372184        37.3390 
 216   0.0000       1.383424        37.6449 
 217   0.0000       1.383452        37.6457 
 218   0.0000       1.396263        37.9942 
 219   0.0000       1.439556        39.1723 
 220   0.0000       1.499664        40.8079 
 221   0.0000       1.499701        40.8089 
 222   0.0000       1.526399        41.5354 
 223   0.0000       1.567590        42.6563 
 224   0.0000       1.591544        43.3081 
 225   0.0000       1.591570        43.3088 
 226   0.0000       1.653076        44.9825 
 227   0.0000       1.737594        47.2823 
 228   0.0000       1.755494        47.7694 
 229   0.0000       1.775023        48.3008 
 230   0.0000       1.775060        48.3018 
 231   0.0000       1.781061        48.4651 
 232   0.0000       1.782704        48.5098 
 233   0.0000       1.809395        49.2361 
 234   0.0000       1.825475        49.6737 
 235   0.0000       1.825488        49.6741 
 236   0.0000       1.837605        50.0038 
 237   0.0000       1.837657        50.0052 
 238   0.0000       1.851459        50.3808 
 239   0.0000       1.855671        50.4954 
 240   0.0000       1.868053        50.8323 
 241   0.0000       1.868073        50.8329 
 242   0.0000       1.869391        50.8687 
 243   0.0000       1.888792        51.3966 
 244   0.0000       1.913652        52.0731 
 245   0.0000       1.913671        52.0736 
 246   0.0000       1.918776        52.2125 
 247   0.0000       1.925654        52.3997 
 248   0.0000       1.927519        52.4505 
 249   0.0000       1.978464        53.8367 
 250   0.0000       1.979003        53.8514 
 251   0.0000       2.000950        54.4486 
 252   0.0000       2.000992        54.4497 
 253   0.0000       2.019073        54.9418 
 254   0.0000       2.019096        54.9424 
 255   0.0000       2.021483        55.0074 
 256   0.0000       2.067171        56.2506 
 257   0.0000       2.106402        57.3181 
 258   0.0000       2.122740        57.7627 
 259   0.0000       2.144011        58.3415 
 260   0.0000       2.159121        58.7527 
 261   0.0000       2.159192        58.7546 
 262   0.0000       2.195729        59.7488 
 263   0.0000       2.195807        59.7510 
 264   0.0000       2.249648        61.2160 
 265   0.0000       2.316194        63.0268 
 266   0.0000       2.328380        63.3584 
 267   0.0000       2.328422        63.3596 
 268   0.0000       2.379112        64.7389 
 269   0.0000       2.429754        66.1170 
 270   0.0000       2.429879        66.1204 
 271   0.0000       2.432398        66.1889 
 272   0.0000       2.433963        66.2315 
 273   0.0000       2.475292        67.3561 
 274   0.0000       2.475380        67.3585 
 275   0.0000       2.479616        67.4738 
 276   0.0000       2.539237        69.0962 
 277   0.0000       2.553251        69.4775 
 278   0.0000       2.574928        70.0673 
 279   0.0000       2.574947        70.0679 
 280   0.0000       2.679419        72.9107 
 281   0.0000       2.698081        73.4185 
 282   0.0000       2.752178        74.8906 
 283   0.0000       2.752199        74.8911 
 284   0.0000       2.758112        75.0521 
 285   0.0000       2.769674        75.3667 
 286   0.0000       2.769720        75.3679 
 287   0.0000       2.783286        75.7371 
 288   0.0000       2.783300        75.7374 
 289   0.0000       2.785024        75.7843 
 290   0.0000       2.794195        76.0339 
 291   0.0000       2.834559        77.1323 
 292   0.0000       2.899585        78.9017 
 293   0.0000       2.899612        78.9025 
 294   0.0000       2.904880        79.0458 
 295   0.0000       2.914879        79.3179 
 296   0.0000       2.919979        79.4567 
 297   0.0000       2.920037        79.4582 
 298   0.0000       2.937271        79.9272 
 299   0.0000       2.939170        79.9789 
 300   0.0000       2.939204        79.9798 
 301   0.0000       2.942905        80.0805 
 302   0.0000       3.018434        82.1358 
 303   0.0000       3.042977        82.8036 
 304   0.0000       3.080068        83.8129 
 305   0.0000       3.107579        84.5615 
 306   0.0000       3.109632        84.6174 
 307   0.0000       3.109675        84.6186 
 308   0.0000       3.124002        85.0084 
 309   0.0000       3.133411        85.2645 
 310   0.0000       3.133469        85.2660 
 311   0.0000       3.144126        85.5560 
 312   0.0000       3.155324        85.8607 
 313   0.0000       3.155402        85.8629 
 314   0.0000       3.176905        86.4480 
 315   0.0000       3.191885        86.8556 
 316   0.0000       3.191900        86.8560 
 317   0.0000       3.223555        87.7174 
 318   0.0000       3.231156        87.9242 
 319   0.0000       3.232398        87.9580 
 320   0.0000       3.268616        88.9436 
 321   0.0000       3.268743        88.9470 
 322   0.0000       3.290728        89.5453 
 323   0.0000       3.291313        89.5612 
 324   0.0000       3.302935        89.8774 
 325   0.0000       3.303071        89.8811 
 326   0.0000       3.312031        90.1249 
 327   0.0000       3.349580        91.1467 
 328   0.0000       3.373984        91.8108 
 329   0.0000       3.374055        91.8127 
 330   0.0000       3.389761        92.2401 
 331   0.0000       3.394146        92.3594 
 332   0.0000       3.403392        92.6110 
 333   0.0000       3.430459        93.3475 
 334   0.0000       3.461471        94.1914 
 335   0.0000       3.484509        94.8183 
 336   0.0000       3.484571        94.8200 
 337   0.0000       3.488810        94.9353 
 338   0.0000       3.534645        96.1826 
 339   0.0000       3.541622        96.3724 
 340   0.0000       3.541669        96.3737 
 341   0.0000       3.542922        96.4078 
 342   0.0000       3.559748        96.8657 
 343   0.0000       3.559759        96.8660 
 344   0.0000       3.603777        98.0638 
 345   0.0000       3.655688        99.4763 
 346   0.0000       3.671896        99.9174 
 347   0.0000       3.738746       101.7364 
 348   0.0000       3.742051       101.8264 
 349   0.0000       3.742071       101.8269 
 350   0.0000       3.757270       102.2405 
 351   0.0000       3.757567       102.2486 
 352   0.0000       3.762855       102.3925 
 353   0.0000       3.877467       105.5112 
 354   0.0000       3.926761       106.8526 
 355   0.0000       3.926857       106.8552 
 356   0.0000       3.952594       107.5556 
 357   0.0000       4.000574       108.8612 
 358   0.0000       4.001632       108.8899 
 359   0.0000       4.001697       108.8917 
 360   0.0000       4.014156       109.2307 
 361   0.0000       4.023962       109.4976 
 362   0.0000       4.071612       110.7942 
 363   0.0000       4.071695       110.7965 
 364   0.0000       4.080155       111.0267 
 365   0.0000       4.084939       111.1568 
 366   0.0000       4.255560       115.7997 
 367   0.0000       4.255591       115.8005 
 368   0.0000       4.272743       116.2672 
 369   0.0000       4.405294       119.8741 
 370   0.0000       4.458062       121.3100 
 371   0.0000       4.458497       121.3219 
 372   0.0000       4.525614       123.1482 
 373   0.0000       4.568360       124.3114 
 374   0.0000       4.568456       124.3140 
 375   0.0000       4.579022       124.6015 
 376   0.0000       4.632274       126.0506 
 377   0.0000       4.786053       130.2351 
 378   0.0000       4.969435       135.2252 
 379   0.0000       4.969444       135.2254 
 380   0.0000       5.036493       137.0499 
 381   0.0000       5.084944       138.3683 
 382   0.0000       5.168467       140.6411 
 383   0.0000       5.181208       140.9878 
 384   0.0000       5.181430       140.9939 
 385   0.0000       5.181694       141.0011 
 386   0.0000       5.181708       141.0014 
 387   0.0000       5.181936       141.0076 
 388   0.0000       5.184352       141.0734 
 389   0.0000       5.184358       141.0736 
 390   0.0000       5.187788       141.1669 
 391   0.0000       5.187798       141.1672 
 392   0.0000       5.253564       142.9567 
 393   0.0000       5.576863       151.7541 
 394   0.0000       5.579659       151.8302 
 395   0.0000       5.594595       152.2367 
 396   0.0000       5.594619       152.2373 
 397   0.0000       5.594942       152.2461 
 398   0.0000       5.605894       152.5441 
 399   0.0000       5.615052       152.7933 
 400   0.0000       5.615066       152.7937 
 401   0.0000       5.702743       155.1795 
 402   0.0000       5.724172       155.7626 
 403   0.0000       6.239838       169.7946 
 404   0.0000       6.279937       170.8858 
 405   0.0000       6.279945       170.8860 
 406   0.0000       6.380612       173.6253 
 407   0.0000       6.420020       174.6976 
 408   0.0000       6.433383       175.0612 
 409   0.0000       6.433491       175.0642 
 410   0.0000       6.437321       175.1684 
 411   0.0000       6.437348       175.1691 
 412   0.0000       6.498988       176.8465 
 413   0.0000       6.499752       176.8672 
 414   0.0000       6.499788       176.8682 
 415   0.0000       6.508553       177.1067 
 416   0.0000       6.509984       177.1457 
 417   0.0000       6.517217       177.3425 
 418   0.0000       6.528815       177.6581 
 419   0.0000       6.528828       177.6584 
 420   0.0000       6.537182       177.8858 
 421   0.0000       6.538741       177.9282 
 422   0.0000       6.556415       178.4091 
 423   0.0000       6.727512       183.0649 
 424   0.0000       6.730998       183.1598 
 425   0.0000       6.731000       183.1598 
 426   0.0000       6.746013       183.5684 
 427   0.0000       6.751360       183.7139 
 428   0.0000       6.919878       188.2994 
 429   0.0000       6.944349       188.9653 
 430   0.0000       6.944400       188.9667 
 431   0.0000       6.959723       189.3837 
 432   0.0000       6.969706       189.6554 
 433   0.0000       6.969737       189.6562 
 434   0.0000       6.971102       189.6933 
 435   0.0000       6.976585       189.8425 
 436   0.0000       6.985190       190.0767 
 437   0.0000       6.985225       190.0776 
 438   0.0000       7.274238       197.9421 
 439   0.0000       7.283986       198.2073 
 440   0.0000       7.284008       198.2079 
 441   0.0000       7.305125       198.7825 
 442   0.0000       7.306982       198.8331 
 443   0.0000       7.312962       198.9958 
 444   0.0000       7.335435       199.6073 
 445   0.0000       7.335488       199.6088 
 446   0.0000       7.536940       205.0906 
 447   0.0000       7.537044       205.0934 
 448   0.0000       7.538284       205.1271 
 449   0.0000       7.684760       209.1129 
 450   0.0000       7.813813       212.6247 
 451   0.0000       8.008330       217.9177 
 452   0.0000       8.150767       221.7937 
 453   0.0000       8.429749       229.3851 
 454   0.0000       8.429802       229.3866 
 455   0.0000       8.596650       233.9267 
 456   0.0000       8.923513       242.8211 
 457   0.0000       8.923613       242.8239 
 458   0.0000       8.986284       244.5292 
 459   0.0000      23.444540       637.9584 
 460   0.0000      23.444690       637.9625 
 461   0.0000      23.696468       644.8137 
 462   0.0000      23.733121       645.8111 
 463   0.0000      23.821479       648.2154 
 464   0.0000      44.159365      1201.6374 
 465   0.0000      44.283968      1205.0280 
 466   0.0000      44.284047      1205.0302 
 467   0.0000      44.323642      1206.1076 
 468   0.0000      44.368507      1207.3285 

                    ********************************
                    * MULLIKEN POPULATION ANALYSIS *
                    ********************************

-----------------------
MULLIKEN ATOMIC CHARGES
-----------------------
   0 Mn:    0.244934
   1 O :   -0.204552
   2 C :    0.226220
   3 C :   -0.028284
   4 O :   -0.223872
   5 C :    0.226565
   6 O :   -0.204542
   7 C :    0.225565
   8 O :   -0.204564
   9 C :    0.225313
  10 O :   -0.204560
  11 H :   -0.078222
Sum of atomic charges:   -0.0000000

--------------------------------
MULLIKEN REDUCED ORBITAL CHARGES
--------------------------------
  0 Mns       :     6.616116  s :     6.616116
      pz      :     4.113175  p :    12.143568
      px      :     4.015137
      py      :     4.015256
      dz2     :     0.942111  d :     5.984657
      dxz     :     1.524436
      dyz     :     1.524438
      dx2y2   :     0.599720
      dxy     :     1.393951
      f0      :     0.002335  f :     0.010576
      f+1     :     0.001471
      f-1     :     0.001470
      f+2     :     0.000691
      f-2     :     0.000079
      f+3     :     0.002265
      f-3     :     0.002265
      g0      :     0.000027  g :     0.000149
      g+1     :     0.000010
      g-1     :     0.000010
      g+2     :     0.000035
      g-2     :     0.000008
      g+3     :     0.000007
      g-3     :     0.000007
      g+4     :     0.000037
      g-4     :     0.000008
  1 O s       :     3.891257  s :     3.891257
      pz      :     1.480742  p :     4.271517
      px      :     1.324048
      py      :     1.466727
      dz2     :     0.003646  d :     0.040050
      dxz     :     0.013454
      dyz     :     0.000302
      dx2y2   :     0.008653
      dxy     :     0.013995
      f0      :     0.000209  f :     0.001728
      f+1     :     0.000236
      f-1     :     0.000034
      f+2     :     0.000375
      f-2     :     0.000048
      f+3     :     0.000221
      f-3     :     0.000605
  2 C s       :     3.476283  s :     3.476283
      pz      :     0.625481  p :     2.106268
      px      :     0.861033
      py      :     0.619754
      dz2     :     0.009933  d :     0.173053
      dxz     :     0.071577
      dyz     :     0.005433
      dx2y2   :     0.012331
      dxy     :     0.073779
      f0      :     0.002049  f :     0.018175
      f+1     :     0.002904
      f-1     :     0.000364
      f+2     :     0.003575
      f-2     :     0.000540
      f+3     :     0.003313
      f-3     :     0.005429
  3 C s       :     3.675061  s :     3.675061
      pz      :     0.902599  p :     2.159595
      px      :     0.628499
      py      :     0.628497
      dz2     :     0.010101  d :     0.175824
      dxz     :     0.078838
      dyz     :     0.078842
      dx2y2   :     0.002944
      dxy     :     0.005099
      f0      :     0.005372  f :     0.017803
      f+1     :     0.006091
      f-1     :     0.006091
      f+2     :     0.000110
      f-2     :     0.000128
      f+3     :     0.000006
      f-3     :     0.000006
  4 O s       :     3.903852  s :     3.903852
      pz      :     1.316986  p :     4.281171
      px      :     1.482086
      py      :     1.482099
      dz2     :     0.010361  d :     0.037149
      dxz     :     0.013570
      dyz     :     0.013569
      dx2y2   :    -0.000171
      dxy     :    -0.000180
      f0      :     0.000354  f :     0.001700
      f+1     :     0.000673
      f-1     :     0.000673
      f+2     :     0.000000
      f-2     :     0.000000
      f+3     :    -0.000000
      f-3     :    -0.000000
  5 C s       :     3.476012  s :     3.476012
      pz      :     0.625487  p :     2.106186
      px      :     0.860949
      py      :     0.619750
      dz2     :     0.009939  d :     0.173062
      dxz     :     0.071562
      dyz     :     0.005434
      dx2y2   :     0.012349
      dxy     :     0.073778
      f0      :     0.002049  f :     0.018175
      f+1     :     0.002904
      f-1     :     0.000364
      f+2     :     0.003575
      f-2     :     0.000541
      f+3     :     0.003313
      f-3     :     0.005429
  6 O s       :     3.891244  s :     3.891244
      pz      :     1.480737  p :     4.271515
      px      :     1.324050
      py      :     1.466727
      dz2     :     0.003647  d :     0.040055
      dxz     :     0.013455
      dyz     :     0.000302
      dx2y2   :     0.008656
      dxy     :     0.013995
      f0      :     0.000209  f :     0.001728
      f+1     :     0.000236
      f-1     :     0.000034
      f+2     :     0.000375
      f-2     :     0.000048
      f+3     :     0.000221
      f-3     :     0.000605
  7 C s       :     3.476567  s :     3.476567
      pz      :     0.625572  p :     2.106587
      px      :     0.619755
      py      :     0.861260
      dz2     :     0.009962  d :     0.173106
      dxz     :     0.005441
      dyz     :     0.071581
      dx2y2   :     0.012350
      dxy     :     0.073771
      f0      :     0.002048  f :     0.018176
      f+1     :     0.000364
      f-1     :     0.002907
      f+2     :     0.003574
      f-2     :     0.000542
      f+3     :     0.005428
      f-3     :     0.003312
  8 O s       :     3.891265  s :     3.891265
      pz      :     1.480739  p :     4.271525
      px      :     1.466722
      py      :     1.324064
      dz2     :     0.003649  d :     0.040046
      dxz     :     0.000304
      dyz     :     0.013449
      dx2y2   :     0.008649
      dxy     :     0.013993
      f0      :     0.000208  f :     0.001728
      f+1     :     0.000034
      f-1     :     0.000236
      f+2     :     0.000375
      f-2     :     0.000048
      f+3     :     0.000605
      f-3     :     0.000221
  9 C s       :     3.476861  s :     3.476861
      pz      :     0.625584  p :     2.106548
      px      :     0.619756
      py      :     0.861207
      dz2     :     0.009970  d :     0.173103
      dxz     :     0.005445
      dyz     :     0.071563
      dx2y2   :     0.012356
      dxy     :     0.073770
      f0      :     0.002047  f :     0.018175
      f+1     :     0.000364
      f-1     :     0.002908
      f+2     :     0.003573
      f-2     :     0.000543
      f+3     :     0.005427
      f-3     :     0.003312
 10 O s       :     3.891264  s :     3.891264
      pz      :     1.480727  p :     4.271523
      px      :     1.466720
      py      :     1.324075
      dz2     :     0.003650  d :     0.040045
      dxz     :     0.000305
      dyz     :     0.013449
      dx2y2   :     0.008649
      dxy     :     0.013992
      f0      :     0.000208  f :     0.001728
      f+1     :     0.000034
      f-1     :     0.000236
      f+2     :     0.000375
      f-2     :     0.000048
      f+3     :     0.000604
      f-3     :     0.000221
 11 H s       :     1.048424  s :     1.048424
      pz      :    -0.001315  p :     0.028605
      px      :     0.014959
      py      :     0.014961
      dz2     :     0.000590  d :     0.001193
      dxz     :     0.000246
      dyz     :     0.000246
      dx2y2   :     0.000066
      dxy     :     0.000045


                     *******************************
                     * LOEWDIN POPULATION ANALYSIS *
                     *******************************

----------------------
LOEWDIN ATOMIC CHARGES
----------------------
   0 Mn:   -0.508400
   1 O :    0.170570
   2 C :   -0.087992
   3 C :   -0.063893
   4 O :    0.153577
   5 C :   -0.087988
   6 O :    0.170572
   7 C :   -0.088021
   8 O :    0.170551
   9 C :   -0.088007
  10 O :    0.170555
  11 H :    0.088476

-------------------------------
LOEWDIN REDUCED ORBITAL CHARGES
-------------------------------
  0 Mns       :     5.991323  s :     5.991323
      pz      :     4.361350  p :    13.032074
      px      :     4.335357
      py      :     4.335367
      dz2     :     1.098357  d :     6.438591
      dxz     :     1.470247
      dyz     :     1.470260
      dx2y2   :     0.992961
      dxy     :     1.406766
      f0      :     0.010596  f :     0.045882
      f+1     :     0.006075
      f-1     :     0.006071
      f+2     :     0.002467
      f-2     :     0.000097
      f+3     :     0.010289
      f-3     :     0.010287
      g0      :     0.000142  g :     0.000531
      g+1     :     0.000029
      g-1     :     0.000029
      g+2     :     0.000112
      g-2     :     0.000005
      g+3     :     0.000014
      g-3     :     0.000014
      g+4     :     0.000173
      g-4     :     0.000013
  1 O s       :     3.380346  s :     3.380346
      pz      :     1.354313  p :     4.265311
      px      :     1.583215
      py      :     1.327784
      dz2     :     0.024998  d :     0.177637
      dxz     :     0.042278
      dyz     :     0.001024
      dx2y2   :     0.076214
      dxy     :     0.033123
      f0      :     0.000572  f :     0.006136
      f+1     :     0.001194
      f-1     :     0.000064
      f+2     :     0.001037
      f-2     :     0.000095
      f+3     :     0.001991
      f-3     :     0.001182
  2 C s       :     2.897155  s :     2.897155
      pz      :     0.613235  p :     2.248868
      px      :     1.049150
      py      :     0.586483
      dz2     :     0.092884  d :     0.853057
      dxz     :     0.276766
      dyz     :     0.017452
      dx2y2   :     0.202283
      dxy     :     0.263673
      f0      :     0.009507  f :     0.088912
      f+1     :     0.014675
      f-1     :     0.001429
      f+2     :     0.017365
      f-2     :     0.002478
      f+3     :     0.018231
      f-3     :     0.025229
  3 C s       :     2.902790  s :     2.902790
      pz      :     1.055054  p :     2.244916
      px      :     0.594923
      py      :     0.594939
      dz2     :     0.263811  d :     0.828704
      dxz     :     0.267427
      dyz     :     0.267421
      dx2y2   :     0.019721
      dxy     :     0.010324
      f0      :     0.030079  f :     0.087483
      f+1     :     0.028340
      f-1     :     0.028340
      f+2     :     0.000183
      f-2     :     0.000501
      f+3     :     0.000020
      f-3     :     0.000020
  4 O s       :     3.385735  s :     3.385735
      pz      :     1.589889  p :     4.274797
      px      :     1.342447
      py      :     1.342461
      dz2     :     0.106711  d :     0.179839
      dxz     :     0.036527
      dyz     :     0.036531
      dx2y2   :     0.000049
      dxy     :     0.000021
      f0      :     0.003363  f :     0.006052
      f+1     :     0.001344
      f-1     :     0.001344
      f+2     :     0.000000
      f-2     :     0.000001
      f+3     :     0.000000
      f-3     :     0.000000
  5 C s       :     2.897156  s :     2.897156
      pz      :     0.613244  p :     2.248866
      px      :     1.049142
      py      :     0.586481
      dz2     :     0.092893  d :     0.853054
      dxz     :     0.276757
      dyz     :     0.017456
      dx2y2   :     0.202279
      dxy     :     0.263668
      f0      :     0.009506  f :     0.088912
      f+1     :     0.014676
      f-1     :     0.001428
      f+2     :     0.017365
      f-2     :     0.002479
      f+3     :     0.018230
      f-3     :     0.025228
  6 O s       :     3.380346  s :     3.380346
      pz      :     1.354316  p :     4.265310
      px      :     1.583211
      py      :     1.327783
      dz2     :     0.024997  d :     0.177637
      dxz     :     0.042281
      dyz     :     0.001024
      dx2y2   :     0.076212
      dxy     :     0.033122
      f0      :     0.000572  f :     0.006136
      f+1     :     0.001194
      f-1     :     0.000064
      f+2     :     0.001037
      f-2     :     0.000095
      f+3     :     0.001991
      f-3     :     0.001182
  7 C s       :     2.897150  s :     2.897150
      pz      :     0.613325  p :     2.248882
      px      :     0.586482
      py      :     1.049074
      dz2     :     0.092908  d :     0.853074
      dxz     :     0.017473
      dyz     :     0.276770
      dx2y2   :     0.202276
      dxy     :     0.263647
      f0      :     0.009500  f :     0.088914
      f+1     :     0.001426
      f-1     :     0.014690
      f+2     :     0.017362
      f-2     :     0.002488
      f+3     :     0.025221
      f-3     :     0.018228
  8 O s       :     3.380345  s :     3.380345
      pz      :     1.354369  p :     4.265326
      px      :     1.327778
      py      :     1.583179
      dz2     :     0.024991  d :     0.177642
      dxz     :     0.001029
      dyz     :     0.042310
      dx2y2   :     0.076195
      dxy     :     0.033118
      f0      :     0.000572  f :     0.006136
      f+1     :     0.000064
      f-1     :     0.001194
      f+2     :     0.001038
      f-2     :     0.000095
      f+3     :     0.001182
      f-3     :     0.001990
  9 C s       :     2.897155  s :     2.897155
      pz      :     0.613346  p :     2.248878
      px      :     0.586481
      py      :     1.049051
      dz2     :     0.092928  d :     0.853061
      dxz     :     0.017484
      dyz     :     0.276747
      dx2y2   :     0.202269
      dxy     :     0.263632
      f0      :     0.009497  f :     0.088913
      f+1     :     0.001426
      f-1     :     0.014694
      f+2     :     0.017361
      f-2     :     0.002491
      f+3     :     0.025218
      f-3     :     0.018226
 10 O s       :     3.380346  s :     3.380346
      pz      :     1.354375  p :     4.265322
      px      :     1.327778
      py      :     1.583169
      dz2     :     0.024989  d :     0.177641
      dxz     :     0.001031
      dyz     :     0.042317
      dx2y2   :     0.076189
      dxy     :     0.033116
      f0      :     0.000572  f :     0.006136
      f+1     :     0.000064
      f-1     :     0.001194
      f+2     :     0.001038
      f-2     :     0.000095
      f+3     :     0.001182
      f-3     :     0.001990
 11 H s       :     0.684915  s :     0.684915
      pz      :     0.081885  p :     0.213677
      px      :     0.065879
      py      :     0.065912
      dz2     :     0.005155  d :     0.012932
      dxz     :     0.003605
      dyz     :     0.003606
      dx2y2   :     0.000304
      dxy     :     0.000262


                      *****************************
                      * MAYER POPULATION ANALYSIS *
                      *****************************

  NA   - Mulliken gross atomic population
  ZA   - Total nuclear charge
  QA   - Mulliken gross atomic charge
  VA   - Mayer's total valence
  BVA  - Mayer's bonded valence
  FA   - Mayer's free valence

  ATOM       NA         ZA         QA         VA         BVA        FA
  0 Mn    24.7551    25.0000     0.2449     5.2187     5.2187    -0.0000
  1 O      8.2046     8.0000    -0.2046     2.3297     2.3297     0.0000
  2 C      5.7738     6.0000     0.2262     3.3571     3.3571    -0.0000
  3 C      6.0283     6.0000    -0.0283     3.2682     3.2682     0.0000
  4 O      8.2239     8.0000    -0.2239     2.2758     2.2758     0.0000
  5 C      5.7734     6.0000     0.2266     3.3580     3.3580    -0.0000
  6 O      8.2045     8.0000    -0.2045     2.3295     2.3295     0.0000
  7 C      5.7744     6.0000     0.2256     3.3578     3.3578    -0.0000
  8 O      8.2046     8.0000    -0.2046     2.3296     2.3296    -0.0000
  9 C      5.7747     6.0000     0.2253     3.3576     3.3576    -0.0000
 10 O      8.2046     8.0000    -0.2046     2.3296     2.3296     0.0000
 11 H      1.0782     1.0000    -0.0782     1.0512     1.0512     0.0000

  Mayer bond orders larger than 0.100000
B(  0-Mn,  2-C ) :   0.8301 B(  0-Mn,  3-C ) :   0.8634 B(  0-Mn,  5-C ) :   0.8304 
B(  0-Mn,  7-C ) :   0.8306 B(  0-Mn,  9-C ) :   0.8305 B(  0-Mn, 11-H ) :   0.7473 
B(  1-O ,  2-C ) :   2.2426 B(  3-C ,  4-O ) :   2.1878 B(  5-C ,  6-O ) :   2.2425 
B(  7-C ,  8-O ) :   2.2425 B(  9-C , 10-O ) :   2.2425 

-------
TIMINGS
-------

Total SCF time: 0 days 0 hours 2 min 10 sec 

Total time                  ....     130.011 sec
Sum of individual times     ....     129.457 sec  ( 99.6%)

Fock matrix formation       ....     127.450 sec  ( 98.0%)
  XC integration            ....       2.084 sec  (  1.6% of F)
    Basis function eval.    ....       0.376 sec  ( 18.0% of XC)
    Density eval.           ....       0.469 sec  ( 22.5% of XC)
    XC-Functional eval.     ....       0.077 sec  (  3.7% of XC)
    XC-Potential eval.      ....       0.682 sec  ( 32.7% of XC)
Diagonalization             ....       0.693 sec  (  0.5%)
Density matrix formation    ....       0.037 sec  (  0.0%)
Population analysis         ....       0.036 sec  (  0.0%)
Initial guess               ....       0.271 sec  (  0.2%)
Orbital Transformation      ....       0.000 sec  (  0.0%)
Orbital Orthonormalization  ....       0.000 sec  (  0.0%)
DIIS solution               ....       0.397 sec  (  0.3%)
Grid generation             ....       0.573 sec  (  0.4%)

-------------------------   --------------------
FINAL SINGLE POINT ENERGY     -1718.236059213068
-------------------------   --------------------


                            ***************************************
                            *     ORCA property calculations      *
                            ***************************************

                                    ---------------------
                                    Active property flags
                                    ---------------------
   (+) Dipole Moment


------------------------------------------------------------------------------
                       ORCA ELECTRIC PROPERTIES CALCULATION
------------------------------------------------------------------------------

Dipole Moment Calculation                       ... on
Quadrupole Moment Calculation                   ... off
Polarizability Calculation                      ... off
GBWName                                         ... MOR08_ed05.gbw
Electron density file                           ... MOR08_ed05.scfp
The origin for moment calculation is the CENTER OF MASS  = ( 0.000001, -0.000002  0.009160)

-------------
DIPOLE MOMENT
-------------
                                X             Y             Z
Electronic contribution:      0.00008      -0.00017       1.00144
Nuclear contribution   :     -0.00006       0.00014      -0.87929
                        -----------------------------------------
Total Dipole Moment    :      0.00002      -0.00004       0.12215
                        -----------------------------------------
Magnitude (a.u.)       :      0.12215
Magnitude (Debye)      :      0.31049



--------------------
Rotational spectrum 
--------------------
 
Rotational constants in cm-1:     0.030200     0.030198     0.023242 
Rotational constants in MHz :   905.379927   905.310991   696.775514 

 Dipole components along the rotational axes: 
x,y,z [a.u.] :     0.000016    -0.000037     0.122152 
x,y,z [Debye]:     0.000039    -0.000093     0.310486 

 

Timings for individual modules:

Sum of individual times         ...      131.574 sec (=   2.193 min)
GTO integral calculation        ...        1.098 sec (=   0.018 min)   0.8 %
SCF iterations                  ...      130.476 sec (=   2.175 min)  99.2 %
                             ****ORCA TERMINATED NORMALLY****
TOTAL RUN TIME: 0 days 0 hours 2 minutes 12 seconds 227 msec
