
                                 *****************
                                 * O   R   C   A *
                                 *****************

           --- An Ab Initio, DFT and Semiempirical electronic structure package ---

                  #######################################################
                  #                        -***-                        #
                  #          Department of theory and spectroscopy      #
                  #               Directorship: Frank Neese             #
                  #        Max Planck Institute fuer Kohlenforschung    #
                  #                Kaiser Wilhelm Platz 1               #
                  #                 D-45470 Muelheim/Ruhr               #
                  #                      Germany                        #
                  #                                                     #
                  #                  All rights reserved                #
                  #                        -***-                        #
                  #######################################################


                         Program Version 4.2.0 -  RELEASE  -


 With contributions from (in alphabetic order):
   Daniel Aravena         : Magnetic Suceptibility
   Michael Atanasov       : Ab Initio Ligand Field Theory (pilot matlab implementation)
   Alexander A. Auer      : GIAO ZORA, VPT2
   Ute Becker             : Parallelization
   Giovanni Bistoni       : ED, misc. LED, open-shell LED, HFLED
   Martin Brehm           : Molecular dynamics
   Dmytro Bykov           : SCF Hessian
   Vijay G. Chilkuri      : MRCI spin determinant printing, contributions to CSF-ICE
   Dipayan Datta          : RHF DLPNO-CCSD density
   Achintya Kumar Dutta   : EOM-CC, STEOM-CC
   Dmitry Ganyushin       : Spin-Orbit,Spin-Spin,Magnetic field MRCI
   Miquel Garcia          : C-PCM Hessian, Gaussian charge scheme
   Yang Guo               : DLPNO-NEVPT2, CIM, IAO-localization
   Andreas Hansen         : Spin unrestricted coupled pair/coupled cluster methods
   Benjamin Helmich-Paris : CASSCF linear response (MC-RPA)
   Lee Huntington         : MR-EOM, pCC
   Robert Izsak           : Overlap fitted RIJCOSX, COSX-SCS-MP3, EOM
   Christian Kollmar      : KDIIS, OOCD, Brueckner-CCSD(T), CCSD density
   Simone Kossmann        : Meta GGA functionals, TD-DFT gradient, OOMP2, MP2 Hessian
   Martin Krupicka        : AUTO-CI
   Lucas Lang             : DCDCAS
   Dagmar Lenk            : GEPOL surface, SMD
   Dimitrios Liakos       : Extrapolation schemes; Compound Job, initial MDCI parallelization
   Dimitrios Manganas     : Further ROCIS development; embedding schemes
   Dimitrios Pantazis     : SARC Basis sets
   Taras Petrenko         : DFT Hessian,TD-DFT gradient, ASA, ECA, R-Raman, ABS, FL, XAS/XES, NRVS
   Peter Pinski           : DLPNO-MP2, DLPNO-MP2 Gradient
   Christoph Reimann      : Effective Core Potentials
   Marius Retegan         : Local ZFS, SOC
   Christoph Riplinger    : Optimizer, TS searches, QM/MM, DLPNO-CCSD(T), (RO)-DLPNO pert. Triples
   Tobias Risthaus        : Range-separated hybrids, TD-DFT gradient, RPA, STAB
   Michael Roemelt        : Original ROCIS implementation
   Masaaki Saitow         : Open-shell DLPNO-CCSD energy and density
   Barbara Sandhoefer     : DKH picture change effects
   Avijit Sen             : IP-ROCIS
   Kantharuban Sivalingam : CASSCF convergence, NEVPT2, FIC-MRCI
   Bernardo de Souza      : ESD, SOC TD-DFT
   Georgi Stoychev        : AutoAux, RI-MP2 NMR
   Willem Van den Heuvel  : Paramagnetic NMR
   Boris Wezisla          : Elementary symmetry handling
   Frank Wennmohs         : Technical directorship


 We gratefully acknowledge several colleagues who have allowed us to
 interface, adapt or use parts of their codes:
   Stefan Grimme, W. Hujo, H. Kruse,             : VdW corrections, initial TS optimization,
                  C. Bannwarth                     DFT functionals, gCP, sTDA/sTD-DF
   Ed Valeev, F. Pavosevic, A. Kumar             : LibInt (2-el integral package), F12 methods
   Garnet Chan, S. Sharma, J. Yang, R. Olivares  : DMRG
   Ulf Ekstrom                                   : XCFun DFT Library
   Mihaly Kallay                                 : mrcc  (arbitrary order and MRCC methods)
   Andreas Klamt, Michael Diedenhofen            : otool_cosmo (COSMO solvation model)
   Jiri Pittner, Ondrej Demel                    : Mk-CCSD
   Frank Weinhold                                : gennbo (NPA and NBO analysis)
   Christopher J. Cramer and Donald G. Truhlar   : smd solvation model
   Lars Goerigk                                  : TD-DFT with DH, B97 family of functionals
   V. Asgeirsson, H. Jonsson                     : NEB implementation
   FAccTs GmbH                                   : IRC, NEB, NEB-TS, Multilevel, MM, QM/MM, CI optimization
   S Lehtola, MJT Oliveira, MAL Marques          : LibXC Library


 Your calculation uses the libint2 library for the computation of 2-el integrals
 For citations please refer to: http://libint.valeyev.net

 Your ORCA version has been built with support for libXC version: 4.2.3
 For citations please refer to: https://tddft.org/programs/libxc/

 This ORCA versions uses:
   CBLAS   interface :  Fast vector & matrix operations
   LAPACKE interface :  Fast linear algebra routines
   SCALAPACK package :  Parallel linear algebra routines


Your calculation utilizes the DFT-NL dispersion correction.
Cite in your paper:
Vydrov, O. A.; Van Voorhis, T. J. Chem. Phys. 2010, 133, 244103
Hujo, W.; Grimme, S. J. Chem. Theory Comput. 2011, 7, 3866 
   

----- Orbital basis set information -----
Your calculation utilizes the basis: def2-TZVPPD
   F. Weigend and R. Ahlrichs, Phys. Chem. Chem. Phys. 7, 3297 (2005).
   D. Rappoport and F. Furche, J. Chem. Phys. 133 134105 (2010).

----- AuxJK basis set information -----
Your calculation utilizes the auxiliary basis: def2/JK
   H-Ba, Hf-Rn: F. Weigend, J. Comput. Chem. 29, 167 (2008).

================================================================================
                                        WARNINGS
                       Please study these warnings very carefully!
================================================================================


INFO   : the flag for use of LIBINT has been found!

================================================================================
                                       INPUT FILE
================================================================================
NAME = MOR02_bz.in
|  1> #
|  2> # MOR02_bz wB97X-V/Def2-TZVPPD
|  3> #
|  4> ! wb97x-v def2-tzvppd def2/jk grid4 nofinalgrid
|  5> 
|  6> *xyz 0 1
|  7> C        1.391947    0.103893   -0.000005 
|  8> C        0.785946   -1.153510   -0.000002 
|  9> C       -0.605997   -1.257403   -0.000005 
| 10> C       -1.391947   -0.103892   -0.000002 
| 11> C       -0.785947    1.153509   -0.000006 
| 12> C        0.605998    1.257403   -0.000002 
| 13> H        2.475503    0.184769    0.000018 
| 14> H        1.397775   -2.051448    0.000027 
| 15> H       -1.077745   -2.236217    0.000018 
| 16> H       -2.475502   -0.184774    0.000031 
| 17> H       -1.397773    2.051449    0.000014 
| 18> H        1.077742    2.236219    0.000031 
| 19> *
| 20> 
| 21> %maxcore 5000
| 22> 
| 23> %pal
| 24> nprocs = 24
| 25> end
| 26> 
| 27> 
| 28>                          ****END OF INPUT****
================================================================================

                       ****************************
                       * Single Point Calculation *
                       ****************************

---------------------------------
CARTESIAN COORDINATES (ANGSTROEM)
---------------------------------
  C      1.391947    0.103893   -0.000005
  C      0.785946   -1.153510   -0.000002
  C     -0.605997   -1.257403   -0.000005
  C     -1.391947   -0.103892   -0.000002
  C     -0.785947    1.153509   -0.000006
  C      0.605998    1.257403   -0.000002
  H      2.475503    0.184769    0.000018
  H      1.397775   -2.051448    0.000027
  H     -1.077745   -2.236217    0.000018
  H     -2.475502   -0.184774    0.000031
  H     -1.397773    2.051449    0.000014
  H      1.077742    2.236219    0.000031

----------------------------
CARTESIAN COORDINATES (A.U.)
----------------------------
  NO LB      ZA    FRAG     MASS         X           Y           Z
   0 C     6.0000    0    12.011    2.630399    0.196329   -0.000009
   1 C     6.0000    0    12.011    1.485223   -2.179818   -0.000004
   2 C     6.0000    0    12.011   -1.145168   -2.376147   -0.000009
   3 C     6.0000    0    12.011   -2.630399   -0.196327   -0.000004
   4 C     6.0000    0    12.011   -1.485225    2.179816   -0.000011
   5 C     6.0000    0    12.011    1.145170    2.376147   -0.000004
   6 H     1.0000    0     1.008    4.678023    0.349163    0.000034
   7 H     1.0000    0     1.008    2.641412   -3.876675    0.000051
   8 H     1.0000    0     1.008   -2.036643   -4.225838    0.000034
   9 H     1.0000    0     1.008   -4.678021   -0.349172    0.000059
  10 H     1.0000    0     1.008   -2.641408    3.876677    0.000026
  11 H     1.0000    0     1.008    2.036637    4.225841    0.000059

--------------------------------
INTERNAL COORDINATES (ANGSTROEM)
--------------------------------
 C      0   0   0     0.000000000000     0.00000000     0.00000000
 C      1   0   0     1.395815000786     0.00000000     0.00000000
 C      2   1   0     1.395814841126   120.00015529     0.00000000
 C      3   2   1     1.395816975692   120.00016495     0.00000000
 C      4   3   2     1.395812764957   119.99968110     0.00000000
 C      1   2   3     1.395815586211   119.99969057     0.00000000
 H      1   2   3     1.086570077372   120.00018922   179.99874176
 H      2   1   3     1.086566784844   119.99903336   180.00148136
 H      3   2   1     1.086564780687   120.00072526   180.00125825
 H      4   3   2     1.086569527015   119.99981156   180.00215151
 H      5   4   3     1.086566748192   119.99922480   180.00107556
 H      6   1   2     1.086564845962   119.99935638   179.99784849

---------------------------
INTERNAL COORDINATES (A.U.)
---------------------------
 C      0   0   0     0.000000000000     0.00000000     0.00000000
 C      1   0   0     2.637708085104     0.00000000     0.00000000
 C      2   1   0     2.637707783391   120.00015529     0.00000000
 C      3   2   1     2.637711817136   120.00016495     0.00000000
 C      4   3   2     2.637703860000   119.99968110     0.00000000
 C      1   2   3     2.637709191398   119.99969057     0.00000000
 H      1   2   3     2.053319871547   120.00018922   179.99874176
 H      2   1   3     2.053313649570   119.99903336   180.00148136
 H      3   2   1     2.053309862262   120.00072526   180.00125825
 H      4   3   2     2.053318831523   119.99981156   180.00215151
 H      5   4   3     2.053313580308   119.99922480   180.00107556
 H      6   1   2     2.053309985615   119.99935638   179.99784849

---------------------
BASIS SET INFORMATION
---------------------
There are 2 groups of distinct atoms

 Group   1 Type C   : 12s6p3d1f contracted to 6s3p3d1f pattern {621111/411/111/1}
 Group   2 Type H   : 5s3p1d contracted to 3s3p1d pattern {311/111/1}

Atom   0C    basis set group =>   1
Atom   1C    basis set group =>   1
Atom   2C    basis set group =>   1
Atom   3C    basis set group =>   1
Atom   4C    basis set group =>   1
Atom   5C    basis set group =>   1
Atom   6H    basis set group =>   2
Atom   7H    basis set group =>   2
Atom   8H    basis set group =>   2
Atom   9H    basis set group =>   2
Atom  10H    basis set group =>   2
Atom  11H    basis set group =>   2
----------------------------------
AUXILIARY/JK BASIS SET INFORMATION
----------------------------------
There are 2 groups of distinct atoms

 Group   1 Type C   : 14s10p6d2f1g contracted to 10s8p5d1f1g pattern {5111111111/31111111/21111/2/1}
 Group   2 Type H   : 4s2p2d contracted to 2s2p2d pattern {31/11/11}

Atom   0C    basis set group =>   1
Atom   1C    basis set group =>   1
Atom   2C    basis set group =>   1
Atom   3C    basis set group =>   1
Atom   4C    basis set group =>   1
Atom   5C    basis set group =>   1
Atom   6H    basis set group =>   2
Atom   7H    basis set group =>   2
Atom   8H    basis set group =>   2
Atom   9H    basis set group =>   2
Atom  10H    basis set group =>   2
Atom  11H    basis set group =>   2


           ************************************************************
           *        Program running with 24 parallel MPI-processes    *
           *              working on a common directory               *
           ************************************************************
------------------------------------------------------------------------------
                           ORCA GTO INTEGRAL CALCULATION
------------------------------------------------------------------------------

                         BASIS SET STATISTICS AND STARTUP INFO

 # of primitive gaussian shells          ...  186
 # of primitive gaussian functions       ...  426
 # of contracted shells                  ...  120
 # of contracted basis functions         ...  324
 Highest angular momentum                ...    3
 Maximum contraction depth               ...    6
 Integral package used                   ... LIBINT
 Integral threshhold            Thresh   ...  1.000e-10
 Primitive cut-off              TCut     ...  1.000e-11


------------------------------ INTEGRAL EVALUATION ----------------------------


 * One electron integrals 
 Pre-screening matrix                    ... done
 Shell pair data                         ... done (   0.002 sec)



           ************************************************************
           *        Program running with 24 parallel MPI-processes    *
           *              working on a common directory               *
           ************************************************************
-------------------------------------------------------------------------------
                                 ORCA SCF
-------------------------------------------------------------------------------

------------
SCF SETTINGS
------------
Hamiltonian:
 Density Functional     Method          .... DFT(GTOs)
 Exchange Functional    Exchange        .... WB97X-V
 Correlation Functional Correlation     .... WB97X-V
 Gradients option       PostSCFGGA      .... off
 Hybrid DFT is turned on
   Fraction HF Exchange ScalHFX         ....  0.167000
   Scaling of DF-GGA-X  ScalDFX         ....  0.000000
   Scaling of DF-GGA-C  ScalDFC         ....  1.000000
   Scaling of DF-LDA-C  ScalLDAC        ....  1.000000
   Perturbative correction              ....  0.000000
   Density functional embedding theory  .... OFF
 Long-range corrected/Screened/Range-Separated Hybrid DFT is turned on
   Amount of maximum screened exact exchange              ....  0.833000
   Range separation parameter mu (erf(mu*r12)/r12)        ....  0.300000
   NL short-range parameter             ....  6.000000
   NL long-range parameter              ....  0.010000


General Settings:
 Integral files         IntName         .... MOR02_bz
 Hartree-Fock type      HFTyp           .... RHF
 Total Charge           Charge          ....    0
 Multiplicity           Mult            ....    1
 Number of Electrons    NEL             ....   42
 Basis Dimension        Dim             ....  324
 Nuclear Repulsion      ENuc            ....    203.2982348504 Eh

Convergence Acceleration:
 DIIS                   CNVDIIS         .... on
   Start iteration      DIISMaxIt       ....    12
   Startup error        DIISStart       ....  0.200000
   # of expansion vecs  DIISMaxEq       ....     5
   Bias factor          DIISBfac        ....   1.050
   Max. coefficient     DIISMaxC        ....  10.000
 Newton-Raphson         CNVNR           .... off
 SOSCF                  CNVSOSCF        .... on
   Start iteration      SOSCFMaxIt      ....   150
   Startup grad/error   SOSCFStart      ....  0.003300
 Level Shifting         CNVShift        .... on
   Level shift para.    LevelShift      ....    0.2500
   Turn off err/grad.   ShiftErr        ....    0.0010
 Zerner damping         CNVZerner       .... off
 Static damping         CNVDamp         .... on
   Fraction old density DampFac         ....    0.7000
   Max. Damping (<1)    DampMax         ....    0.9800
   Min. Damping (>=0)   DampMin         ....    0.0000
   Turn off err/grad.   DampErr         ....    0.1000
 Fernandez-Rico         CNVRico         .... off

SCF Procedure:
 Maximum # iterations   MaxIter         ....   125
 SCF integral mode      SCFMode         .... Direct
   Integral package                     .... LIBINT
 Reset frequency        DirectResetFreq ....    20
 Integral Threshold     Thresh          ....  1.000e-10 Eh
 Primitive CutOff       TCut            ....  1.000e-11 Eh

Convergence Tolerance:
 Convergence Check Mode ConvCheckMode   .... Total+1el-Energy
 Convergence forced     ConvForced      .... 0
 Energy Change          TolE            ....  1.000e-06 Eh
 1-El. energy change                    ....  1.000e-03 Eh
 Orbital Gradient       TolG            ....  5.000e-05
 Orbital Rotation angle TolX            ....  5.000e-05
 DIIS Error             TolErr          ....  1.000e-06


Diagonalization of the overlap matrix:
Smallest eigenvalue                        ... 6.317e-07
Time for diagonalization                   ...    0.016 sec
Threshold for overlap eigenvalues          ... 1.000e-08
Number of eigenvalues below threshold      ... 0
Time for construction of square roots      ...    0.013 sec
Total time needed                          ...    0.030 sec

-------------------
DFT GRID GENERATION
-------------------

General Integration Accuracy     IntAcc      ...  4.670
Radial Grid Type                 RadialGrid  ... Gauss-Chebyshev
Angular Grid (max. acc.)         AngularGrid ... Lebedev-302
Angular grid pruning method      GridPruning ... 3 (G Style)
Weight generation scheme         WeightScheme... Becke
Basis function cutoff            BFCut       ...    1.0000e-10
Integration weight cutoff        WCut        ...    1.0000e-14
Grids for H and He will be reduced by one unit

# of grid points (after initial pruning)     ...  57636 (   0.0 sec)
# of grid points (after weights+screening)   ...  53399 (   0.0 sec)
nearest neighbour list constructed           ...    0.0 sec
Grid point re-assignment to atoms done       ...    0.0 sec
Grid point division into batches done        ...    0.2 sec
Reduced shell lists constructed in    0.2 sec

Total number of grid points                  ...    53399
Total number of batches                      ...      838
Average number of points per batch           ...       63
Average number of grid points per atom       ...     4450
Average number of shells per batch           ...    95.08 (79.24%)
Average number of basis functions per batch  ...   266.97 (82.40%)
Average number of large shells per batch     ...    82.03 (86.27%)
Average number of large basis fcns per batch ...   228.47 (85.58%)
Maximum spatial batch extension              ...   3.14,  3.03, 16.53 au
Average spatial batch extension              ...   0.06,  0.07,  0.10 au

Time for grid setup =    0.254 sec

------------------------------
INITIAL GUESS: MODEL POTENTIAL
------------------------------
Loading Hartree-Fock densities                     ... done
Calculating cut-offs                               ... done
Setting up the integral package                    ... done
Initializing the effective Hamiltonian             ... done
Starting the Coulomb interaction                   ... done (   0.0 sec)
Reading the grid                                   ... done
Mapping shells                                     ... done
Starting the XC term evaluation                    ... done (   0.1 sec)
  promolecular density results
     # of electrons  =     41.996931039
     EX              =    -21.668600432
     EC              =     -1.690318072
     EX+EC           =    -23.358918504
Transforming the Hamiltonian                       ... done (   0.0 sec)
Diagonalizing the Hamiltonian                      ... done (   0.0 sec)
Back transforming the eigenvectors                 ... done (   0.0 sec)
Now organizing SCF variables                       ... done
                      ------------------
                      INITIAL GUESS DONE (   0.4 sec)
                      ------------------
--------------
SCF ITERATIONS
--------------
ITER       Energy         Delta-E        Max-DP      RMS-DP      [F,P]     Damp
               ***  Starting incremental Fock matrix formation  ***
  0   -232.3895474080   0.000000000000 0.06883729  0.00110569  0.2629637 0.7000
  1   -232.4002519028  -0.010704494769 0.05266074  0.00085552  0.1817428 0.7000
                               ***Turning on DIIS***
  2   -232.4071410882  -0.006889185389 0.03971724  0.00063164  0.1249984 0.7000
  3   -232.4117654077  -0.004624319454 0.10410647  0.00160942  0.0858431 0.0000
                      *** Initiating the SOSCF procedure ***
                           *** Shutting down DIIS ***
                      *** Re-Reading the Fockian *** 
                      *** Removing any level shift *** 
ITER      Energy       Delta-E        Grad      Rot      Max-DP    RMS-DP
  4   -232.42261928  -0.0108538697  0.001487  0.001487  0.006441  0.000155
               *** Restarting incremental Fock matrix formation ***
  5   -232.42267617  -0.0000568943  0.000752  0.001368  0.005049  0.000113
  6   -232.42268888  -0.0000127042  0.000201  0.000535  0.005818  0.000108
  7   -232.42269005  -0.0000011740  0.000044  0.000064  0.001358  0.000018
  8   -232.42269009  -0.0000000430  0.000031  0.000030  0.007412  0.000150
                 **** Energy Check signals convergence ****
              ***Rediagonalizing the Fockian in SOSCF/NRSCF***

               *****************************************************
               *                     SUCCESS                       *
               *           SCF CONVERGED AFTER   9 CYCLES          *
               *****************************************************


Setting up the DFT-NL grid :

General Integration Accuracy     IntAcc      ...  4.340
Radial Grid Type                 RadialGrid  ... Gauss-Chebyshev
Angular Grid (max. acc.)         AngularGrid ... Lebedev-110
Angular grid pruning method      GridPruning ... 3 (G Style)
Weight generation scheme         WeightScheme... Becke
Basis function cutoff            BFCut       ...    1.0000e-10
Integration weight cutoff        WCut        ...    1.0000e-14
Grids for H and He will be reduced by one unit

# of grid points (after initial pruning)     ...  14700 (   0.0 sec)
# of grid points (after weights+screening)   ...  13770 (   0.0 sec)
nearest neighbour list constructed           ...    0.0 sec
Grid point re-assignment to atoms done       ...    0.0 sec
Grid point division into batches done        ...    0.0 sec
Reduced shell lists constructed in    0.0 sec

Total number of grid points                  ...    13770
Total number of batches                      ...      220
Average number of points per batch           ...       62
Average number of grid points per atom       ...     1148
Average number of shells per batch           ...    93.82 (78.18%)
Average number of basis functions per batch  ...   265.64 (81.99%)
Average number of large shells per batch     ...    83.55 (89.05%)
Average number of large basis fcns per batch ...   235.18 (88.54%)
Maximum spatial batch extension              ...   3.07,  3.15, 19.29 au
Average spatial batch extension              ...   0.10,  0.10,  0.24 au

Final grid set up in    0.0 sec

-------------------------------------------------------------------------------
                         DFT-NL dispersion correction                          
-------------------------------------------------------------------------------

SC Energy -232.422690102 
NL    Energy 0.161031958 
SC+NL Energy -232.261658143 
NL done in    0.0 sec
-------------------------------------------------------------------------------

----------------
TOTAL SCF ENERGY
----------------

Total Energy       :         -232.26165814 Eh           -6320.16103 eV

Components:
Nuclear Repulsion  :          203.29823485 Eh            5532.02621 eV
Electronic Energy  :         -435.55989299 Eh          -11852.18724 eV
One Electron Energy:         -713.78820934 Eh          -19423.16463 eV
Two Electron Energy:          278.22831634 Eh            7570.97739 eV

Virial components:
Potential Energy   :         -463.48243971 Eh          -12611.99837 eV
Kinetic Energy     :          231.22078157 Eh            6291.83734 eV
Virial Ratio       :            2.00450166


DFT components:
N(Alpha)           :       20.999993297195 electrons
N(Beta)            :       20.999993297195 electrons
N(Total)           :       41.999986594389 electrons
E(X)               :      -22.204763892309 Eh       
E(C)               :       -1.707432040269 Eh       
NL Energy, E(C,NL) :        0.161031958367 Eh       
E(XC)              :      -23.751163974210 Eh       
DFET-embed. en.    :        0.000000000000 Eh       

---------------
SCF CONVERGENCE
---------------

  Last Energy change         ...   -8.9604e-09  Tolerance :   1.0000e-06
  Last MAX-Density change    ...    4.4046e-03  Tolerance :   1.0000e-05
  Last RMS-Density change    ...    7.1084e-05  Tolerance :   1.0000e-06
  Last Orbital Gradient      ...    7.6846e-06  Tolerance :   5.0000e-05
  Last Orbital Rotation      ...    5.4771e-06  Tolerance :   5.0000e-05

             **** THE GBW FILE WAS UPDATED (MOR02_bz.gbw) ****
             **** DENSITY FILE WAS UPDATED (MOR02_bz.scfp) ****
             **** ENERGY FILE WAS UPDATED (MOR02_bz.en.tmp) ****
             **** THE GBW FILE WAS UPDATED (MOR02_bz.gbw) ****
             **** DENSITY FILE WAS UPDATED (MOR02_bz.scfp) ****
----------------
ORBITAL ENERGIES
----------------

  NO   OCC          E(Eh)            E(eV) 
   0   2.0000     -10.278931      -279.7039 
   1   2.0000     -10.278697      -279.6976 
   2   2.0000     -10.278697      -279.6976 
   3   2.0000     -10.278141      -279.6824 
   4   2.0000     -10.278141      -279.6824 
   5   2.0000     -10.277894      -279.6757 
   6   2.0000      -0.992959       -27.0198 
   7   2.0000      -0.880139       -23.9498 
   8   2.0000      -0.880138       -23.9498 
   9   2.0000      -0.727705       -19.8019 
  10   2.0000      -0.727703       -19.8018 
  11   2.0000      -0.644693       -17.5430 
  12   2.0000      -0.577259       -15.7080 
  13   2.0000      -0.558972       -15.2104 
  14   2.0000      -0.532574       -14.4921 
  15   2.0000      -0.532573       -14.4921 
  16   2.0000      -0.487016       -13.2524 
  17   2.0000      -0.448482       -12.2038 
  18   2.0000      -0.448479       -12.2037 
  19   2.0000      -0.349355        -9.5064 
  20   2.0000      -0.349355        -9.5064 
  21   0.0000       0.064316         1.7501 
  22   0.0000       0.064472         1.7544 
  23   0.0000       0.064473         1.7544 
  24   0.0000       0.080380         2.1872 
  25   0.0000       0.080383         2.1873 
  26   0.0000       0.101261         2.7555 
  27   0.0000       0.101264         2.7555 
  28   0.0000       0.132337         3.6011 
  29   0.0000       0.135207         3.6792 
  30   0.0000       0.184783         5.0282 
  31   0.0000       0.194943         5.3047 
  32   0.0000       0.194980         5.3057 
  33   0.0000       0.199399         5.4259 
  34   0.0000       0.199696         5.4340 
  35   0.0000       0.199710         5.4344 
  36   0.0000       0.229902         6.2559 
  37   0.0000       0.234481         6.3806 
  38   0.0000       0.234523         6.3817 
  39   0.0000       0.261457         7.1146 
  40   0.0000       0.261502         7.1158 
  41   0.0000       0.262884         7.1534 
  42   0.0000       0.280064         7.6209 
  43   0.0000       0.280808         7.6412 
  44   0.0000       0.280811         7.6413 
  45   0.0000       0.291713         7.9379 
  46   0.0000       0.291719         7.9381 
  47   0.0000       0.318869         8.6769 
  48   0.0000       0.318911         8.6780 
  49   0.0000       0.324281         8.8241 
  50   0.0000       0.324290         8.8244 
  51   0.0000       0.336034         9.1439 
  52   0.0000       0.341948         9.3049 
  53   0.0000       0.355387         9.6706 
  54   0.0000       0.373005        10.1500 
  55   0.0000       0.375203        10.2098 
  56   0.0000       0.382669        10.4130 
  57   0.0000       0.382683        10.4133 
  58   0.0000       0.413893        11.2626 
  59   0.0000       0.413933        11.2637 
  60   0.0000       0.416477        11.3329 
  61   0.0000       0.416493        11.3333 
  62   0.0000       0.416647        11.3376 
  63   0.0000       0.428420        11.6579 
  64   0.0000       0.433838        11.8053 
  65   0.0000       0.433881        11.8065 
  66   0.0000       0.441322        12.0090 
  67   0.0000       0.441352        12.0098 
  68   0.0000       0.454522        12.3682 
  69   0.0000       0.455837        12.4040 
  70   0.0000       0.455919        12.4062 
  71   0.0000       0.474366        12.9081 
  72   0.0000       0.491984        13.3876 
  73   0.0000       0.508803        13.8452 
  74   0.0000       0.510381        13.8882 
  75   0.0000       0.510634        13.8951 
  76   0.0000       0.546716        14.8769 
  77   0.0000       0.546971        14.8838 
  78   0.0000       0.553778        15.0691 
  79   0.0000       0.553796        15.0695 
  80   0.0000       0.555589        15.1183 
  81   0.0000       0.555594        15.1185 
  82   0.0000       0.579931        15.7807 
  83   0.0000       0.581010        15.8101 
  84   0.0000       0.612492        16.6667 
  85   0.0000       0.623728        16.9725 
  86   0.0000       0.623879        16.9766 
  87   0.0000       0.624106        16.9828 
  88   0.0000       0.641370        17.4526 
  89   0.0000       0.644065        17.5259 
  90   0.0000       0.644074        17.5261 
  91   0.0000       0.648836        17.6557 
  92   0.0000       0.684373        18.6227 
  93   0.0000       0.719736        19.5850 
  94   0.0000       0.719789        19.5865 
  95   0.0000       0.730281        19.8720 
  96   0.0000       0.731668        19.9097 
  97   0.0000       0.751810        20.4578 
  98   0.0000       0.755393        20.5553 
  99   0.0000       0.755436        20.5565 
 100   0.0000       0.757931        20.6244 
 101   0.0000       0.757969        20.6254 
 102   0.0000       0.785377        21.3712 
 103   0.0000       0.785403        21.3719 
 104   0.0000       0.797594        21.7036 
 105   0.0000       0.808759        22.0074 
 106   0.0000       0.813703        22.1420 
 107   0.0000       0.813947        22.1486 
 108   0.0000       0.834339        22.7035 
 109   0.0000       0.834689        22.7130 
 110   0.0000       0.836861        22.7721 
 111   0.0000       0.846578        23.0365 
 112   0.0000       0.847467        23.0607 
 113   0.0000       0.848807        23.0972 
 114   0.0000       0.874629        23.7999 
 115   0.0000       0.900578        24.5060 
 116   0.0000       0.900870        24.5139 
 117   0.0000       0.956807        26.0360 
 118   0.0000       0.981534        26.7089 
 119   0.0000       0.988810        26.9069 
 120   0.0000       0.988824        26.9073 
 121   0.0000       1.005229        27.3537 
 122   0.0000       1.005251        27.3543 
 123   0.0000       1.014914        27.6172 
 124   0.0000       1.033852        28.1326 
 125   0.0000       1.064109        28.9559 
 126   0.0000       1.064302        28.9611 
 127   0.0000       1.069533        29.1035 
 128   0.0000       1.089936        29.6587 
 129   0.0000       1.143648        31.1202 
 130   0.0000       1.143673        31.1209 
 131   0.0000       1.197788        32.5935 
 132   0.0000       1.211847        32.9760 
 133   0.0000       1.277197        34.7543 
 134   0.0000       1.277203        34.7545 
 135   0.0000       1.299874        35.3714 
 136   0.0000       1.299877        35.3714 
 137   0.0000       1.330332        36.2002 
 138   0.0000       1.331179        36.2232 
 139   0.0000       1.345918        36.6243 
 140   0.0000       1.346077        36.6286 
 141   0.0000       1.393277        37.9130 
 142   0.0000       1.393281        37.9131 
 143   0.0000       1.412047        38.4237 
 144   0.0000       1.459469        39.7142 
 145   0.0000       1.504573        40.9415 
 146   0.0000       1.504693        40.9448 
 147   0.0000       1.532755        41.7084 
 148   0.0000       1.533033        41.7159 
 149   0.0000       1.553232        42.2656 
 150   0.0000       1.553245        42.2660 
 151   0.0000       1.601744        43.5857 
 152   0.0000       1.617157        44.0051 
 153   0.0000       1.619525        44.0695 
 154   0.0000       1.619660        44.0732 
 155   0.0000       1.676989        45.6332 
 156   0.0000       1.677034        45.6344 
 157   0.0000       1.705579        46.4112 
 158   0.0000       1.756288        47.7910 
 159   0.0000       1.758589        47.8536 
 160   0.0000       1.824117        49.6367 
 161   0.0000       1.824601        49.6499 
 162   0.0000       1.835946        49.9586 
 163   0.0000       1.857366        50.5415 
 164   0.0000       1.857376        50.5418 
 165   0.0000       1.883948        51.2648 
 166   0.0000       1.883971        51.2655 
 167   0.0000       1.942919        52.8695 
 168   0.0000       1.942942        52.8701 
 169   0.0000       1.966571        53.5131 
 170   0.0000       1.983682        53.9787 
 171   0.0000       1.983700        53.9792 
 172   0.0000       2.019758        54.9604 
 173   0.0000       2.019792        54.9613 
 174   0.0000       2.063968        56.1634 
 175   0.0000       2.095052        57.0093 
 176   0.0000       2.197312        59.7919 
 177   0.0000       2.197388        59.7940 
 178   0.0000       2.225824        60.5678 
 179   0.0000       2.228864        60.6505 
 180   0.0000       2.228902        60.6515 
 181   0.0000       2.259534        61.4851 
 182   0.0000       2.334319        63.5200 
 183   0.0000       2.473711        67.3131 
 184   0.0000       2.483654        67.5837 
 185   0.0000       2.485180        67.6252 
 186   0.0000       2.485255        67.6272 
 187   0.0000       2.511829        68.3503 
 188   0.0000       2.511849        68.3509 
 189   0.0000       2.603582        70.8471 
 190   0.0000       2.603606        70.8477 
 191   0.0000       2.652011        72.1649 
 192   0.0000       2.743158        74.6451 
 193   0.0000       2.775452        75.5239 
 194   0.0000       2.804990        76.3276 
 195   0.0000       2.804996        76.3278 
 196   0.0000       2.838722        77.2456 
 197   0.0000       2.846252        77.4505 
 198   0.0000       2.846259        77.4506 
 199   0.0000       2.911430        79.2240 
 200   0.0000       2.911438        79.2242 
 201   0.0000       2.980416        81.1012 
 202   0.0000       2.980435        81.1018 
 203   0.0000       3.009325        81.8879 
 204   0.0000       3.037562        82.6563 
 205   0.0000       3.037579        82.6567 
 206   0.0000       3.134519        85.2946 
 207   0.0000       3.135198        85.3131 
 208   0.0000       3.135208        85.3134 
 209   0.0000       3.137490        85.3755 
 210   0.0000       3.164499        86.1104 
 211   0.0000       3.216985        87.5386 
 212   0.0000       3.216987        87.5387 
 213   0.0000       3.239871        88.1614 
 214   0.0000       3.239936        88.1631 
 215   0.0000       3.270214        88.9870 
 216   0.0000       3.271831        89.0310 
 217   0.0000       3.271877        89.0323 
 218   0.0000       3.276765        89.1653 
 219   0.0000       3.276767        89.1654 
 220   0.0000       3.290541        89.5402 
 221   0.0000       3.347571        91.0920 
 222   0.0000       3.347666        91.0946 
 223   0.0000       3.437165        93.5300 
 224   0.0000       3.437173        93.5302 
 225   0.0000       3.481878        94.7467 
 226   0.0000       3.484328        94.8134 
 227   0.0000       3.485100        94.8344 
 228   0.0000       3.485130        94.8352 
 229   0.0000       3.489085        94.9428 
 230   0.0000       3.515296        95.6561 
 231   0.0000       3.515330        95.6570 
 232   0.0000       3.539054        96.3025 
 233   0.0000       3.539063        96.3028 
 234   0.0000       3.555925        96.7616 
 235   0.0000       3.575485        97.2939 
 236   0.0000       3.612409        98.2987 
 237   0.0000       3.612565        98.3029 
 238   0.0000       3.637066        98.9696 
 239   0.0000       3.637085        98.9701 
 240   0.0000       3.714823       101.0855 
 241   0.0000       3.736661       101.6797 
 242   0.0000       3.749352       102.0251 
 243   0.0000       3.783962       102.9668 
 244   0.0000       3.783970       102.9670 
 245   0.0000       3.805198       103.5447 
 246   0.0000       3.873949       105.4155 
 247   0.0000       3.873957       105.4157 
 248   0.0000       3.874140       105.4207 
 249   0.0000       3.879853       105.5762 
 250   0.0000       3.891258       105.8865 
 251   0.0000       3.938220       107.1644 
 252   0.0000       3.955149       107.6251 
 253   0.0000       3.955161       107.6254 
 254   0.0000       3.973543       108.1256 
 255   0.0000       3.973570       108.1263 
 256   0.0000       3.997063       108.7656 
 257   0.0000       4.045806       110.0920 
 258   0.0000       4.045819       110.0923 
 259   0.0000       4.124014       112.2201 
 260   0.0000       4.124047       112.2210 
 261   0.0000       4.131489       112.4235 
 262   0.0000       4.131492       112.4236 
 263   0.0000       4.249364       115.6311 
 264   0.0000       4.249368       115.6312 
 265   0.0000       4.278895       116.4347 
 266   0.0000       4.322801       117.6294 
 267   0.0000       4.339779       118.0914 
 268   0.0000       4.354377       118.4886 
 269   0.0000       4.354390       118.4890 
 270   0.0000       4.360699       118.6606 
 271   0.0000       4.374419       119.0340 
 272   0.0000       4.374444       119.0347 
 273   0.0000       4.389556       119.4459 
 274   0.0000       4.389567       119.4462 
 275   0.0000       4.444317       120.9360 
 276   0.0000       4.444325       120.9362 
 277   0.0000       4.480200       121.9124 
 278   0.0000       4.480233       121.9133 
 279   0.0000       4.511982       122.7773 
 280   0.0000       4.614921       125.5784 
 281   0.0000       4.614960       125.5795 
 282   0.0000       4.705786       128.0509 
 283   0.0000       4.729237       128.6891 
 284   0.0000       4.811819       130.9362 
 285   0.0000       4.811831       130.9366 
 286   0.0000       4.865684       132.4020 
 287   0.0000       4.865702       132.4025 
 288   0.0000       4.870284       132.5272 
 289   0.0000       4.883157       132.8774 
 290   0.0000       4.883171       132.8779 
 291   0.0000       4.904807       133.4666 
 292   0.0000       4.904835       133.4674 
 293   0.0000       4.932318       134.2152 
 294   0.0000       4.990234       135.7912 
 295   0.0000       4.993262       135.8736 
 296   0.0000       5.112878       139.1285 
 297   0.0000       5.112898       139.1290 
 298   0.0000       5.155760       140.2954 
 299   0.0000       5.315193       144.6337 
 300   0.0000       5.315202       144.6340 
 301   0.0000       5.357039       145.7725 
 302   0.0000       5.357055       145.7729 
 303   0.0000       5.466307       148.7458 
 304   0.0000       5.483164       149.2045 
 305   0.0000       5.483174       149.2047 
 306   0.0000       5.547316       150.9501 
 307   0.0000       5.638597       153.4340 
 308   0.0000       5.727648       155.8572 
 309   0.0000       5.727694       155.8585 
 310   0.0000       5.808663       158.0618 
 311   0.0000       5.888426       160.2322 
 312   0.0000       5.888446       160.2328 
 313   0.0000       5.981285       162.7590 
 314   0.0000       6.267099       170.5364 
 315   0.0000       6.267118       170.5369 
 316   0.0000       6.402744       174.2275 
 317   0.0000       6.971016       189.6910 
 318   0.0000      23.087259       628.2362 
 319   0.0000      23.316835       634.4833 
 320   0.0000      23.316851       634.4838 
 321   0.0000      23.442260       637.8963 
 322   0.0000      23.442266       637.8965 
 323   0.0000      24.268264       660.3730 

                    ********************************
                    * MULLIKEN POPULATION ANALYSIS *
                    ********************************

-----------------------
MULLIKEN ATOMIC CHARGES
-----------------------
   0 C :    0.001540
   1 C :    0.002631
   2 C :   -0.000365
   3 C :    0.002014
   4 C :    0.001309
   5 C :    0.000667
   6 H :   -0.001337
   7 H :   -0.001380
   8 H :   -0.001247
   9 H :   -0.001125
  10 H :   -0.001448
  11 H :   -0.001258
Sum of atomic charges:    0.0000000

--------------------------------
MULLIKEN REDUCED ORBITAL CHARGES
--------------------------------
  0 C s       :     3.312837  s :     3.312837
      pz      :     0.933087  p :     2.601616
      px      :     0.867244
      py      :     0.801285
      dz2     :     0.000635  d :     0.076522
      dxz     :     0.004462
      dyz     :     0.040105
      dx2y2   :     0.028379
      dxy     :     0.002941
      f0      :     0.001438  f :     0.007485
      f+1     :     0.000674
      f-1     :     0.000556
      f+2     :     0.000327
      f-2     :     0.001076
      f+3     :     0.001037
      f-3     :     0.002377
  1 C s       :     3.311523  s :     3.311523
      pz      :     0.933166  p :     2.601708
      px      :     0.822707
      py      :     0.845836
      dz2     :     0.000676  d :     0.076654
      dxz     :     0.028883
      dyz     :     0.015742
      dx2y2   :     0.005896
      dxy     :     0.025457
      f0      :     0.001438  f :     0.007485
      f+1     :     0.000593
      f-1     :     0.000637
      f+2     :     0.000988
      f-2     :     0.000415
      f+3     :     0.001038
      f-3     :     0.002377
  2 C s       :     3.313696  s :     3.313696
      pz      :     0.933351  p :     2.602493
      px      :     0.814570
      py      :     0.854573
      dz2     :     0.000696  d :     0.076692
      dxz     :     0.033545
      dyz     :     0.011095
      dx2y2   :     0.012819
      dxy     :     0.018537
      f0      :     0.001438  f :     0.007484
      f+1     :     0.000578
      f-1     :     0.000652
      f+2     :     0.000789
      f-2     :     0.000614
      f+3     :     0.001037
      f-3     :     0.002377
  3 C s       :     3.312269  s :     3.312269
      pz      :     0.933087  p :     2.601578
      px      :     0.867066
      py      :     0.801426
      dz2     :     0.000598  d :     0.076654
      dxz     :     0.004462
      dyz     :     0.040105
      dx2y2   :     0.028491
      dxy     :     0.002998
      f0      :     0.001438  f :     0.007485
      f+1     :     0.000674
      f-1     :     0.000556
      f+2     :     0.000327
      f-2     :     0.001076
      f+3     :     0.001037
      f-3     :     0.002377
  4 C s       :     3.312382  s :     3.312382
      pz      :     0.933166  p :     2.602133
      px      :     0.822908
      py      :     0.846060
      dz2     :     0.000704  d :     0.076691
      dxz     :     0.028883
      dyz     :     0.015742
      dx2y2   :     0.005904
      dxy     :     0.025458
      f0      :     0.001438  f :     0.007485
      f+1     :     0.000593
      f-1     :     0.000637
      f+2     :     0.000988
      f-2     :     0.000415
      f+3     :     0.001038
      f-3     :     0.002377
  5 C s       :     3.312615  s :     3.312615
      pz      :     0.933351  p :     2.602681
      px      :     0.814428
      py      :     0.854903
      dz2     :     0.000674  d :     0.076552
      dxz     :     0.033545
      dyz     :     0.011095
      dx2y2   :     0.012640
      dxy     :     0.018599
      f0      :     0.001438  f :     0.007484
      f+1     :     0.000578
      f-1     :     0.000652
      f+2     :     0.000789
      f-2     :     0.000614
      f+3     :     0.001037
      f-3     :     0.002377
  6 H s       :     0.981165  s :     0.981165
      pz      :     0.018645  p :     0.018274
      px      :    -0.002149
      py      :     0.001778
      dz2     :     0.000075  d :     0.001899
      dxz     :     0.000658
      dyz     :     0.000017
      dx2y2   :     0.000247
      dxy     :     0.000902
  7 H s       :     0.981188  s :     0.981188
      pz      :     0.018672  p :     0.018295
      px      :     0.000567
      py      :    -0.000944
      dz2     :     0.000074  d :     0.001898
      dxz     :     0.000219
      dyz     :     0.000456
      dx2y2   :     0.000826
      dxy     :     0.000323
  8 H s       :     0.980960  s :     0.980960
      pz      :     0.018701  p :     0.018388
      px      :     0.001118
      py      :    -0.001431
      dz2     :     0.000075  d :     0.001899
      dxz     :     0.000136
      dyz     :     0.000540
      dx2y2   :     0.000651
      dxy     :     0.000498
  9 H s       :     0.980947  s :     0.980947
      pz      :     0.018645  p :     0.018279
      px      :    -0.002142
      py      :     0.001777
      dz2     :     0.000074  d :     0.001899
      dxz     :     0.000658
      dyz     :     0.000017
      dx2y2   :     0.000247
      dxy     :     0.000902
 10 H s       :     0.981224  s :     0.981224
      pz      :     0.018672  p :     0.018327
      px      :     0.000578
      py      :    -0.000923
      dz2     :     0.000074  d :     0.001898
      dxz     :     0.000219
      dyz     :     0.000456
      dx2y2   :     0.000825
      dxy     :     0.000323
 11 H s       :     0.981000  s :     0.981000
      pz      :     0.018701  p :     0.018359
      px      :     0.001103
      py      :    -0.001445
      dz2     :     0.000075  d :     0.001899
      dxz     :     0.000136
      dyz     :     0.000540
      dx2y2   :     0.000651
      dxy     :     0.000498


                     *******************************
                     * LOEWDIN POPULATION ANALYSIS *
                     *******************************

----------------------
LOEWDIN ATOMIC CHARGES
----------------------
   0 C :    0.001057
   1 C :    0.001051
   2 C :    0.001048
   3 C :    0.001056
   4 C :    0.001051
   5 C :    0.001049
   6 H :   -0.001051
   7 H :   -0.001051
   8 H :   -0.001053
   9 H :   -0.001051
  10 H :   -0.001052
  11 H :   -0.001053

-------------------------------
LOEWDIN REDUCED ORBITAL CHARGES
-------------------------------
  0 C s       :     2.651399  s :     2.651399
      pz      :     0.730750  p :     2.611355
      px      :     0.922155
      py      :     0.958450
      dz2     :     0.059273  d :     0.692946
      dxz     :     0.035516
      dyz     :     0.139126
      dx2y2   :     0.280703
      dxy     :     0.178328
      f0      :     0.002513  f :     0.043244
      f+1     :     0.003293
      f-1     :     0.003849
      f+2     :     0.002162
      f-2     :     0.007224
      f+3     :     0.009042
      f-3     :     0.015162
  1 C s       :     2.651398  s :     2.651398
      pz      :     0.730752  p :     2.611359
      px      :     0.947018
      py      :     0.933589
      dz2     :     0.059273  d :     0.692948
      dxz     :     0.106490
      dyz     :     0.068154
      dx2y2   :     0.190305
      dxy     :     0.268726
      f0      :     0.002513  f :     0.043244
      f+1     :     0.003674
      f-1     :     0.003468
      f+2     :     0.006632
      f-2     :     0.002755
      f+3     :     0.009042
      f-3     :     0.015162
  2 C s       :     2.651398  s :     2.651398
      pz      :     0.730755  p :     2.611363
      px      :     0.951736
      py      :     0.928871
      dz2     :     0.059273  d :     0.692947
      dxz     :     0.119959
      dyz     :     0.054684
      dx2y2   :     0.217537
      dxy     :     0.241494
      f0      :     0.002513  f :     0.043244
      f+1     :     0.003746
      f-1     :     0.003396
      f+2     :     0.005285
      f-2     :     0.004101
      f+3     :     0.009042
      f-3     :     0.015162
  3 C s       :     2.651399  s :     2.651399
      pz      :     0.730750  p :     2.611355
      px      :     0.922155
      py      :     0.958450
      dz2     :     0.059273  d :     0.692946
      dxz     :     0.035516
      dyz     :     0.139126
      dx2y2   :     0.280703
      dxy     :     0.178328
      f0      :     0.002513  f :     0.043244
      f+1     :     0.003293
      f-1     :     0.003849
      f+2     :     0.002162
      f-2     :     0.007224
      f+3     :     0.009042
      f-3     :     0.015162
  4 C s       :     2.651398  s :     2.651398
      pz      :     0.730751  p :     2.611359
      px      :     0.947017
      py      :     0.933591
      dz2     :     0.059274  d :     0.692948
      dxz     :     0.106490
      dyz     :     0.068154
      dx2y2   :     0.190305
      dxy     :     0.268725
      f0      :     0.002513  f :     0.043244
      f+1     :     0.003674
      f-1     :     0.003468
      f+2     :     0.006632
      f-2     :     0.002755
      f+3     :     0.009042
      f-3     :     0.015162
  5 C s       :     2.651398  s :     2.651398
      pz      :     0.730755  p :     2.611363
      px      :     0.951735
      py      :     0.928872
      dz2     :     0.059273  d :     0.692946
      dxz     :     0.119959
      dyz     :     0.054684
      dx2y2   :     0.217537
      dxy     :     0.241493
      f0      :     0.002513  f :     0.043244
      f+1     :     0.003746
      f-1     :     0.003396
      f+2     :     0.005285
      f-2     :     0.004101
      f+3     :     0.009042
      f-3     :     0.015162
  6 H s       :     0.710486  s :     0.710486
      pz      :     0.074441  p :     0.261845
      px      :     0.121663
      py      :     0.065741
      dz2     :     0.002679  d :     0.028720
      dxz     :     0.008193
      dyz     :     0.000070
      dx2y2   :     0.008535
      dxy     :     0.009242
  7 H s       :     0.710483  s :     0.710483
      pz      :     0.074442  p :     0.261848
      px      :     0.083357
      py      :     0.104048
      dz2     :     0.002679  d :     0.028720
      dxz     :     0.002629
      dyz     :     0.005634
      dx2y2   :     0.009160
      dxy     :     0.008618
  8 H s       :     0.710485  s :     0.710485
      pz      :     0.074443  p :     0.261848
      px      :     0.076088
      py      :     0.111318
      dz2     :     0.002679  d :     0.028720
      dxz     :     0.001573
      dyz     :     0.006690
      dx2y2   :     0.008972
      dxy     :     0.008806
  9 H s       :     0.710486  s :     0.710486
      pz      :     0.074441  p :     0.261845
      px      :     0.121663
      py      :     0.065741
      dz2     :     0.002679  d :     0.028720
      dxz     :     0.008193
      dyz     :     0.000070
      dx2y2   :     0.008535
      dxy     :     0.009242
 10 H s       :     0.710483  s :     0.710483
      pz      :     0.074442  p :     0.261848
      px      :     0.083357
      py      :     0.104048
      dz2     :     0.002679  d :     0.028720
      dxz     :     0.002629
      dyz     :     0.005634
      dx2y2   :     0.009160
      dxy     :     0.008618
 11 H s       :     0.710485  s :     0.710485
      pz      :     0.074443  p :     0.261848
      px      :     0.076088
      py      :     0.111318
      dz2     :     0.002679  d :     0.028720
      dxz     :     0.001573
      dyz     :     0.006690
      dx2y2   :     0.008972
      dxy     :     0.008806


                      *****************************
                      * MAYER POPULATION ANALYSIS *
                      *****************************

  NA   - Mulliken gross atomic population
  ZA   - Total nuclear charge
  QA   - Mulliken gross atomic charge
  VA   - Mayer's total valence
  BVA  - Mayer's bonded valence
  FA   - Mayer's free valence

  ATOM       NA         ZA         QA         VA         BVA        FA
  0 C      5.9985     6.0000     0.0015     3.4013     3.4013     0.0000
  1 C      5.9974     6.0000     0.0026     3.4034     3.4034     0.0000
  2 C      6.0004     6.0000    -0.0004     3.4046     3.4046    -0.0000
  3 C      5.9980     6.0000     0.0020     3.4001     3.4001    -0.0000
  4 C      5.9987     6.0000     0.0013     3.4042     3.4042    -0.0000
  5 C      5.9993     6.0000     0.0007     3.4040     3.4040    -0.0000
  6 H      1.0013     1.0000    -0.0013     0.9428     0.9428     0.0000
  7 H      1.0014     1.0000    -0.0014     0.9428     0.9428     0.0000
  8 H      1.0012     1.0000    -0.0012     0.9431     0.9431    -0.0000
  9 H      1.0011     1.0000    -0.0011     0.9429     0.9429    -0.0000
 10 H      1.0014     1.0000    -0.0014     0.9430     0.9430     0.0000
 11 H      1.0013     1.0000    -0.0013     0.9429     0.9429    -0.0000

  Mayer bond orders larger than 0.100000
B(  0-C ,  1-C ) :   1.2315 B(  0-C ,  5-C ) :   1.2323 B(  0-C ,  6-H ) :   1.0952 
B(  1-C ,  2-C ) :   1.2341 B(  1-C ,  7-H ) :   1.0952 B(  2-C ,  3-C ) :   1.2312 
B(  2-C ,  8-H ) :   1.0954 B(  3-C ,  4-C ) :   1.2318 B(  3-C ,  9-H ) :   1.0950 
B(  4-C ,  5-C ) :   1.2337 B(  4-C , 10-H ) :   1.0952 B(  5-C , 11-H ) :   1.0952 


-------
TIMINGS
-------

Total SCF time: 0 days 0 hours 0 min 28 sec 

Total time                  ....      28.960 sec
Sum of individual times     ....      28.607 sec  ( 98.8%)

Fock matrix formation       ....      27.903 sec  ( 96.4%)
  XC integration            ....       0.831 sec  (  3.0% of F)
    Basis function eval.    ....       0.146 sec  ( 17.6% of XC)
    Density eval.           ....       0.164 sec  ( 19.8% of XC)
    XC-Functional eval.     ....       0.037 sec  (  4.4% of XC)
    XC-Potential eval.      ....       0.286 sec  ( 34.4% of XC)
Diagonalization             ....       0.092 sec  (  0.3%)
Density matrix formation    ....       0.036 sec  (  0.1%)
Population analysis         ....       0.016 sec  (  0.1%)
Initial guess               ....       0.168 sec  (  0.6%)
Orbital Transformation      ....       0.000 sec  (  0.0%)
Orbital Orthonormalization  ....       0.000 sec  (  0.0%)
DIIS solution               ....       0.031 sec  (  0.1%)
SOSCF solution              ....       0.070 sec  (  0.2%)
Grid generation             ....       0.290 sec  (  1.0%)

-------------------------   --------------------
FINAL SINGLE POINT ENERGY      -232.261658143441
-------------------------   --------------------


                            ***************************************
                            *     ORCA property calculations      *
                            ***************************************

                                    ---------------------
                                    Active property flags
                                    ---------------------
   (+) Dipole Moment


------------------------------------------------------------------------------
                       ORCA ELECTRIC PROPERTIES CALCULATION
------------------------------------------------------------------------------

Dipole Moment Calculation                       ... on
Quadrupole Moment Calculation                   ... off
Polarizability Calculation                      ... off
GBWName                                         ... MOR02_bz.gbw
Electron density file                           ... MOR02_bz.scfp
The origin for moment calculation is the CENTER OF MASS  = ( 0.000000, -0.000000 -0.000003)

-------------
DIPOLE MOMENT
-------------
                                X             Y             Z
Electronic contribution:     -0.00000       0.00000      -0.00010
Nuclear contribution   :      0.00000      -0.00000       0.00014
                        -----------------------------------------
Total Dipole Moment    :     -0.00000      -0.00000       0.00004
                        -----------------------------------------
Magnitude (a.u.)       :      0.00004
Magnitude (Debye)      :      0.00010



--------------------
Rotational spectrum 
--------------------
 
Rotational constants in cm-1:     0.189759     0.189757     0.094879 
Rotational constants in MHz :  5688.823776  5688.770067  2844.398461 

 Dipole components along the rotational axes: 
x,y,z [a.u.] :    -0.000000     0.000000     0.000041 
x,y,z [Debye]:    -0.000001     0.000001     0.000103 

 

Timings for individual modules:

Sum of individual times         ...       30.110 sec (=   0.502 min)
GTO integral calculation        ...        0.763 sec (=   0.013 min)   2.5 %
SCF iterations                  ...       29.347 sec (=   0.489 min)  97.5 %
                             ****ORCA TERMINATED NORMALLY****
TOTAL RUN TIME: 0 days 0 hours 0 minutes 30 seconds 568 msec
