
                                 *****************
                                 * O   R   C   A *
                                 *****************

           --- An Ab Initio, DFT and Semiempirical electronic structure package ---

                  #######################################################
                  #                        -***-                        #
                  #          Department of theory and spectroscopy      #
                  #               Directorship: Frank Neese             #
                  #        Max Planck Institute fuer Kohlenforschung    #
                  #                Kaiser Wilhelm Platz 1               #
                  #                 D-45470 Muelheim/Ruhr               #
                  #                      Germany                        #
                  #                                                     #
                  #                  All rights reserved                #
                  #                        -***-                        #
                  #######################################################


                         Program Version 4.2.0 -  RELEASE  -


 With contributions from (in alphabetic order):
   Daniel Aravena         : Magnetic Suceptibility
   Michael Atanasov       : Ab Initio Ligand Field Theory (pilot matlab implementation)
   Alexander A. Auer      : GIAO ZORA, VPT2
   Ute Becker             : Parallelization
   Giovanni Bistoni       : ED, misc. LED, open-shell LED, HFLED
   Martin Brehm           : Molecular dynamics
   Dmytro Bykov           : SCF Hessian
   Vijay G. Chilkuri      : MRCI spin determinant printing, contributions to CSF-ICE
   Dipayan Datta          : RHF DLPNO-CCSD density
   Achintya Kumar Dutta   : EOM-CC, STEOM-CC
   Dmitry Ganyushin       : Spin-Orbit,Spin-Spin,Magnetic field MRCI
   Miquel Garcia          : C-PCM Hessian, Gaussian charge scheme
   Yang Guo               : DLPNO-NEVPT2, CIM, IAO-localization
   Andreas Hansen         : Spin unrestricted coupled pair/coupled cluster methods
   Benjamin Helmich-Paris : CASSCF linear response (MC-RPA)
   Lee Huntington         : MR-EOM, pCC
   Robert Izsak           : Overlap fitted RIJCOSX, COSX-SCS-MP3, EOM
   Christian Kollmar      : KDIIS, OOCD, Brueckner-CCSD(T), CCSD density
   Simone Kossmann        : Meta GGA functionals, TD-DFT gradient, OOMP2, MP2 Hessian
   Martin Krupicka        : AUTO-CI
   Lucas Lang             : DCDCAS
   Dagmar Lenk            : GEPOL surface, SMD
   Dimitrios Liakos       : Extrapolation schemes; Compound Job, initial MDCI parallelization
   Dimitrios Manganas     : Further ROCIS development; embedding schemes
   Dimitrios Pantazis     : SARC Basis sets
   Taras Petrenko         : DFT Hessian,TD-DFT gradient, ASA, ECA, R-Raman, ABS, FL, XAS/XES, NRVS
   Peter Pinski           : DLPNO-MP2, DLPNO-MP2 Gradient
   Christoph Reimann      : Effective Core Potentials
   Marius Retegan         : Local ZFS, SOC
   Christoph Riplinger    : Optimizer, TS searches, QM/MM, DLPNO-CCSD(T), (RO)-DLPNO pert. Triples
   Tobias Risthaus        : Range-separated hybrids, TD-DFT gradient, RPA, STAB
   Michael Roemelt        : Original ROCIS implementation
   Masaaki Saitow         : Open-shell DLPNO-CCSD energy and density
   Barbara Sandhoefer     : DKH picture change effects
   Avijit Sen             : IP-ROCIS
   Kantharuban Sivalingam : CASSCF convergence, NEVPT2, FIC-MRCI
   Bernardo de Souza      : ESD, SOC TD-DFT
   Georgi Stoychev        : AutoAux, RI-MP2 NMR
   Willem Van den Heuvel  : Paramagnetic NMR
   Boris Wezisla          : Elementary symmetry handling
   Frank Wennmohs         : Technical directorship


 We gratefully acknowledge several colleagues who have allowed us to
 interface, adapt or use parts of their codes:
   Stefan Grimme, W. Hujo, H. Kruse,             : VdW corrections, initial TS optimization,
                  C. Bannwarth                     DFT functionals, gCP, sTDA/sTD-DF
   Ed Valeev, F. Pavosevic, A. Kumar             : LibInt (2-el integral package), F12 methods
   Garnet Chan, S. Sharma, J. Yang, R. Olivares  : DMRG
   Ulf Ekstrom                                   : XCFun DFT Library
   Mihaly Kallay                                 : mrcc  (arbitrary order and MRCC methods)
   Andreas Klamt, Michael Diedenhofen            : otool_cosmo (COSMO solvation model)
   Jiri Pittner, Ondrej Demel                    : Mk-CCSD
   Frank Weinhold                                : gennbo (NPA and NBO analysis)
   Christopher J. Cramer and Donald G. Truhlar   : smd solvation model
   Lars Goerigk                                  : TD-DFT with DH, B97 family of functionals
   V. Asgeirsson, H. Jonsson                     : NEB implementation
   FAccTs GmbH                                   : IRC, NEB, NEB-TS, Multilevel, MM, QM/MM, CI optimization
   S Lehtola, MJT Oliveira, MAL Marques          : LibXC Library


 Your calculation uses the libint2 library for the computation of 2-el integrals
 For citations please refer to: http://libint.valeyev.net

 Your ORCA version has been built with support for libXC version: 4.2.3
 For citations please refer to: https://tddft.org/programs/libxc/

 This ORCA versions uses:
   CBLAS   interface :  Fast vector & matrix operations
   LAPACKE interface :  Fast linear algebra routines
   SCALAPACK package :  Parallel linear algebra routines


Your calculation utilizes the DFT-NL dispersion correction.
Cite in your paper:
Vydrov, O. A.; Van Voorhis, T. J. Chem. Phys. 2010, 133, 244103
Hujo, W.; Grimme, S. J. Chem. Theory Comput. 2011, 7, 3866 
   

----- Orbital basis set information -----
Your calculation utilizes the basis: def2-TZVPPD
   F. Weigend and R. Ahlrichs, Phys. Chem. Chem. Phys. 7, 3297 (2005).
   D. Rappoport and F. Furche, J. Chem. Phys. 133 134105 (2010).

----- AuxJK basis set information -----
Your calculation utilizes the auxiliary basis: def2/JK
   H-Ba, Hf-Rn: F. Weigend, J. Comput. Chem. 29, 167 (2008).

================================================================================
                                        WARNINGS
                       Please study these warnings very carefully!
================================================================================


INFO   : the flag for use of LIBINT has been found!

================================================================================
                                       INPUT FILE
================================================================================
NAME = MOR06_cod.in
|  1> #
|  2> # MOR06_cod wB97X-V/Def2-TZVPPD
|  3> #
|  4> ! wb97x-v def2-tzvppd def2/jk grid4 nofinalgrid
|  5> 
|  6> *xyz 0 1
|  7> C        1.191389    1.227675   -0.516531 
|  8> C        0.040474   -1.675611   -0.245785 
|  9> C       -0.040358    1.675615   -0.245809 
| 10> H        1.773340    1.813957   -1.228847 
| 11> C       -1.191236   -1.227682   -0.516688 
| 12> H        0.358706   -2.571437   -0.779467 
| 13> H       -0.358419    2.571431   -0.779611 
| 14> H       -1.772889   -1.813647   -1.229501 
| 15> C       -1.080136    1.086431    0.676864 
| 16> H       -1.767105    1.885380    0.980109 
| 17> H       -0.630813    0.710792    1.597907 
| 18> C        1.924335    0.021333    0.009175 
| 19> H        2.698129    0.353800    0.719005 
| 20> H        2.474959   -0.423127   -0.831863 
| 21> C        1.079920   -1.086274    0.677130 
| 22> H        0.630295   -0.710168    1.597840 
| 23> H        1.766727   -1.885140    0.980948 
| 24> C       -1.924342   -0.021538    0.009255 
| 25> H       -2.697754   -0.354225    0.719400 
| 26> H       -2.475456    0.422687   -0.831583 
| 27> *
| 28> 
| 29> %maxcore 5000
| 30> 
| 31> %pal
| 32> nprocs = 24
| 33> end
| 34> 
| 35> 
| 36>                          ****END OF INPUT****
================================================================================

                       ****************************
                       * Single Point Calculation *
                       ****************************

---------------------------------
CARTESIAN COORDINATES (ANGSTROEM)
---------------------------------
  C      1.191389    1.227675   -0.516531
  C      0.040474   -1.675611   -0.245785
  C     -0.040358    1.675615   -0.245809
  H      1.773340    1.813957   -1.228847
  C     -1.191236   -1.227682   -0.516688
  H      0.358706   -2.571437   -0.779467
  H     -0.358419    2.571431   -0.779611
  H     -1.772889   -1.813647   -1.229501
  C     -1.080136    1.086431    0.676864
  H     -1.767105    1.885380    0.980109
  H     -0.630813    0.710792    1.597907
  C      1.924335    0.021333    0.009175
  H      2.698129    0.353800    0.719005
  H      2.474959   -0.423127   -0.831863
  C      1.079920   -1.086274    0.677130
  H      0.630295   -0.710168    1.597840
  H      1.766727   -1.885140    0.980948
  C     -1.924342   -0.021538    0.009255
  H     -2.697754   -0.354225    0.719400
  H     -2.475456    0.422687   -0.831583

----------------------------
CARTESIAN COORDINATES (A.U.)
----------------------------
  NO LB      ZA    FRAG     MASS         X           Y           Z
   0 C     6.0000    0    12.011    2.251399    2.319970   -0.976102
   1 C     6.0000    0    12.011    0.076485   -3.166446   -0.464466
   2 C     6.0000    0    12.011   -0.076266    3.166453   -0.464512
   3 H     1.0000    0     1.008    3.351127    3.427882   -2.322184
   4 C     6.0000    0    12.011   -2.251110   -2.319983   -0.976399
   5 H     1.0000    0     1.008    0.677856   -4.859312   -1.472979
   6 H     1.0000    0     1.008   -0.677314    4.859300   -1.473251
   7 H     1.0000    0     1.008   -3.350275   -3.427296   -2.323420
   8 C     6.0000    0    12.011   -2.041161    2.053057    1.279088
   9 H     1.0000    0     1.008   -3.339344    3.562852    1.852138
  10 H     1.0000    0     1.008   -1.192064    1.343202    3.019607
  11 C     6.0000    0    12.011    3.636466    0.040314    0.017338
  12 H     1.0000    0     1.008    5.098725    0.668585    1.358723
  13 H     1.0000    0     1.008    4.676995   -0.799594   -1.571993
  14 C     6.0000    0    12.011    2.040753   -2.052760    1.279590
  15 H     1.0000    0     1.008    1.191085   -1.342023    3.019480
  16 H     1.0000    0     1.008    3.338630   -3.562398    1.853723
  17 C     6.0000    0    12.011   -3.636479   -0.040701    0.017489
  18 H     1.0000    0     1.008   -5.098016   -0.669388    1.359469
  19 H     1.0000    0     1.008   -4.677934    0.798763   -1.571464

--------------------------------
INTERNAL COORDINATES (ANGSTROEM)
--------------------------------
 C      0   0   0     0.000000000000     0.00000000     0.00000000
 C      1   0   0     3.134801162999     0.00000000     0.00000000
 C      1   2   0     1.338335278207    87.39837992     0.00000000
 H      1   2   3     1.090773869224   138.59690844   231.73164876
 C      2   1   3     1.338334169238    90.59792642    23.27312661
 H      2   1   3     1.090225804696   127.70230695   148.02237882
 H      3   1   2     1.090226435554   116.38985056   216.82127495
 H      5   2   1     1.090769254519   116.31133348   134.85786534
 C      3   1   2     1.509834938021   128.81657868    34.87302504
 H      9   3   1     1.096450382638   108.42988251   156.58100101
 H      9   3   1     1.091474243626   111.49893931    40.27530954
 C      1   2   3     1.506266131305    53.61359399   146.70866644
 H     12   1   2     1.101430928123   108.96745814   207.60715234
 H     12   1   2     1.099125287863   107.49160470    94.01837509
 C      2   1   3     1.509813956655    55.84198959   244.65586572
 H     15   2   1     1.091478478011   111.50228632    98.27166546
 H     15   2   1     1.096447043103   108.43503727   214.58537254
 C      5   2   1     1.506268168429   130.18472749   314.92812445
 H     18   5   2     1.101432105369   108.96661215   253.52266726
 H     18   5   2     1.099122847486   107.49095771   139.93611493

---------------------------
INTERNAL COORDINATES (A.U.)
---------------------------
 C      0   0   0     0.000000000000     0.00000000     0.00000000
 C      1   0   0     5.923915682365     0.00000000     0.00000000
 C      1   2   0     2.529087151176    87.39837992     0.00000000
 H      1   2   3     2.061263886870   138.59690844   231.73164876
 C      2   1   3     2.529085055529    90.59792642    23.27312661
 H      2   1   3     2.060228195008   127.70230695   148.02237882
 H      3   1   2     2.060229387158   116.38985056   216.82127495
 H      5   2   1     2.061255166342   116.31133348   134.85786534
 C      3   1   2     2.853174540286   128.81657868    34.87302504
 H      9   3   1     2.071990942619   108.42988251   156.58100101
 H      9   3   1     2.062587402682   111.49893931    40.27530954
 C      1   2   3     2.846430472967    53.61359399   146.70866644
 H     12   1   2     2.081402809582   108.96745814   207.60715234
 H     12   1   2     2.077045780928   107.49160470    94.01837509
 C      2   1   3     2.853134891250    55.84198959   244.65586572
 H     15   2   1     2.062595404510   111.50228632    98.27166546
 H     15   2   1     2.071984631812   108.43503727   214.58537254
 C      5   2   1     2.846434322573   130.18472749   314.92812445
 H     18   5   2     2.081405034256   108.96661215   253.52266726
 H     18   5   2     2.077041169284   107.49095771   139.93611493

---------------------
BASIS SET INFORMATION
---------------------
There are 2 groups of distinct atoms

 Group   1 Type C   : 12s6p3d1f contracted to 6s3p3d1f pattern {621111/411/111/1}
 Group   2 Type H   : 5s3p1d contracted to 3s3p1d pattern {311/111/1}

Atom   0C    basis set group =>   1
Atom   1C    basis set group =>   1
Atom   2C    basis set group =>   1
Atom   3H    basis set group =>   2
Atom   4C    basis set group =>   1
Atom   5H    basis set group =>   2
Atom   6H    basis set group =>   2
Atom   7H    basis set group =>   2
Atom   8C    basis set group =>   1
Atom   9H    basis set group =>   2
Atom  10H    basis set group =>   2
Atom  11C    basis set group =>   1
Atom  12H    basis set group =>   2
Atom  13H    basis set group =>   2
Atom  14C    basis set group =>   1
Atom  15H    basis set group =>   2
Atom  16H    basis set group =>   2
Atom  17C    basis set group =>   1
Atom  18H    basis set group =>   2
Atom  19H    basis set group =>   2
----------------------------------
AUXILIARY/JK BASIS SET INFORMATION
----------------------------------
There are 2 groups of distinct atoms

 Group   1 Type C   : 14s10p6d2f1g contracted to 10s8p5d1f1g pattern {5111111111/31111111/21111/2/1}
 Group   2 Type H   : 4s2p2d contracted to 2s2p2d pattern {31/11/11}

Atom   0C    basis set group =>   1
Atom   1C    basis set group =>   1
Atom   2C    basis set group =>   1
Atom   3H    basis set group =>   2
Atom   4C    basis set group =>   1
Atom   5H    basis set group =>   2
Atom   6H    basis set group =>   2
Atom   7H    basis set group =>   2
Atom   8C    basis set group =>   1
Atom   9H    basis set group =>   2
Atom  10H    basis set group =>   2
Atom  11C    basis set group =>   1
Atom  12H    basis set group =>   2
Atom  13H    basis set group =>   2
Atom  14C    basis set group =>   1
Atom  15H    basis set group =>   2
Atom  16H    basis set group =>   2
Atom  17C    basis set group =>   1
Atom  18H    basis set group =>   2
Atom  19H    basis set group =>   2


           ************************************************************
           *        Program running with 24 parallel MPI-processes    *
           *              working on a common directory               *
           ************************************************************
------------------------------------------------------------------------------
                           ORCA GTO INTEGRAL CALCULATION
------------------------------------------------------------------------------

                         BASIS SET STATISTICS AND STARTUP INFO

 # of primitive gaussian shells          ...  284
 # of primitive gaussian functions       ...  644
 # of contracted shells                  ...  188
 # of contracted basis functions         ...  500
 Highest angular momentum                ...    3
 Maximum contraction depth               ...    6
 Integral package used                   ... LIBINT
 Integral threshhold            Thresh   ...  1.000e-10
 Primitive cut-off              TCut     ...  1.000e-11


------------------------------ INTEGRAL EVALUATION ----------------------------


 * One electron integrals 
 Pre-screening matrix                    ... done
 Shell pair data                         ... done (   0.005 sec)



           ************************************************************
           *        Program running with 24 parallel MPI-processes    *
           *              working on a common directory               *
           ************************************************************
-------------------------------------------------------------------------------
                                 ORCA SCF
-------------------------------------------------------------------------------

------------
SCF SETTINGS
------------
Hamiltonian:
 Density Functional     Method          .... DFT(GTOs)
 Exchange Functional    Exchange        .... WB97X-V
 Correlation Functional Correlation     .... WB97X-V
 Gradients option       PostSCFGGA      .... off
 Hybrid DFT is turned on
   Fraction HF Exchange ScalHFX         ....  0.167000
   Scaling of DF-GGA-X  ScalDFX         ....  0.000000
   Scaling of DF-GGA-C  ScalDFC         ....  1.000000
   Scaling of DF-LDA-C  ScalLDAC        ....  1.000000
   Perturbative correction              ....  0.000000
   Density functional embedding theory  .... OFF
 Long-range corrected/Screened/Range-Separated Hybrid DFT is turned on
   Amount of maximum screened exact exchange              ....  0.833000
   Range separation parameter mu (erf(mu*r12)/r12)        ....  0.300000
   NL short-range parameter             ....  6.000000
   NL long-range parameter              ....  0.010000


General Settings:
 Integral files         IntName         .... MOR06_cod
 Hartree-Fock type      HFTyp           .... RHF
 Total Charge           Charge          ....    0
 Multiplicity           Mult            ....    1
 Number of Electrons    NEL             ....   60
 Basis Dimension        Dim             ....  500
 Nuclear Repulsion      ENuc            ....    366.2552424093 Eh

Convergence Acceleration:
 DIIS                   CNVDIIS         .... on
   Start iteration      DIISMaxIt       ....    12
   Startup error        DIISStart       ....  0.200000
   # of expansion vecs  DIISMaxEq       ....     5
   Bias factor          DIISBfac        ....   1.050
   Max. coefficient     DIISMaxC        ....  10.000
 Newton-Raphson         CNVNR           .... off
 SOSCF                  CNVSOSCF        .... on
   Start iteration      SOSCFMaxIt      ....   150
   Startup grad/error   SOSCFStart      ....  0.003300
 Level Shifting         CNVShift        .... on
   Level shift para.    LevelShift      ....    0.2500
   Turn off err/grad.   ShiftErr        ....    0.0010
 Zerner damping         CNVZerner       .... off
 Static damping         CNVDamp         .... on
   Fraction old density DampFac         ....    0.7000
   Max. Damping (<1)    DampMax         ....    0.9800
   Min. Damping (>=0)   DampMin         ....    0.0000
   Turn off err/grad.   DampErr         ....    0.1000
 Fernandez-Rico         CNVRico         .... off

SCF Procedure:
 Maximum # iterations   MaxIter         ....   125
 SCF integral mode      SCFMode         .... Direct
   Integral package                     .... LIBINT
 Reset frequency        DirectResetFreq ....    20
 Integral Threshold     Thresh          ....  1.000e-10 Eh
 Primitive CutOff       TCut            ....  1.000e-11 Eh

Convergence Tolerance:
 Convergence Check Mode ConvCheckMode   .... Total+1el-Energy
 Convergence forced     ConvForced      .... 0
 Energy Change          TolE            ....  1.000e-06 Eh
 1-El. energy change                    ....  1.000e-03 Eh
 Orbital Gradient       TolG            ....  5.000e-05
 Orbital Rotation angle TolX            ....  5.000e-05
 DIIS Error             TolErr          ....  1.000e-06


Diagonalization of the overlap matrix:
Smallest eigenvalue                        ... 1.075e-06
Time for diagonalization                   ...    0.040 sec
Threshold for overlap eigenvalues          ... 1.000e-08
Number of eigenvalues below threshold      ... 0
Time for construction of square roots      ...    0.045 sec
Total time needed                          ...    0.087 sec

-------------------
DFT GRID GENERATION
-------------------

General Integration Accuracy     IntAcc      ...  4.670
Radial Grid Type                 RadialGrid  ... Gauss-Chebyshev
Angular Grid (max. acc.)         AngularGrid ... Lebedev-302
Angular grid pruning method      GridPruning ... 3 (G Style)
Weight generation scheme         WeightScheme... Becke
Basis function cutoff            BFCut       ...    1.0000e-10
Integration weight cutoff        WCut        ...    1.0000e-14
Grids for H and He will be reduced by one unit

# of grid points (after initial pruning)     ...  90424 (   0.0 sec)
# of grid points (after weights+screening)   ...  81051 (   0.1 sec)
nearest neighbour list constructed           ...    0.0 sec
Grid point re-assignment to atoms done       ...    0.0 sec
Grid point division into batches done        ...    0.3 sec
Reduced shell lists constructed in    0.4 sec

Total number of grid points                  ...    81051
Total number of batches                      ...     1278
Average number of points per batch           ...       63
Average number of grid points per atom       ...     4053
Average number of shells per batch           ...   144.76 (77.00%)
Average number of basis functions per batch  ...   392.98 (78.60%)
Average number of large shells per batch     ...   118.36 (81.76%)
Average number of large basis fcns per batch ...   315.93 (80.39%)
Maximum spatial batch extension              ...   2.07,  3.39,  3.06 au
Average spatial batch extension              ...   0.05,  0.05,  0.05 au

Time for grid setup =    0.440 sec

------------------------------
INITIAL GUESS: MODEL POTENTIAL
------------------------------
Loading Hartree-Fock densities                     ... done
Calculating cut-offs                               ... done
Setting up the integral package                    ... done
Initializing the effective Hamiltonian             ... done
Starting the Coulomb interaction                   ... done (   0.0 sec)
Reading the grid                                   ... done
Mapping shells                                     ... done
Starting the XC term evaluation                    ... done (   0.2 sec)
  promolecular density results
     # of electrons  =     59.993682736
     EX              =    -29.418517965
     EC              =     -2.390549527
     EX+EC           =    -31.809067492
Transforming the Hamiltonian                       ... done (   0.0 sec)
Diagonalizing the Hamiltonian                      ... done (   0.0 sec)
Back transforming the eigenvectors                 ... done (   0.0 sec)
Now organizing SCF variables                       ... done
                      ------------------
                      INITIAL GUESS DONE (   0.9 sec)
                      ------------------
--------------
SCF ITERATIONS
--------------
ITER       Energy         Delta-E        Max-DP      RMS-DP      [F,P]     Damp
               ***  Starting incremental Fock matrix formation  ***
  0   -312.2296383487   0.000000000000 0.34425672  0.00185029  0.2648672 0.7000
                      *** Initiating the SOSCF procedure ***
                      *** Re-Reading the Fockian *** 
                      *** Removing any level shift *** 
ITER      Energy       Delta-E        Grad      Rot      Max-DP    RMS-DP
  1   -312.24726573  -0.0176273793  0.002952  0.002952  0.889645  0.004845
               *** Restarting incremental Fock matrix formation ***
  2   -312.28132174  -0.0340560104  0.005607  0.008335  0.065307  0.000979
  3   -312.28291988  -0.0015981419  0.004320  0.002978  0.030358  0.000261
  4   -312.28466696  -0.0017470771  0.000387  0.000659  0.005320  0.000074
  5   -312.28468476  -0.0000178000  0.000231  0.000403  0.006248  0.000050
  6   -312.28468751  -0.0000027555  0.000101  0.000115  0.002724  0.000024
                 **** Energy Check signals convergence ****
              ***Rediagonalizing the Fockian in SOSCF/NRSCF***

               *****************************************************
               *                     SUCCESS                       *
               *           SCF CONVERGED AFTER   7 CYCLES          *
               *****************************************************


Setting up the DFT-NL grid :

General Integration Accuracy     IntAcc      ...  4.340
Radial Grid Type                 RadialGrid  ... Gauss-Chebyshev
Angular Grid (max. acc.)         AngularGrid ... Lebedev-110
Angular grid pruning method      GridPruning ... 3 (G Style)
Weight generation scheme         WeightScheme... Becke
Basis function cutoff            BFCut       ...    1.0000e-10
Integration weight cutoff        WCut        ...    1.0000e-14
Grids for H and He will be reduced by one unit

# of grid points (after initial pruning)     ...  22776 (   0.0 sec)
# of grid points (after weights+screening)   ...  20770 (   0.0 sec)
nearest neighbour list constructed           ...    0.0 sec
Grid point re-assignment to atoms done       ...    0.0 sec
Grid point division into batches done        ...    0.0 sec
Reduced shell lists constructed in    0.0 sec

Total number of grid points                  ...    20770
Total number of batches                      ...      335
Average number of points per batch           ...       62
Average number of grid points per atom       ...     1038
Average number of shells per batch           ...   142.27 (75.67%)
Average number of basis functions per batch  ...   389.20 (77.84%)
Average number of large shells per batch     ...   119.00 (83.65%)
Average number of large basis fcns per batch ...   319.00 (81.96%)
Maximum spatial batch extension              ...   2.42,  4.54,  4.41 au
Average spatial batch extension              ...   0.08,  0.08,  0.09 au

Final grid set up in    0.0 sec

-------------------------------------------------------------------------------
                         DFT-NL dispersion correction                          
-------------------------------------------------------------------------------

SC Energy -312.284688089 
NL    Energy 0.224779941 
SC+NL Energy -312.059908148 
NL done in    0.1 sec
-------------------------------------------------------------------------------

----------------
TOTAL SCF ENERGY
----------------

Total Energy       :         -312.05990815 Eh           -8491.58180 eV

Components:
Nuclear Repulsion  :          366.25524241 Eh            9966.31182 eV
Electronic Energy  :         -678.31515056 Eh          -18457.89363 eV
One Electron Energy:        -1144.77607036 Eh          -31150.94056 eV
Two Electron Energy:          466.46091981 Eh           12693.04693 eV

Virial components:
Potential Energy   :         -622.63244787 Eh          -16942.69026 eV
Kinetic Energy     :          310.57253973 Eh            8451.10845 eV
Virial Ratio       :            2.00478912


DFT components:
N(Alpha)           :       29.999850610341 electrons
N(Beta)            :       29.999850610341 electrons
N(Total)           :       59.999701220682 electrons
E(X)               :      -30.267832283935 Eh       
E(C)               :       -2.413072284505 Eh       
NL Energy, E(C,NL) :        0.224779941185 Eh       
E(XC)              :      -32.456124627255 Eh       
DFET-embed. en.    :        0.000000000000 Eh       

---------------
SCF CONVERGENCE
---------------

  Last Energy change         ...   -5.7597e-07  Tolerance :   1.0000e-06
  Last MAX-Density change    ...    5.7801e-03  Tolerance :   1.0000e-05
  Last RMS-Density change    ...    4.0234e-05  Tolerance :   1.0000e-06
  Last Orbital Gradient      ...    1.4524e-05  Tolerance :   5.0000e-05
  Last Orbital Rotation      ...    2.4114e-05  Tolerance :   5.0000e-05

             **** THE GBW FILE WAS UPDATED (MOR06_cod.gbw) ****
             **** DENSITY FILE WAS UPDATED (MOR06_cod.scfp) ****
             **** ENERGY FILE WAS UPDATED (MOR06_cod.en.tmp) ****
             **** THE GBW FILE WAS UPDATED (MOR06_cod.gbw) ****
             **** DENSITY FILE WAS UPDATED (MOR06_cod.scfp) ****
----------------
ORBITAL ENERGIES
----------------

  NO   OCC          E(Eh)            E(eV) 
   0   2.0000     -10.274381      -279.5801 
   1   2.0000     -10.274380      -279.5801 
   2   2.0000     -10.270617      -279.4777 
   3   2.0000     -10.270610      -279.4775 
   4   2.0000     -10.266731      -279.3720 
   5   2.0000     -10.266725      -279.3718 
   6   2.0000     -10.264365      -279.3076 
   7   2.0000     -10.264359      -279.3074 
   8   2.0000      -0.963455       -26.2169 
   9   2.0000      -0.909873       -24.7589 
  10   2.0000      -0.903577       -24.5876 
  11   2.0000      -0.817548       -22.2466 
  12   2.0000      -0.800327       -21.7780 
  13   2.0000      -0.720183       -19.5972 
  14   2.0000      -0.658228       -17.9113 
  15   2.0000      -0.638546       -17.3757 
  16   2.0000      -0.596377       -16.2283 
  17   2.0000      -0.565714       -15.3939 
  18   2.0000      -0.553350       -15.0574 
  19   2.0000      -0.546513       -14.8714 
  20   2.0000      -0.526742       -14.3334 
  21   2.0000      -0.512921       -13.9573 
  22   2.0000      -0.478508       -13.0209 
  23   2.0000      -0.477208       -12.9855 
  24   2.0000      -0.464905       -12.6507 
  25   2.0000      -0.436600       -11.8805 
  26   2.0000      -0.421057       -11.4576 
  27   2.0000      -0.410799       -11.1784 
  28   2.0000      -0.342141        -9.3101 
  29   2.0000      -0.338564        -9.2128 
  30   0.0000       0.061993         1.6869 
  31   0.0000       0.071717         1.9515 
  32   0.0000       0.080685         2.1955 
  33   0.0000       0.081011         2.2044 
  34   0.0000       0.087877         2.3912 
  35   0.0000       0.098068         2.6686 
  36   0.0000       0.102104         2.7784 
  37   0.0000       0.106687         2.9031 
  38   0.0000       0.107316         2.9202 
  39   0.0000       0.121963         3.3188 
  40   0.0000       0.142052         3.8654 
  41   0.0000       0.151950         4.1348 
  42   0.0000       0.152866         4.1597 
  43   0.0000       0.163246         4.4421 
  44   0.0000       0.178048         4.8449 
  45   0.0000       0.181622         4.9422 
  46   0.0000       0.186397         5.0721 
  47   0.0000       0.202855         5.5200 
  48   0.0000       0.212963         5.7950 
  49   0.0000       0.220308         5.9949 
  50   0.0000       0.228707         6.2234 
  51   0.0000       0.229330         6.2404 
  52   0.0000       0.236950         6.4478 
  53   0.0000       0.248845         6.7714 
  54   0.0000       0.254344         6.9211 
  55   0.0000       0.256156         6.9704 
  56   0.0000       0.262323         7.1382 
  57   0.0000       0.266175         7.2430 
  58   0.0000       0.272168         7.4061 
  59   0.0000       0.273255         7.4357 
  60   0.0000       0.277206         7.5432 
  61   0.0000       0.278288         7.5726 
  62   0.0000       0.280490         7.6325 
  63   0.0000       0.296384         8.0650 
  64   0.0000       0.299795         8.1578 
  65   0.0000       0.300873         8.1872 
  66   0.0000       0.301345         8.2000 
  67   0.0000       0.311480         8.4758 
  68   0.0000       0.324344         8.8259 
  69   0.0000       0.331689         9.0257 
  70   0.0000       0.336948         9.1688 
  71   0.0000       0.336989         9.1699 
  72   0.0000       0.340859         9.2753 
  73   0.0000       0.346487         9.4284 
  74   0.0000       0.350812         9.5461 
  75   0.0000       0.358614         9.7584 
  76   0.0000       0.358701         9.7607 
  77   0.0000       0.366541         9.9741 
  78   0.0000       0.372456        10.1350 
  79   0.0000       0.376913        10.2563 
  80   0.0000       0.380675        10.3587 
  81   0.0000       0.387646        10.5484 
  82   0.0000       0.392226        10.6730 
  83   0.0000       0.398558        10.8453 
  84   0.0000       0.400737        10.9046 
  85   0.0000       0.401565        10.9271 
  86   0.0000       0.411150        11.1880 
  87   0.0000       0.415259        11.2998 
  88   0.0000       0.425490        11.5782 
  89   0.0000       0.426679        11.6105 
  90   0.0000       0.429572        11.6893 
  91   0.0000       0.431727        11.7479 
  92   0.0000       0.438943        11.9442 
  93   0.0000       0.446258        12.1433 
  94   0.0000       0.451812        12.2944 
  95   0.0000       0.455681        12.3997 
  96   0.0000       0.458436        12.4747 
  97   0.0000       0.468770        12.7559 
  98   0.0000       0.471077        12.8187 
  99   0.0000       0.476419        12.9640 
 100   0.0000       0.480938        13.0870 
 101   0.0000       0.483797        13.1648 
 102   0.0000       0.494221        13.4484 
 103   0.0000       0.496018        13.4973 
 104   0.0000       0.501822        13.6553 
 105   0.0000       0.506049        13.7703 
 106   0.0000       0.509769        13.8715 
 107   0.0000       0.518700        14.1146 
 108   0.0000       0.523615        14.2483 
 109   0.0000       0.526154        14.3174 
 110   0.0000       0.533326        14.5125 
 111   0.0000       0.539329        14.6759 
 112   0.0000       0.541141        14.7252 
 113   0.0000       0.556619        15.1464 
 114   0.0000       0.562099        15.2955 
 115   0.0000       0.570536        15.5251 
 116   0.0000       0.577282        15.7087 
 117   0.0000       0.582317        15.8457 
 118   0.0000       0.593326        16.1452 
 119   0.0000       0.595677        16.2092 
 120   0.0000       0.603077        16.4106 
 121   0.0000       0.611158        16.6304 
 122   0.0000       0.611632        16.6434 
 123   0.0000       0.627959        17.0876 
 124   0.0000       0.629104        17.1188 
 125   0.0000       0.643578        17.5126 
 126   0.0000       0.648934        17.6584 
 127   0.0000       0.657193        17.8831 
 128   0.0000       0.659117        17.9355 
 129   0.0000       0.661797        18.0084 
 130   0.0000       0.669375        18.2146 
 131   0.0000       0.677582        18.4380 
 132   0.0000       0.679669        18.4947 
 133   0.0000       0.687235        18.7006 
 134   0.0000       0.691965        18.8293 
 135   0.0000       0.705609        19.2006 
 136   0.0000       0.707758        19.2591 
 137   0.0000       0.716676        19.5018 
 138   0.0000       0.728865        19.8334 
 139   0.0000       0.732736        19.9387 
 140   0.0000       0.739160        20.1136 
 141   0.0000       0.743108        20.2210 
 142   0.0000       0.745493        20.2859 
 143   0.0000       0.756641        20.5893 
 144   0.0000       0.758343        20.6356 
 145   0.0000       0.765976        20.8433 
 146   0.0000       0.767931        20.8965 
 147   0.0000       0.776202        21.1215 
 148   0.0000       0.777511        21.1571 
 149   0.0000       0.793457        21.5911 
 150   0.0000       0.798206        21.7203 
 151   0.0000       0.801035        21.7973 
 152   0.0000       0.808727        22.0066 
 153   0.0000       0.810484        22.0544 
 154   0.0000       0.816242        22.2111 
 155   0.0000       0.822741        22.3879 
 156   0.0000       0.826538        22.4912 
 157   0.0000       0.828773        22.5521 
 158   0.0000       0.838180        22.8080 
 159   0.0000       0.839660        22.8483 
 160   0.0000       0.852034        23.1850 
 161   0.0000       0.863524        23.4977 
 162   0.0000       0.866100        23.5678 
 163   0.0000       0.871644        23.7186 
 164   0.0000       0.876728        23.8570 
 165   0.0000       0.880761        23.9667 
 166   0.0000       0.901888        24.5416 
 167   0.0000       0.904410        24.6102 
 168   0.0000       0.921483        25.0748 
 169   0.0000       0.922348        25.0984 
 170   0.0000       0.924287        25.1511 
 171   0.0000       0.935528        25.4570 
 172   0.0000       0.943875        25.6841 
 173   0.0000       0.960825        26.1454 
 174   0.0000       0.972134        26.4531 
 175   0.0000       0.977209        26.5912 
 176   0.0000       0.986334        26.8395 
 177   0.0000       0.997230        27.1360 
 178   0.0000       1.031719        28.0745 
 179   0.0000       1.034396        28.1474 
 180   0.0000       1.048751        28.5380 
 181   0.0000       1.067366        29.0445 
 182   0.0000       1.068571        29.0773 
 183   0.0000       1.097014        29.8513 
 184   0.0000       1.103261        30.0213 
 185   0.0000       1.113578        30.3020 
 186   0.0000       1.149734        31.2859 
 187   0.0000       1.158638        31.5282 
 188   0.0000       1.173749        31.9393 
 189   0.0000       1.174252        31.9530 
 190   0.0000       1.193221        32.4692 
 191   0.0000       1.214489        33.0479 
 192   0.0000       1.220312        33.2064 
 193   0.0000       1.248036        33.9608 
 194   0.0000       1.261690        34.3323 
 195   0.0000       1.261940        34.3391 
 196   0.0000       1.283288        34.9200 
 197   0.0000       1.295540        35.2534 
 198   0.0000       1.304318        35.4923 
 199   0.0000       1.316817        35.8324 
 200   0.0000       1.328949        36.1625 
 201   0.0000       1.332108        36.2485 
 202   0.0000       1.349725        36.7279 
 203   0.0000       1.377510        37.4840 
 204   0.0000       1.381490        37.5923 
 205   0.0000       1.388975        37.7959 
 206   0.0000       1.403214        38.1834 
 207   0.0000       1.418438        38.5977 
 208   0.0000       1.432951        38.9926 
 209   0.0000       1.437774        39.1238 
 210   0.0000       1.442611        39.2554 
 211   0.0000       1.455487        39.6058 
 212   0.0000       1.457862        39.6704 
 213   0.0000       1.481797        40.3218 
 214   0.0000       1.483389        40.3651 
 215   0.0000       1.489389        40.5283 
 216   0.0000       1.517608        41.2962 
 217   0.0000       1.541525        41.9470 
 218   0.0000       1.551960        42.2310 
 219   0.0000       1.558261        42.4024 
 220   0.0000       1.563179        42.5363 
 221   0.0000       1.565932        42.6112 
 222   0.0000       1.578924        42.9647 
 223   0.0000       1.587050        43.1858 
 224   0.0000       1.597795        43.4782 
 225   0.0000       1.602297        43.6007 
 226   0.0000       1.613409        43.9031 
 227   0.0000       1.621278        44.1172 
 228   0.0000       1.625777        44.2396 
 229   0.0000       1.653577        44.9961 
 230   0.0000       1.662765        45.2461 
 231   0.0000       1.663092        45.2550 
 232   0.0000       1.671287        45.4780 
 233   0.0000       1.704581        46.3840 
 234   0.0000       1.705769        46.4163 
 235   0.0000       1.722263        46.8652 
 236   0.0000       1.727673        47.0124 
 237   0.0000       1.743310        47.4379 
 238   0.0000       1.756263        47.7903 
 239   0.0000       1.788148        48.6580 
 240   0.0000       1.793702        48.8091 
 241   0.0000       1.802818        49.0572 
 242   0.0000       1.809628        49.2425 
 243   0.0000       1.837158        49.9916 
 244   0.0000       1.846199        50.2376 
 245   0.0000       1.858821        50.5811 
 246   0.0000       1.865973        50.7757 
 247   0.0000       1.872170        50.9443 
 248   0.0000       1.872272        50.9471 
 249   0.0000       1.924015        52.3551 
 250   0.0000       1.928834        52.4862 
 251   0.0000       1.941261        52.8244 
 252   0.0000       1.962541        53.4035 
 253   0.0000       1.993864        54.2558 
 254   0.0000       1.995623        54.3037 
 255   0.0000       2.013023        54.7771 
 256   0.0000       2.022586        55.0374 
 257   0.0000       2.034940        55.3735 
 258   0.0000       2.053709        55.8843 
 259   0.0000       2.106999        57.3344 
 260   0.0000       2.118962        57.6599 
 261   0.0000       2.121779        57.7365 
 262   0.0000       2.156233        58.6741 
 263   0.0000       2.169159        59.0258 
 264   0.0000       2.175428        59.1964 
 265   0.0000       2.224153        60.5223 
 266   0.0000       2.242287        61.0157 
 267   0.0000       2.269160        61.7470 
 268   0.0000       2.286723        62.2249 
 269   0.0000       2.302121        62.6439 
 270   0.0000       2.341217        63.7078 
 271   0.0000       2.358539        64.1791 
 272   0.0000       2.386638        64.9437 
 273   0.0000       2.392793        65.1112 
 274   0.0000       2.399169        65.2847 
 275   0.0000       2.434448        66.2447 
 276   0.0000       2.477299        67.4107 
 277   0.0000       2.491127        67.7870 
 278   0.0000       2.515255        68.4436 
 279   0.0000       2.554906        69.5225 
 280   0.0000       2.578353        70.1606 
 281   0.0000       2.586595        70.3848 
 282   0.0000       2.619772        71.2876 
 283   0.0000       2.653871        72.2155 
 284   0.0000       2.672815        72.7310 
 285   0.0000       2.702199        73.5306 
 286   0.0000       2.722349        74.0789 
 287   0.0000       2.769795        75.3700 
 288   0.0000       2.783789        75.7508 
 289   0.0000       2.795278        76.0634 
 290   0.0000       2.839002        77.2532 
 291   0.0000       2.851025        77.5803 
 292   0.0000       2.856175        77.7205 
 293   0.0000       2.908882        79.1547 
 294   0.0000       2.915563        79.3365 
 295   0.0000       2.923393        79.5496 
 296   0.0000       2.940972        80.0279 
 297   0.0000       2.952128        80.3315 
 298   0.0000       2.957548        80.4790 
 299   0.0000       3.000679        81.6526 
 300   0.0000       3.019598        82.1674 
 301   0.0000       3.025449        82.3267 
 302   0.0000       3.039549        82.7103 
 303   0.0000       3.058411        83.2236 
 304   0.0000       3.065760        83.4236 
 305   0.0000       3.074730        83.6676 
 306   0.0000       3.090162        84.0876 
 307   0.0000       3.095621        84.2361 
 308   0.0000       3.102168        84.4143 
 309   0.0000       3.122301        84.9621 
 310   0.0000       3.131530        85.2133 
 311   0.0000       3.144222        85.5586 
 312   0.0000       3.159914        85.9856 
 313   0.0000       3.175234        86.4025 
 314   0.0000       3.194040        86.9142 
 315   0.0000       3.198441        87.0340 
 316   0.0000       3.210243        87.3552 
 317   0.0000       3.215974        87.5111 
 318   0.0000       3.233220        87.9804 
 319   0.0000       3.233948        88.0002 
 320   0.0000       3.266475        88.8853 
 321   0.0000       3.285351        89.3989 
 322   0.0000       3.290170        89.5301 
 323   0.0000       3.305508        89.9474 
 324   0.0000       3.306727        89.9806 
 325   0.0000       3.312846        90.1471 
 326   0.0000       3.315938        90.2313 
 327   0.0000       3.327837        90.5551 
 328   0.0000       3.346371        91.0594 
 329   0.0000       3.349823        91.1533 
 330   0.0000       3.360253        91.4371 
 331   0.0000       3.364289        91.5470 
 332   0.0000       3.394786        92.3768 
 333   0.0000       3.416879        92.9780 
 334   0.0000       3.417870        93.0050 
 335   0.0000       3.439335        93.5891 
 336   0.0000       3.439732        93.5999 
 337   0.0000       3.465337        94.2966 
 338   0.0000       3.469814        94.4184 
 339   0.0000       3.482563        94.7654 
 340   0.0000       3.499398        95.2235 
 341   0.0000       3.500900        95.2643 
 342   0.0000       3.531703        96.1025 
 343   0.0000       3.549033        96.5741 
 344   0.0000       3.563751        96.9746 
 345   0.0000       3.566648        97.0534 
 346   0.0000       3.583747        97.5187 
 347   0.0000       3.587940        97.6328 
 348   0.0000       3.594020        97.7983 
 349   0.0000       3.620691        98.5240 
 350   0.0000       3.626467        98.6812 
 351   0.0000       3.642532        99.1183 
 352   0.0000       3.643141        99.1349 
 353   0.0000       3.675701       100.0209 
 354   0.0000       3.677710       100.0756 
 355   0.0000       3.683609       100.2361 
 356   0.0000       3.709850       100.9501 
 357   0.0000       3.721250       101.2603 
 358   0.0000       3.726716       101.4091 
 359   0.0000       3.748320       101.9970 
 360   0.0000       3.756842       102.2289 
 361   0.0000       3.767851       102.5285 
 362   0.0000       3.774569       102.7112 
 363   0.0000       3.792082       103.1878 
 364   0.0000       3.800975       103.4298 
 365   0.0000       3.806489       103.5798 
 366   0.0000       3.831927       104.2720 
 367   0.0000       3.846906       104.6796 
 368   0.0000       3.864531       105.1592 
 369   0.0000       3.882718       105.6541 
 370   0.0000       3.885954       105.7422 
 371   0.0000       3.911554       106.4388 
 372   0.0000       3.913615       106.4949 
 373   0.0000       3.936271       107.1114 
 374   0.0000       3.944718       107.3412 
 375   0.0000       3.971578       108.0721 
 376   0.0000       3.972993       108.1106 
 377   0.0000       3.985792       108.4589 
 378   0.0000       4.011798       109.1666 
 379   0.0000       4.012974       109.1986 
 380   0.0000       4.031560       109.7043 
 381   0.0000       4.051854       110.2565 
 382   0.0000       4.075378       110.8967 
 383   0.0000       4.075535       110.9009 
 384   0.0000       4.091934       111.3472 
 385   0.0000       4.102902       111.6456 
 386   0.0000       4.117302       112.0375 
 387   0.0000       4.135500       112.5327 
 388   0.0000       4.157212       113.1235 
 389   0.0000       4.168605       113.4335 
 390   0.0000       4.169220       113.4502 
 391   0.0000       4.178926       113.7144 
 392   0.0000       4.205119       114.4271 
 393   0.0000       4.220181       114.8370 
 394   0.0000       4.223123       114.9170 
 395   0.0000       4.238548       115.3368 
 396   0.0000       4.245360       115.5221 
 397   0.0000       4.286451       116.6403 
 398   0.0000       4.294454       116.8580 
 399   0.0000       4.306706       117.1914 
 400   0.0000       4.309921       117.2789 
 401   0.0000       4.317165       117.4760 
 402   0.0000       4.331234       117.8589 
 403   0.0000       4.345565       118.2488 
 404   0.0000       4.363979       118.7499 
 405   0.0000       4.378844       119.1544 
 406   0.0000       4.380208       119.1915 
 407   0.0000       4.396934       119.6467 
 408   0.0000       4.418879       120.2438 
 409   0.0000       4.430137       120.5501 
 410   0.0000       4.442629       120.8901 
 411   0.0000       4.450108       121.0936 
 412   0.0000       4.468961       121.6066 
 413   0.0000       4.478573       121.8682 
 414   0.0000       4.488419       122.1361 
 415   0.0000       4.518942       122.9667 
 416   0.0000       4.546873       123.7267 
 417   0.0000       4.551776       123.8601 
 418   0.0000       4.574668       124.4831 
 419   0.0000       4.576941       124.5449 
 420   0.0000       4.586240       124.7979 
 421   0.0000       4.602290       125.2347 
 422   0.0000       4.617614       125.6517 
 423   0.0000       4.643637       126.3598 
 424   0.0000       4.647658       126.4692 
 425   0.0000       4.662744       126.8797 
 426   0.0000       4.711109       128.1958 
 427   0.0000       4.723689       128.5381 
 428   0.0000       4.733963       128.8177 
 429   0.0000       4.738301       128.9357 
 430   0.0000       4.757242       129.4511 
 431   0.0000       4.789281       130.3230 
 432   0.0000       4.790248       130.3493 
 433   0.0000       4.828023       131.3772 
 434   0.0000       4.855341       132.1205 
 435   0.0000       4.856164       132.1429 
 436   0.0000       4.867315       132.4464 
 437   0.0000       4.881031       132.8196 
 438   0.0000       4.886433       132.9666 
 439   0.0000       4.895032       133.2006 
 440   0.0000       4.920874       133.9038 
 441   0.0000       4.921911       133.9320 
 442   0.0000       4.959372       134.9514 
 443   0.0000       4.966323       135.1405 
 444   0.0000       4.979909       135.5102 
 445   0.0000       5.007299       136.2555 
 446   0.0000       5.016524       136.5066 
 447   0.0000       5.060337       137.6988 
 448   0.0000       5.093255       138.5945 
 449   0.0000       5.110571       139.0657 
 450   0.0000       5.121957       139.3755 
 451   0.0000       5.152169       140.1977 
 452   0.0000       5.152635       140.2103 
 453   0.0000       5.159876       140.4074 
 454   0.0000       5.163565       140.5078 
 455   0.0000       5.227653       142.2517 
 456   0.0000       5.240074       142.5896 
 457   0.0000       5.267790       143.3438 
 458   0.0000       5.277185       143.5995 
 459   0.0000       5.309254       144.4721 
 460   0.0000       5.341930       145.3613 
 461   0.0000       5.377686       146.3343 
 462   0.0000       5.383432       146.4906 
 463   0.0000       5.397712       146.8792 
 464   0.0000       5.414720       147.3420 
 465   0.0000       5.466399       148.7483 
 466   0.0000       5.504319       149.7801 
 467   0.0000       5.528055       150.4260 
 468   0.0000       5.564846       151.4272 
 469   0.0000       5.573953       151.6750 
 470   0.0000       5.590663       152.1297 
 471   0.0000       5.595387       152.2582 
 472   0.0000       5.606256       152.5540 
 473   0.0000       5.639869       153.4686 
 474   0.0000       5.650352       153.7539 
 475   0.0000       5.662204       154.0764 
 476   0.0000       5.703758       155.2071 
 477   0.0000       5.707879       155.3193 
 478   0.0000       5.729630       155.9112 
 479   0.0000       5.744277       156.3097 
 480   0.0000       5.757476       156.6689 
 481   0.0000       5.793402       157.6465 
 482   0.0000       5.811932       158.1507 
 483   0.0000       5.842555       158.9840 
 484   0.0000       5.883737       160.1046 
 485   0.0000       5.923564       161.1884 
 486   0.0000       5.956715       162.0905 
 487   0.0000       5.957257       162.1052 
 488   0.0000       6.009512       163.5271 
 489   0.0000       6.080787       165.4666 
 490   0.0000       6.290974       171.1861 
 491   0.0000       6.345013       172.6566 
 492   0.0000      23.151388       629.9813 
 493   0.0000      23.170851       630.5109 
 494   0.0000      23.587373       641.8451 
 495   0.0000      23.634103       643.1166 
 496   0.0000      23.635016       643.1415 
 497   0.0000      23.794974       647.4942 
 498   0.0000      23.840144       648.7233 
 499   0.0000      23.861176       649.2956 

                    ********************************
                    * MULLIKEN POPULATION ANALYSIS *
                    ********************************

-----------------------
MULLIKEN ATOMIC CHARGES
-----------------------
   0 C :   -0.253713
   1 C :   -0.150333
   2 C :   -0.149648
   3 H :   -0.024393
   4 C :   -0.252817
   5 H :   -0.021641
   6 H :   -0.021727
   7 H :   -0.024463
   8 C :    0.210710
   9 H :    0.034995
  10 H :    0.024576
  11 C :    0.078483
  12 H :    0.045160
  13 H :    0.055565
  14 C :    0.210609
  15 H :    0.024444
  16 H :    0.034984
  17 C :    0.078316
  18 H :    0.045149
  19 H :    0.055745
Sum of atomic charges:    0.0000000

--------------------------------
MULLIKEN REDUCED ORBITAL CHARGES
--------------------------------
  0 C s       :     3.537118  s :     3.537118
      pz      :     0.980934  p :     2.654317
      px      :     0.770721
      py      :     0.902662
      dz2     :    -0.003025  d :     0.055363
      dxz     :     0.037978
      dyz     :     0.022501
      dx2y2   :    -0.007858
      dxy     :     0.005767
      f0      :     0.000674  f :     0.006914
      f+1     :     0.000839
      f-1     :     0.000604
      f+2     :     0.000904
      f-2     :     0.001160
      f+3     :     0.001523
      f-3     :     0.001210
  1 C s       :     3.391933  s :     3.391933
      pz      :     0.920200  p :     2.663745
      px      :     0.759989
      py      :     0.983556
      dz2     :     0.015760  d :     0.087690
      dxz     :     0.013651
      dyz     :    -0.004067
      dx2y2   :     0.010150
      dxy     :     0.052195
      f0      :     0.000778  f :     0.006965
      f+1     :     0.001061
      f-1     :     0.000429
      f+2     :     0.001236
      f-2     :     0.001147
      f+3     :     0.001511
      f-3     :     0.000804
  2 C s       :     3.391341  s :     3.391341
      pz      :     0.920231  p :     2.663545
      px      :     0.759749
      py      :     0.983565
      dz2     :     0.015776  d :     0.087796
      dxz     :     0.013678
      dyz     :    -0.004074
      dx2y2   :     0.010131
      dxy     :     0.052285
      f0      :     0.000778  f :     0.006965
      f+1     :     0.001061
      f-1     :     0.000429
      f+2     :     0.001236
      f-2     :     0.001147
      f+3     :     0.001511
      f-3     :     0.000804
  3 H s       :     0.991249  s :     0.991249
      pz      :     0.014952  p :     0.031123
      px      :     0.009239
      py      :     0.006933
      dz2     :     0.000519  d :     0.002021
      dxz     :     0.000343
      dyz     :     0.000329
      dx2y2   :     0.000530
      dxy     :     0.000300
  4 C s       :     3.536552  s :     3.536552
      pz      :     0.980774  p :     2.654079
      px      :     0.770609
      py      :     0.902695
      dz2     :    -0.003025  d :     0.055272
      dxz     :     0.037900
      dyz     :     0.022465
      dx2y2   :    -0.007855
      dxy     :     0.005786
      f0      :     0.000673  f :     0.006914
      f+1     :     0.000840
      f-1     :     0.000604
      f+2     :     0.000904
      f-2     :     0.001160
      f+3     :     0.001523
      f-3     :     0.001210
  5 H s       :     0.990203  s :     0.990203
      pz      :     0.014911  p :     0.029424
      px      :     0.006785
      py      :     0.007727
      dz2     :     0.000373  d :     0.002014
      dxz     :     0.000274
      dyz     :     0.000383
      dx2y2   :     0.000458
      dxy     :     0.000525
  6 H s       :     0.990305  s :     0.990305
      pz      :     0.014943  p :     0.029408
      px      :     0.006756
      py      :     0.007710
      dz2     :     0.000373  d :     0.002014
      dxz     :     0.000274
      dyz     :     0.000383
      dx2y2   :     0.000458
      dxy     :     0.000525
  7 H s       :     0.991333  s :     0.991333
      pz      :     0.014957  p :     0.031109
      px      :     0.009221
      py      :     0.006931
      dz2     :     0.000519  d :     0.002021
      dxz     :     0.000343
      dyz     :     0.000329
      dx2y2   :     0.000529
      dxy     :     0.000300
  8 C s       :     2.698528  s :     2.698528
      pz      :     0.916640  p :     2.930277
      px      :     0.979684
      py      :     1.033953
      dz2     :     0.077207  d :     0.155218
      dxz     :     0.012063
      dyz     :     0.016846
      dx2y2   :     0.020403
      dxy     :     0.028699
      f0      :     0.000358  f :     0.005267
      f+1     :     0.000905
      f-1     :     0.000619
      f+2     :     0.000783
      f-2     :     0.001141
      f+3     :     0.000741
      f-3     :     0.000721
  9 H s       :     0.920450  s :     0.920450
      pz      :     0.001359  p :     0.042489
      px      :     0.016392
      py      :     0.024737
      dz2     :     0.000174  d :     0.002067
      dxz     :     0.000371
      dyz     :     0.000420
      dx2y2   :     0.000801
      dxy     :     0.000302
 10 H s       :     0.947489  s :     0.947489
      pz      :     0.015690  p :     0.025862
      px      :     0.009440
      py      :     0.000732
      dz2     :     0.000579  d :     0.002073
      dxz     :     0.000469
      dyz     :     0.000524
      dx2y2   :     0.000219
      dxy     :     0.000282
 11 C s       :     2.888661  s :     2.888661
      pz      :     0.993873  p :     2.929044
      px      :     1.039087
      py      :     0.896084
      dz2     :     0.008168  d :     0.098553
      dxz     :     0.028063
      dyz     :     0.020633
      dx2y2   :     0.020353
      dxy     :     0.021336
      f0      :     0.000326  f :     0.005259
      f+1     :     0.000586
      f-1     :     0.000708
      f+2     :     0.000654
      f-2     :     0.001186
      f+3     :     0.000778
      f-3     :     0.001022
 12 H s       :     0.906634  s :     0.906634
      pz      :     0.021089  p :     0.046167
      px      :     0.012171
      py      :     0.012907
      dz2     :     0.000601  d :     0.002039
      dxz     :     0.000281
      dyz     :     0.000359
      dx2y2   :     0.000340
      dxy     :     0.000458
 13 H s       :     0.905608  s :     0.905608
      pz      :     0.021376  p :     0.036771
      px      :     0.010407
      py      :     0.004988
      dz2     :     0.000634  d :     0.002055
      dxz     :     0.000367
      dyz     :     0.000432
      dx2y2   :     0.000301
      dxy     :     0.000321
 14 C s       :     2.698895  s :     2.698895
      pz      :     0.916467  p :     2.930000
      px      :     0.979614
      py      :     1.033919
      dz2     :     0.077253  d :     0.155228
      dxz     :     0.012053
      dyz     :     0.016828
      dx2y2   :     0.020428
      dxy     :     0.028667
      f0      :     0.000357  f :     0.005267
      f+1     :     0.000905
      f-1     :     0.000619
      f+2     :     0.000784
      f-2     :     0.001141
      f+3     :     0.000741
      f-3     :     0.000720
 15 H s       :     0.947578  s :     0.947578
      pz      :     0.015678  p :     0.025904
      px      :     0.009481
      py      :     0.000746
      dz2     :     0.000579  d :     0.002073
      dxz     :     0.000469
      dyz     :     0.000523
      dx2y2   :     0.000220
      dxy     :     0.000283
 16 H s       :     0.920484  s :     0.920484
      pz      :     0.001359  p :     0.042465
      px      :     0.016373
      py      :     0.024733
      dz2     :     0.000174  d :     0.002067
      dxz     :     0.000371
      dyz     :     0.000420
      dx2y2   :     0.000800
      dxy     :     0.000302
 17 C s       :     2.888795  s :     2.888795
      pz      :     0.993906  p :     2.929062
      px      :     1.038926
      py      :     0.896231
      dz2     :     0.008147  d :     0.098568
      dxz     :     0.028121
      dyz     :     0.020620
      dx2y2   :     0.020371
      dxy     :     0.021309
      f0      :     0.000326  f :     0.005259
      f+1     :     0.000586
      f-1     :     0.000708
      f+2     :     0.000653
      f-2     :     0.001186
      f+3     :     0.000778
      f-3     :     0.001022
 18 H s       :     0.906631  s :     0.906631
      pz      :     0.021100  p :     0.046181
      px      :     0.012157
      py      :     0.012923
      dz2     :     0.000601  d :     0.002039
      dxz     :     0.000281
      dyz     :     0.000360
      dx2y2   :     0.000339
      dxy     :     0.000458
 19 H s       :     0.905455  s :     0.905455
      pz      :     0.021363  p :     0.036745
      px      :     0.010384
      py      :     0.004997
      dz2     :     0.000634  d :     0.002055
      dxz     :     0.000367
      dyz     :     0.000432
      dx2y2   :     0.000301
      dxy     :     0.000321


                     *******************************
                     * LOEWDIN POPULATION ANALYSIS *
                     *******************************

----------------------
LOEWDIN ATOMIC CHARGES
----------------------
   0 C :    0.005427
   1 C :    0.009945
   2 C :    0.009971
   3 H :   -0.003943
   4 C :    0.005431
   5 H :   -0.002769
   6 H :   -0.002783
   7 H :   -0.003947
   8 C :   -0.027495
   9 H :    0.011209
  10 H :   -0.004418
  11 C :   -0.021839
  12 H :    0.017757
  13 H :    0.016107
  14 C :   -0.027478
  15 H :   -0.004412
  16 H :    0.011212
  17 C :   -0.021834
  18 H :    0.017765
  19 H :    0.016094

-------------------------------
LOEWDIN REDUCED ORBITAL CHARGES
-------------------------------
  0 C s       :     2.655459  s :     2.655459
      pz      :     0.807504  p :     2.590571
      px      :     0.937614
      py      :     0.845453
      dz2     :     0.071064  d :     0.708318
      dxz     :     0.159828
      dyz     :     0.102468
      dx2y2   :     0.158703
      dxy     :     0.216254
      f0      :     0.003721  f :     0.040224
      f+1     :     0.004702
      f-1     :     0.003955
      f+2     :     0.005295
      f-2     :     0.005198
      f+3     :     0.008321
      f-3     :     0.009032
  1 C s       :     2.653046  s :     2.653046
      pz      :     0.807776  p :     2.592991
      px      :     0.933087
      py      :     0.852128
      dz2     :     0.099150  d :     0.703669
      dxz     :     0.179759
      dyz     :     0.085462
      dx2y2   :     0.171493
      dxy     :     0.167804
      f0      :     0.004948  f :     0.040350
      f+1     :     0.005429
      f-1     :     0.002596
      f+2     :     0.007373
      f-2     :     0.004672
      f+3     :     0.008647
      f-3     :     0.006685
  2 C s       :     2.653046  s :     2.653046
      pz      :     0.807758  p :     2.592995
      px      :     0.933095
      py      :     0.852142
      dz2     :     0.099125  d :     0.703640
      dxz     :     0.179738
      dyz     :     0.085443
      dx2y2   :     0.171538
      dxy     :     0.167796
      f0      :     0.004948  f :     0.040348
      f+1     :     0.005428
      f-1     :     0.002595
      f+2     :     0.007371
      f-2     :     0.004672
      f+3     :     0.008648
      f-3     :     0.006686
  3 H s       :     0.703672  s :     0.703672
      pz      :     0.096733  p :     0.271108
      px      :     0.086442
      py      :     0.087934
      dz2     :     0.006350  d :     0.029164
      dxz     :     0.006060
      dyz     :     0.006284
      dx2y2   :     0.005412
      dxy     :     0.005058
  4 C s       :     2.655458  s :     2.655458
      pz      :     0.807597  p :     2.590580
      px      :     0.937580
      py      :     0.845403
      dz2     :     0.071122  d :     0.708307
      dxz     :     0.159869
      dyz     :     0.102455
      dx2y2   :     0.158675
      dxy     :     0.216185
      f0      :     0.003719  f :     0.040225
      f+1     :     0.004707
      f-1     :     0.003958
      f+2     :     0.005296
      f-2     :     0.005197
      f+3     :     0.008319
      f-3     :     0.009030
  5 H s       :     0.702939  s :     0.702939
      pz      :     0.087974  p :     0.270559
      px      :     0.075833
      py      :     0.106753
      dz2     :     0.004729  d :     0.029271
      dxz     :     0.003070
      dyz     :     0.007942
      dx2y2   :     0.006831
      dxy     :     0.006699
  6 H s       :     0.702940  s :     0.702940
      pz      :     0.087985  p :     0.270572
      px      :     0.075827
      py      :     0.106760
      dz2     :     0.004730  d :     0.029272
      dxz     :     0.003070
      dyz     :     0.007943
      dx2y2   :     0.006829
      dxy     :     0.006699
  7 H s       :     0.703674  s :     0.703674
      pz      :     0.096758  p :     0.271108
      px      :     0.086432
      py      :     0.087918
      dz2     :     0.006356  d :     0.029164
      dxz     :     0.006063
      dyz     :     0.006287
      dx2y2   :     0.005406
      dxy     :     0.005053
  8 C s       :     2.605867  s :     2.605867
      pz      :     0.887965  p :     2.639096
      px      :     0.874892
      py      :     0.876239
      dz2     :     0.140596  d :     0.741745
      dxz     :     0.158271
      dyz     :     0.137820
      dx2y2   :     0.108230
      dxy     :     0.196828
      f0      :     0.004228  f :     0.040787
      f+1     :     0.006862
      f-1     :     0.005893
      f+2     :     0.005597
      f-2     :     0.006120
      f+3     :     0.006368
      f-3     :     0.005719
  9 H s       :     0.690441  s :     0.690441
      pz      :     0.076493  p :     0.268347
      px      :     0.092528
      py      :     0.099327
      dz2     :     0.003140  d :     0.030003
      dxz     :     0.004821
      dyz     :     0.005963
      dx2y2   :     0.008447
      dxy     :     0.007631
 10 H s       :     0.674051  s :     0.674051
      pz      :     0.106153  p :     0.299763
      px      :     0.095933
      py      :     0.097677
      dz2     :     0.009838  d :     0.030605
      dxz     :     0.007850
      dyz     :     0.007340
      dx2y2   :     0.002333
      dxy     :     0.003244
 11 C s       :     2.615102  s :     2.615102
      pz      :     0.895180  p :     2.639386
      px      :     0.875135
      py      :     0.869071
      dz2     :     0.083245  d :     0.727092
      dxz     :     0.162309
      dyz     :     0.166157
      dx2y2   :     0.154035
      dxy     :     0.161347
      f0      :     0.004104  f :     0.040258
      f+1     :     0.004876
      f-1     :     0.006146
      f+2     :     0.005476
      f-2     :     0.006264
      f+3     :     0.005887
      f-3     :     0.007505
 12 H s       :     0.687537  s :     0.687537
      pz      :     0.094351  p :     0.265269
      px      :     0.094772
      py      :     0.076146
      dz2     :     0.006916  d :     0.029437
      dxz     :     0.007376
      dyz     :     0.004670
      dx2y2   :     0.004911
      dxy     :     0.005564
 13 H s       :     0.684715  s :     0.684715
      pz      :     0.104023  p :     0.269305
      px      :     0.083443
      py      :     0.081839
      dz2     :     0.008183  d :     0.029873
      dxz     :     0.007577
      dyz     :     0.006520
      dx2y2   :     0.003431
      dxy     :     0.004163
 14 C s       :     2.605863  s :     2.605863
      pz      :     0.887955  p :     2.639089
      px      :     0.874888
      py      :     0.876246
      dz2     :     0.140530  d :     0.741737
      dxz     :     0.158322
      dyz     :     0.137906
      dx2y2   :     0.108214
      dxy     :     0.196765
      f0      :     0.004230  f :     0.040789
      f+1     :     0.006863
      f-1     :     0.005893
      f+2     :     0.005596
      f-2     :     0.006124
      f+3     :     0.006366
      f-3     :     0.005718
 15 H s       :     0.674031  s :     0.674031
      pz      :     0.106124  p :     0.299778
      px      :     0.095950
      py      :     0.097704
      dz2     :     0.009833  d :     0.030603
      dxz     :     0.007848
      dyz     :     0.007337
      dx2y2   :     0.002337
      dxy     :     0.003248
 16 H s       :     0.690450  s :     0.690450
      pz      :     0.076501  p :     0.268336
      px      :     0.092515
      py      :     0.099320
      dz2     :     0.003143  d :     0.030002
      dxz     :     0.004822
      dyz     :     0.005964
      dx2y2   :     0.008444
      dxy     :     0.007629
 17 C s       :     2.615099  s :     2.615099
      pz      :     0.895191  p :     2.639393
      px      :     0.875132
      py      :     0.869070
      dz2     :     0.083236  d :     0.727083
      dxz     :     0.162338
      dyz     :     0.166131
      dx2y2   :     0.154024
      dxy     :     0.161355
      f0      :     0.004103  f :     0.040259
      f+1     :     0.004878
      f-1     :     0.006146
      f+2     :     0.005475
      f-2     :     0.006265
      f+3     :     0.005886
      f-3     :     0.007506
 18 H s       :     0.687528  s :     0.687528
      pz      :     0.094372  p :     0.265270
      px      :     0.094747
      py      :     0.076150
      dz2     :     0.006919  d :     0.029437
      dxz     :     0.007375
      dyz     :     0.004674
      dx2y2   :     0.004908
      dxy     :     0.005561
 19 H s       :     0.684726  s :     0.684726
      pz      :     0.104014  p :     0.269306
      px      :     0.083462
      py      :     0.081830
      dz2     :     0.008181  d :     0.029874
      dxz     :     0.007577
      dyz     :     0.006517
      dx2y2   :     0.003433
      dxy     :     0.004165


                      *****************************
                      * MAYER POPULATION ANALYSIS *
                      *****************************

  NA   - Mulliken gross atomic population
  ZA   - Total nuclear charge
  QA   - Mulliken gross atomic charge
  VA   - Mayer's total valence
  BVA  - Mayer's bonded valence
  FA   - Mayer's free valence

  ATOM       NA         ZA         QA         VA         BVA        FA
  0 C      6.2537     6.0000    -0.2537     3.5887     3.5887     0.0000
  1 C      6.1503     6.0000    -0.1503     3.4157     3.4157     0.0000
  2 C      6.1496     6.0000    -0.1496     3.4154     3.4154    -0.0000
  3 H      1.0244     1.0000    -0.0244     0.9961     0.9961     0.0000
  4 C      6.2528     6.0000    -0.2528     3.5889     3.5889     0.0000
  5 H      1.0216     1.0000    -0.0216     0.9927     0.9927     0.0000
  6 H      1.0217     1.0000    -0.0217     0.9927     0.9927    -0.0000
  7 H      1.0245     1.0000    -0.0245     0.9962     0.9962     0.0000
  8 C      5.7893     6.0000     0.2107     3.7825     3.7825     0.0000
  9 H      0.9650     1.0000     0.0350     1.0852     1.0852     0.0000
 10 H      0.9754     1.0000     0.0246     0.9766     0.9766     0.0000
 11 C      5.9215     6.0000     0.0785     3.7959     3.7959     0.0000
 12 H      0.9548     1.0000     0.0452     1.0585     1.0585     0.0000
 13 H      0.9444     1.0000     0.0556     1.0537     1.0537     0.0000
 14 C      5.7894     6.0000     0.2106     3.7827     3.7827    -0.0000
 15 H      0.9756     1.0000     0.0244     0.9768     0.9768     0.0000
 16 H      0.9650     1.0000     0.0350     1.0851     1.0851     0.0000
 17 C      5.9217     6.0000     0.0783     3.7957     3.7957    -0.0000
 18 H      0.9549     1.0000     0.0451     1.0586     1.0586     0.0000
 19 H      0.9443     1.0000     0.0557     1.0535     1.0535    -0.0000

  Mayer bond orders larger than 0.100000
B(  0-C ,  2-C ) :   1.3738 B(  0-C ,  3-H ) :   1.1246 B(  0-C , 11-C ) :   1.0333 
B(  1-C ,  4-C ) :   1.3744 B(  1-C ,  5-H ) :   1.0899 B(  1-C , 11-C ) :   0.2145 
B(  1-C , 14-C ) :   0.8996 B(  1-C , 17-C ) :  -0.1499 B(  2-C ,  6-H ) :   1.0898 
B(  2-C ,  8-C ) :   0.9001 B(  2-C , 11-C ) :  -0.1500 B(  2-C , 17-C ) :   0.2142 
B(  4-C ,  7-H ) :   1.1246 B(  4-C , 17-C ) :   1.0329 B(  8-C ,  9-H ) :   1.0133 
B(  8-C , 10-H ) :   0.9623 B(  8-C , 14-C ) :   0.2358 B(  8-C , 17-C ) :   0.7777 
B( 11-C , 12-H ) :   0.9474 B( 11-C , 13-H ) :   0.9517 B( 11-C , 14-C ) :   0.7778 
B( 14-C , 15-H ) :   0.9626 B( 14-C , 16-H ) :   1.0133 B( 17-C , 18-H ) :   0.9475 
B( 17-C , 19-H ) :   0.9517 

-------
TIMINGS
-------

Total SCF time: 0 days 0 hours 1 min 26 sec 

Total time                  ....      86.360 sec
Sum of individual times     ....      85.786 sec  ( 99.3%)

Fock matrix formation       ....      84.425 sec  ( 97.8%)
  XC integration            ....       1.723 sec  (  2.0% of F)
    Basis function eval.    ....       0.281 sec  ( 16.3% of XC)
    Density eval.           ....       0.432 sec  ( 25.0% of XC)
    XC-Functional eval.     ....       0.047 sec  (  2.7% of XC)
    XC-Potential eval.      ....       0.608 sec  ( 35.3% of XC)
Diagonalization             ....       0.102 sec  (  0.1%)
Density matrix formation    ....       0.020 sec  (  0.0%)
Population analysis         ....       0.041 sec  (  0.0%)
Initial guess               ....       0.415 sec  (  0.5%)
Orbital Transformation      ....       0.000 sec  (  0.0%)
Orbital Orthonormalization  ....       0.000 sec  (  0.0%)
DIIS solution               ....       0.030 sec  (  0.0%)
SOSCF solution              ....       0.265 sec  (  0.3%)
Grid generation             ....       0.489 sec  (  0.6%)

-------------------------   --------------------
FINAL SINGLE POINT ENERGY      -312.059908147636
-------------------------   --------------------


                            ***************************************
                            *     ORCA property calculations      *
                            ***************************************

                                    ---------------------
                                    Active property flags
                                    ---------------------
   (+) Dipole Moment


------------------------------------------------------------------------------
                       ORCA ELECTRIC PROPERTIES CALCULATION
------------------------------------------------------------------------------

Dipole Moment Calculation                       ... on
Quadrupole Moment Calculation                   ... off
Polarizability Calculation                      ... off
GBWName                                         ... MOR06_cod.gbw
Electron density file                           ... MOR06_cod.scfp
The origin for moment calculation is the CENTER OF MASS  = ( 0.000005, -0.000005 -0.015873)

-------------
DIPOLE MOMENT
-------------
                                X             Y             Z
Electronic contribution:      0.00031      -0.00032      -0.85547
Nuclear contribution   :     -0.00029       0.00032       0.95237
                        -----------------------------------------
Total Dipole Moment    :      0.00002       0.00000       0.09690
                        -----------------------------------------
Magnitude (a.u.)       :      0.09690
Magnitude (Debye)      :      0.24631



--------------------
Rotational spectrum 
--------------------
 
Rotational constants in cm-1:     0.087291     0.074989     0.047810 
Rotational constants in MHz :  2616.931187  2248.128417  1433.302108 

 Dipole components along the rotational axes: 
x,y,z [a.u.] :    -0.000018    -0.000001     0.096904 
x,y,z [Debye]:    -0.000046    -0.000002     0.246310 

 

Timings for individual modules:

Sum of individual times         ...       87.800 sec (=   1.463 min)
GTO integral calculation        ...        0.985 sec (=   0.016 min)   1.1 %
SCF iterations                  ...       86.815 sec (=   1.447 min)  98.9 %
                             ****ORCA TERMINATED NORMALLY****
TOTAL RUN TIME: 0 days 0 hours 1 minutes 28 seconds 435 msec
