
                                 *****************
                                 * O   R   C   A *
                                 *****************

           --- An Ab Initio, DFT and Semiempirical electronic structure package ---

                  #######################################################
                  #                        -***-                        #
                  #          Department of theory and spectroscopy      #
                  #               Directorship: Frank Neese             #
                  #        Max Planck Institute fuer Kohlenforschung    #
                  #                Kaiser Wilhelm Platz 1               #
                  #                 D-45470 Muelheim/Ruhr               #
                  #                      Germany                        #
                  #                                                     #
                  #                  All rights reserved                #
                  #                        -***-                        #
                  #######################################################


                         Program Version 4.2.0 -  RELEASE  -


 With contributions from (in alphabetic order):
   Daniel Aravena         : Magnetic Suceptibility
   Michael Atanasov       : Ab Initio Ligand Field Theory (pilot matlab implementation)
   Alexander A. Auer      : GIAO ZORA, VPT2
   Ute Becker             : Parallelization
   Giovanni Bistoni       : ED, misc. LED, open-shell LED, HFLED
   Martin Brehm           : Molecular dynamics
   Dmytro Bykov           : SCF Hessian
   Vijay G. Chilkuri      : MRCI spin determinant printing, contributions to CSF-ICE
   Dipayan Datta          : RHF DLPNO-CCSD density
   Achintya Kumar Dutta   : EOM-CC, STEOM-CC
   Dmitry Ganyushin       : Spin-Orbit,Spin-Spin,Magnetic field MRCI
   Miquel Garcia          : C-PCM Hessian, Gaussian charge scheme
   Yang Guo               : DLPNO-NEVPT2, CIM, IAO-localization
   Andreas Hansen         : Spin unrestricted coupled pair/coupled cluster methods
   Benjamin Helmich-Paris : CASSCF linear response (MC-RPA)
   Lee Huntington         : MR-EOM, pCC
   Robert Izsak           : Overlap fitted RIJCOSX, COSX-SCS-MP3, EOM
   Christian Kollmar      : KDIIS, OOCD, Brueckner-CCSD(T), CCSD density
   Simone Kossmann        : Meta GGA functionals, TD-DFT gradient, OOMP2, MP2 Hessian
   Martin Krupicka        : AUTO-CI
   Lucas Lang             : DCDCAS
   Dagmar Lenk            : GEPOL surface, SMD
   Dimitrios Liakos       : Extrapolation schemes; Compound Job, initial MDCI parallelization
   Dimitrios Manganas     : Further ROCIS development; embedding schemes
   Dimitrios Pantazis     : SARC Basis sets
   Taras Petrenko         : DFT Hessian,TD-DFT gradient, ASA, ECA, R-Raman, ABS, FL, XAS/XES, NRVS
   Peter Pinski           : DLPNO-MP2, DLPNO-MP2 Gradient
   Christoph Reimann      : Effective Core Potentials
   Marius Retegan         : Local ZFS, SOC
   Christoph Riplinger    : Optimizer, TS searches, QM/MM, DLPNO-CCSD(T), (RO)-DLPNO pert. Triples
   Tobias Risthaus        : Range-separated hybrids, TD-DFT gradient, RPA, STAB
   Michael Roemelt        : Original ROCIS implementation
   Masaaki Saitow         : Open-shell DLPNO-CCSD energy and density
   Barbara Sandhoefer     : DKH picture change effects
   Avijit Sen             : IP-ROCIS
   Kantharuban Sivalingam : CASSCF convergence, NEVPT2, FIC-MRCI
   Bernardo de Souza      : ESD, SOC TD-DFT
   Georgi Stoychev        : AutoAux, RI-MP2 NMR
   Willem Van den Heuvel  : Paramagnetic NMR
   Boris Wezisla          : Elementary symmetry handling
   Frank Wennmohs         : Technical directorship


 We gratefully acknowledge several colleagues who have allowed us to
 interface, adapt or use parts of their codes:
   Stefan Grimme, W. Hujo, H. Kruse,             : VdW corrections, initial TS optimization,
                  C. Bannwarth                     DFT functionals, gCP, sTDA/sTD-DF
   Ed Valeev, F. Pavosevic, A. Kumar             : LibInt (2-el integral package), F12 methods
   Garnet Chan, S. Sharma, J. Yang, R. Olivares  : DMRG
   Ulf Ekstrom                                   : XCFun DFT Library
   Mihaly Kallay                                 : mrcc  (arbitrary order and MRCC methods)
   Andreas Klamt, Michael Diedenhofen            : otool_cosmo (COSMO solvation model)
   Jiri Pittner, Ondrej Demel                    : Mk-CCSD
   Frank Weinhold                                : gennbo (NPA and NBO analysis)
   Christopher J. Cramer and Donald G. Truhlar   : smd solvation model
   Lars Goerigk                                  : TD-DFT with DH, B97 family of functionals
   V. Asgeirsson, H. Jonsson                     : NEB implementation
   FAccTs GmbH                                   : IRC, NEB, NEB-TS, Multilevel, MM, QM/MM, CI optimization
   S Lehtola, MJT Oliveira, MAL Marques          : LibXC Library


 Your calculation uses the libint2 library for the computation of 2-el integrals
 For citations please refer to: http://libint.valeyev.net

 Your ORCA version has been built with support for libXC version: 4.2.3
 For citations please refer to: https://tddft.org/programs/libxc/

 This ORCA versions uses:
   CBLAS   interface :  Fast vector & matrix operations
   LAPACKE interface :  Fast linear algebra routines
   SCALAPACK package :  Parallel linear algebra routines


Your calculation utilizes the DFT-NL dispersion correction.
Cite in your paper:
Vydrov, O. A.; Van Voorhis, T. J. Chem. Phys. 2010, 133, 244103
Hujo, W.; Grimme, S. J. Chem. Theory Comput. 2011, 7, 3866 
   

----- Orbital basis set information -----
Your calculation utilizes the basis: def2-TZVPPD
   F. Weigend and R. Ahlrichs, Phys. Chem. Chem. Phys. 7, 3297 (2005).
   D. Rappoport and F. Furche, J. Chem. Phys. 133 134105 (2010).

----- AuxJK basis set information -----
Your calculation utilizes the auxiliary basis: def2/JK
   H-Ba, Hf-Rn: F. Weigend, J. Comput. Chem. 29, 167 (2008).

cite the ECPs for Pd [Def2-ECP], I  [Def2-ECP] as follows:
Ce-Yb(ecp-28): M. Dolg, H. Stoll, H.Preuss, J. Chem. Phys., 1989, 90, 1730-1734.
Y-Cd(ecp-28), Hf-Hg(ecp-46): D. Andrae,U. Haeussermann, M. Dolg, H. Stoll, H. Preuss, Theor. Chim. Acta, 1990, 77, 123-141.
In-Sb(ecp-28), Tl-Bi(ecp-46): B. Metz, H. Stoll, M. Dolg, J. Chem. Phys., 2000, 113, 2563-2569.
Te-Xe(ecp-28), Po-Rn(ecp-46): K. A. Peterson, D. Figgen, E. Goll, H. Stoll, M. Dolg, J. Chem. Phys., 2003, 119, 11113-11123.
Rb(ecp-28), Cs(ecp-46): T. Leininger, A. Nicklass, W. Kuechle, H. Stoll, M. Dolg, A. Bergner, Chem. Phys. Lett., 1996, 255, 274-280.
Sr(ecp-28), Ba(ecp-46): M. Kaupp, P. V. Schleyer, H. Stoll and H. Preuss, J. Chem. Phys., 1991, 94, 1360-1366.
La(ecp-46): M. Dolg, H. Stoll, A. Savin, H. Preuss, Theor. Chim. Acta, 1989, 75, 173-194.
Lu(ecp-28): X. Cao, M. Dolg, J. Chem. Phys., 2001, 115, 7348-7355.

ECP parameters for Pd [Def2-ECP], I  [Def2-ECP] have been obtained from:
TURBOMOLE (7.0.2)

================================================================================
                                        WARNINGS
                       Please study these warnings very carefully!
================================================================================


INFO   : the flag for use of LIBINT has been found!

================================================================================
                                       INPUT FILE
================================================================================
NAME = MOR11_ed11.in
|  1> #
|  2> # MOR11_ed11 wB97X-V/Def2-TZVPPD
|  3> #
|  4> ! wb97x-v def2-tzvppd def2/jk grid4 nofinalgrid
|  5> 
|  6> *xyz 0 1
|  7> C       -0.215143    2.474912    0.000943 
|  8> C        0.405007    3.719049    0.001069 
|  9> C        1.797844    3.776033    0.000678 
| 10> C        2.518886    2.587780    0.000166 
| 11> H       -1.296303    2.357179    0.001183 
| 12> H       -0.198474    4.620568    0.001502 
| 13> H        2.316345    4.729851    0.000789 
| 14> H        3.602578    2.611029   -0.000041 
| 15> N        0.477795    1.324684    0.000439 
| 16> C        1.835277    1.367244    0.000057 
| 17> C        2.509992    0.059887   -0.000357 
| 18> N        1.694840   -1.036421    0.000876 
| 19> C        2.257001   -2.260308    0.000535 
| 20> C        4.472096   -1.347919   -0.002398 
| 21> C        3.629983   -2.459360   -0.001050 
| 22> H        1.562821   -3.092687    0.001515 
| 23> H        4.023772   -3.470102   -0.001337 
| 24> C        3.900751   -0.081941   -0.002040 
| 25> H        4.532932    0.798314   -0.003223 
| 26> H        5.551118   -1.464051   -0.003853 
| 27> Pd      -0.336917   -0.654572    0.001071 
| 28> C       -0.858975   -2.626404    0.002691 
| 29> H       -0.413078   -3.060930    0.907026 
| 30> H       -0.415091   -3.062278   -0.901950 
| 31> H       -1.933716   -2.807010    0.004117 
| 32> I       -2.840745   -0.024929   -0.001244 
| 33> *
| 34> 
| 35> %maxcore 5000
| 36> 
| 37> %pal
| 38> nprocs = 24
| 39> end
| 40> 
| 41> 
| 42>                          ****END OF INPUT****
================================================================================

                       ****************************
                       * Single Point Calculation *
                       ****************************

---------------------------------
CARTESIAN COORDINATES (ANGSTROEM)
---------------------------------
  C     -0.215143    2.474912    0.000943
  C      0.405007    3.719049    0.001069
  C      1.797844    3.776033    0.000678
  C      2.518886    2.587780    0.000166
  H     -1.296303    2.357179    0.001183
  H     -0.198474    4.620568    0.001502
  H      2.316345    4.729851    0.000789
  H      3.602578    2.611029   -0.000041
  N      0.477795    1.324684    0.000439
  C      1.835277    1.367244    0.000057
  C      2.509992    0.059887   -0.000357
  N      1.694840   -1.036421    0.000876
  C      2.257001   -2.260308    0.000535
  C      4.472096   -1.347919   -0.002398
  C      3.629983   -2.459360   -0.001050
  H      1.562821   -3.092687    0.001515
  H      4.023772   -3.470102   -0.001337
  C      3.900751   -0.081941   -0.002040
  H      4.532932    0.798314   -0.003223
  H      5.551118   -1.464051   -0.003853
  Pd    -0.336917   -0.654572    0.001071
  C     -0.858975   -2.626404    0.002691
  H     -0.413078   -3.060930    0.907026
  H     -0.415091   -3.062278   -0.901950
  H     -1.933716   -2.807010    0.004117
  I     -2.840745   -0.024929   -0.001244

----------------------------
CARTESIAN COORDINATES (A.U.)
----------------------------
  NO LB      ZA    FRAG     MASS         X           Y           Z
   0 C     6.0000    0    12.011   -0.406561    4.676906    0.001782
   1 C     6.0000    0    12.011    0.765352    7.027984    0.002020
   2 C     6.0000    0    12.011    3.397433    7.135668    0.001281
   3 C     6.0000    0    12.011    4.760005    4.890195    0.000314
   4 H     1.0000    0     1.008   -2.449658    4.454423    0.002236
   5 H     1.0000    0     1.008   -0.375062    8.731608    0.002838
   6 H     1.0000    0     1.008    4.377258    8.938123    0.001491
   7 H     1.0000    0     1.008    6.807886    4.934130   -0.000077
   8 N     7.0000    0    14.007    0.902902    2.503290    0.000830
   9 C     6.0000    0    12.011    3.468171    2.583717    0.000108
  10 C     6.0000    0    12.011    4.743197    0.113170   -0.000675
  11 N     7.0000    0    14.007    3.202783   -1.958552    0.001655
  12 C     6.0000    0    12.011    4.265114   -4.271363    0.001011
  13 C     6.0000    0    12.011    8.451037   -2.547198   -0.004532
  14 C     6.0000    0    12.011    6.859674   -4.647517   -0.001984
  15 H     1.0000    0     1.008    2.953304   -5.844331    0.002863
  16 H     1.0000    0     1.008    7.603827   -6.557542   -0.002527
  17 C     6.0000    0    12.011    7.371351   -0.154846   -0.003855
  18 H     1.0000    0     1.008    8.566000    1.508595   -0.006091
  19 H     1.0000    0     1.008   10.490093   -2.766655   -0.007281
  20 Pd   18.0000*   0   106.400   -0.636681   -1.236962    0.002024
  21 C     6.0000    0    12.011   -1.623228   -4.963184    0.005085
  22 H     1.0000    0     1.008   -0.780604   -5.784319    1.714031
  23 H     1.0000    0     1.008   -0.784408   -5.786867   -1.704438
  24 H     1.0000    0     1.008   -3.654194   -5.304480    0.007780
  25 I    25.0000*   0   126.900   -5.368230   -0.047109   -0.002351
* core charge reduced due to ECP

--------------------------------
INTERNAL COORDINATES (ANGSTROEM)
--------------------------------
 C      0   0   0     0.000000000000     0.00000000     0.00000000
 C      1   0   0     1.390130538167     0.00000000     0.00000000
 C      2   1   0     1.394002237339   118.83711176     0.00000000
 C      3   2   1     1.389908996991   118.90694601     0.00000000
 H      1   2   3     1.087551406826   122.70906397   180.00284307
 H      2   1   3     1.084862208859   119.70713808   180.00216069
 H      3   2   1     1.085639017559   120.87154500   180.00165553
 H      4   3   2     1.083941377434   120.02072603   180.00626221
 N      1   2   3     1.342828275635   122.43942809     0.00000000
 C      9   1   2     1.358149063928   119.27049038     0.00000000
 C     10   9   1     1.471197752877   115.50208954   179.99455671
 N     11  10   9     1.366149894505   116.06974155   359.94470710
 C     12  11  10     1.346820142028   118.69711968   179.99840289
 C     13  12  11     2.395643577170    92.28391119     0.00000000
 C     13  12  11     1.387336939338   122.91960657     0.00000000
 H     13  12  11     1.083854986814   115.50237785   180.00257567
 H     15  13  12     1.084743863524   119.53522378   180.00543293
 C     14  13  12     1.388933235859    88.09655549     0.00000000
 H     18  14  13     1.083744933679   120.02483225   180.01107621
 H     14  13  12     1.085254456306   151.47051943   180.02007691
 Pd    12  11  10     2.067328034898   115.98835512     0.06244482
 C     21  12  11     2.039771706831    94.18524209   179.99033678
 H     22  21  12     1.097933864816   106.21819733    59.04752517
 H     22  21  12     1.097904589759   106.23938293   300.85984525
 H     22  21  12     1.089811349635   114.36850026   179.94039775
 I     21  12  11     2.581784328765   176.52795742     0.88253711

---------------------------
INTERNAL COORDINATES (A.U.)
---------------------------
 C      0   0   0     0.000000000000     0.00000000     0.00000000
 C      1   0   0     2.626966007537     0.00000000     0.00000000
 C      2   1   0     2.634282458644   118.83711176     0.00000000
 C      3   2   1     2.626547355386   118.90694601     0.00000000
 H      1   2   3     2.055174315462   122.70906397   180.00284307
 H      2   1   3     2.050092467785   119.70713808   180.00216069
 H      3   2   1     2.051560423485   120.87154500   180.00165553
 H      4   3   2     2.048352348576   120.02072603   180.00626221
 N      1   2   3     2.537577685835   122.43942809     0.00000000
 C      9   1   2     2.566529779865   119.27049038     0.00000000
 C     10   9   1     2.780160841778   115.50208954   179.99455671
 N     11  10   9     2.581649158501   116.06974155   359.94470710
 C     12  11  10     2.545121220081   118.69711968   179.99840289
 C     13  12  11     4.527110275338    92.28391119     0.00000000
 C     13  12  11     2.621686870822   122.91960657     0.00000000
 H     13  12  11     2.048189093963   115.50237785   180.00257567
 H     15  13  12     2.049868827513   119.53522378   180.00543293
 C     14  13  12     2.624703434074    88.09655549     0.00000000
 H     18  14  13     2.047981123678   120.02483225   180.01107621
 H     14  13  12     2.050833708037   151.47051943   180.02007691
 Pd    12  11  10     3.906683814935   115.98835512     0.06244482
 C     21  12  11     3.854609901632    94.18524209   179.99033678
 H     22  21  12     2.074794317660   106.21819733    59.04752517
 H     22  21  12     2.074738995819   106.23938293   300.85984525
 H     22  21  12     2.059444988449   114.36850026   179.94039775
 I     21  12  11     4.878865318216   176.52795742     0.88253711

---------------------
BASIS SET INFORMATION
---------------------
There are 5 groups of distinct atoms

 Group   1 Type C   : 12s6p3d1f contracted to 6s3p3d1f pattern {621111/411/111/1}
 Group   2 Type H   : 5s3p1d contracted to 3s3p1d pattern {311/111/1}
 Group   3 Type N   : 12s6p3d1f contracted to 6s3p3d1f pattern {621111/411/111/1}
 Group   4 Type Pd  : 7s7p6d2f1g contracted to 6s4p3d2f1g pattern {211111/4111/411/11/1}
 Group   5 Type I   : 12s11p9d2f contracted to 7s6p4d2f pattern {5211111/341111/6111/11}

Atom   0C    basis set group =>   1
Atom   1C    basis set group =>   1
Atom   2C    basis set group =>   1
Atom   3C    basis set group =>   1
Atom   4H    basis set group =>   2
Atom   5H    basis set group =>   2
Atom   6H    basis set group =>   2
Atom   7H    basis set group =>   2
Atom   8N    basis set group =>   3
Atom   9C    basis set group =>   1
Atom  10C    basis set group =>   1
Atom  11N    basis set group =>   3
Atom  12C    basis set group =>   1
Atom  13C    basis set group =>   1
Atom  14C    basis set group =>   1
Atom  15H    basis set group =>   2
Atom  16H    basis set group =>   2
Atom  17C    basis set group =>   1
Atom  18H    basis set group =>   2
Atom  19H    basis set group =>   2
Atom  20Pd   basis set group =>   4
Atom  21C    basis set group =>   1
Atom  22H    basis set group =>   2
Atom  23H    basis set group =>   2
Atom  24H    basis set group =>   2
Atom  25I    basis set group =>   5
----------------------------------
AUXILIARY/JK BASIS SET INFORMATION
----------------------------------
There are 5 groups of distinct atoms

 Group   1 Type C   : 14s10p6d2f1g contracted to 10s8p5d1f1g pattern {5111111111/31111111/21111/2/1}
 Group   2 Type H   : 4s2p2d contracted to 2s2p2d pattern {31/11/11}
 Group   3 Type N   : 14s10p6d2f1g contracted to 10s8p4d2f1g pattern {5111111111/31111111/3111/11/1}
 Group   4 Type Pd  : 13s12p10d9f6g3h2i contracted to 11s10p9d8f6g3h2i pattern {31111111111/3111111111/211111111/21111111/111111/111/11}
 Group   5 Type I   : 13s12p11d8f6g3h contracted to 11s10p10d7f5g3h pattern {31111111111/3111111111/2111111111/2111111/21111/111}

Atom   0C    basis set group =>   1
Atom   1C    basis set group =>   1
Atom   2C    basis set group =>   1
Atom   3C    basis set group =>   1
Atom   4H    basis set group =>   2
Atom   5H    basis set group =>   2
Atom   6H    basis set group =>   2
Atom   7H    basis set group =>   2
Atom   8N    basis set group =>   3
Atom   9C    basis set group =>   1
Atom  10C    basis set group =>   1
Atom  11N    basis set group =>   3
Atom  12C    basis set group =>   1
Atom  13C    basis set group =>   1
Atom  14C    basis set group =>   1
Atom  15H    basis set group =>   2
Atom  16H    basis set group =>   2
Atom  17C    basis set group =>   1
Atom  18H    basis set group =>   2
Atom  19H    basis set group =>   2
Atom  20Pd   basis set group =>   4
Atom  21C    basis set group =>   1
Atom  22H    basis set group =>   2
Atom  23H    basis set group =>   2
Atom  24H    basis set group =>   2
Atom  25I    basis set group =>   5
-------------------------
ECP PARAMETER INFORMATION
-------------------------

 Group 1, Type Pd ECP Def2-ECP (replacing 28 core electrons, lmax=3)
 Group 2, Type I  ECP Def2-ECP (replacing 28 core electrons, lmax=3)

Atom  20Pd   ECP group =>   1
Atom  25I    ECP group =>   2



           ************************************************************
           *        Program running with 24 parallel MPI-processes    *
           *              working on a common directory               *
           ************************************************************
------------------------------------------------------------------------------
                           ORCA GTO INTEGRAL CALCULATION
------------------------------------------------------------------------------

                         BASIS SET STATISTICS AND STARTUP INFO

 # of primitive gaussian shells          ...  442
 # of primitive gaussian functions       ... 1070
 # of contracted shells                  ...  281
 # of contracted basis functions         ...  783
 Highest angular momentum                ...    4
 Maximum contraction depth               ...    6
 Integral package used                   ... LIBINT
 Integral threshhold            Thresh   ...  1.000e-10
 Primitive cut-off              TCut     ...  1.000e-11


------------------------------ INTEGRAL EVALUATION ----------------------------


 * One electron integrals 

   ECP integrals                         ... done
 Pre-screening matrix                    ... done
 Shell pair data                         ... done (   0.009 sec)



           ************************************************************
           *        Program running with 24 parallel MPI-processes    *
           *              working on a common directory               *
           ************************************************************
-------------------------------------------------------------------------------
                                 ORCA SCF
-------------------------------------------------------------------------------

------------
SCF SETTINGS
------------
Hamiltonian:
 Density Functional     Method          .... DFT(GTOs)
 Exchange Functional    Exchange        .... WB97X-V
 Correlation Functional Correlation     .... WB97X-V
 Gradients option       PostSCFGGA      .... off
 Hybrid DFT is turned on
   Fraction HF Exchange ScalHFX         ....  0.167000
   Scaling of DF-GGA-X  ScalDFX         ....  0.000000
   Scaling of DF-GGA-C  ScalDFC         ....  1.000000
   Scaling of DF-LDA-C  ScalLDAC        ....  1.000000
   Perturbative correction              ....  0.000000
   Density functional embedding theory  .... OFF
 Long-range corrected/Screened/Range-Separated Hybrid DFT is turned on
   Amount of maximum screened exact exchange              ....  0.833000
   Range separation parameter mu (erf(mu*r12)/r12)        ....  0.300000
   NL short-range parameter             ....  6.000000
   NL long-range parameter              ....  0.010000


General Settings:
 Integral files         IntName         .... MOR11_ed11
 Hartree-Fock type      HFTyp           .... RHF
 Total Charge           Charge          ....    0
 Multiplicity           Mult            ....    1
 Number of Electrons    NEL             ....  134
 Basis Dimension        Dim             ....  783
 Nuclear Repulsion      ENuc            ....   1306.7874881661 Eh

Convergence Acceleration:
 DIIS                   CNVDIIS         .... on
   Start iteration      DIISMaxIt       ....    12
   Startup error        DIISStart       ....  0.200000
   # of expansion vecs  DIISMaxEq       ....     5
   Bias factor          DIISBfac        ....   1.050
   Max. coefficient     DIISMaxC        ....  10.000
 Newton-Raphson         CNVNR           .... off
 SOSCF                  CNVSOSCF        .... off
 Level Shifting         CNVShift        .... on
   Level shift para.    LevelShift      ....    0.2500
   Turn off err/grad.   ShiftErr        ....    0.0010
 Zerner damping         CNVZerner       .... off
 Static damping         CNVDamp         .... on
   Fraction old density DampFac         ....    0.7000
   Max. Damping (<1)    DampMax         ....    0.9800
   Min. Damping (>=0)   DampMin         ....    0.0000
   Turn off err/grad.   DampErr         ....    0.1000
 Fernandez-Rico         CNVRico         .... off

SCF Procedure:
 Maximum # iterations   MaxIter         ....   125
 SCF integral mode      SCFMode         .... Direct
   Integral package                     .... LIBINT
 Reset frequency        DirectResetFreq ....    20
 Integral Threshold     Thresh          ....  1.000e-10 Eh
 Primitive CutOff       TCut            ....  1.000e-11 Eh

Convergence Tolerance:
 Convergence Check Mode ConvCheckMode   .... Total+1el-Energy
 Convergence forced     ConvForced      .... 0
 Energy Change          TolE            ....  1.000e-06 Eh
 1-El. energy change                    ....  1.000e-03 Eh
 DIIS Error             TolErr          ....  1.000e-06


Diagonalization of the overlap matrix:
Smallest eigenvalue                        ... 1.861e-07
Time for diagonalization                   ...    0.103 sec
Threshold for overlap eigenvalues          ... 1.000e-08
Number of eigenvalues below threshold      ... 0
Time for construction of square roots      ...    0.081 sec
Total time needed                          ...    0.186 sec

-------------------
DFT GRID GENERATION
-------------------

General Integration Accuracy     IntAcc      ...  4.670
Radial Grid Type                 RadialGrid  ... Gauss-Chebyshev
Angular Grid (max. acc.)         AngularGrid ... Lebedev-302
Angular grid pruning method      GridPruning ... 3 (G Style)
Weight generation scheme         WeightScheme... Becke
Basis function cutoff            BFCut       ...    1.0000e-10
Integration weight cutoff        WCut        ...    1.0000e-14
Grids for H and He will be reduced by one unit

# of grid points (after initial pruning)     ... 139514 (   0.0 sec)
# of grid points (after weights+screening)   ... 124806 (   0.1 sec)
nearest neighbour list constructed           ...    0.0 sec
Grid point re-assignment to atoms done       ...    0.0 sec
Grid point division into batches done        ...    0.4 sec
Reduced shell lists constructed in    0.6 sec

Total number of grid points                  ...   124806
Total number of batches                      ...     1963
Average number of points per batch           ...       63
Average number of grid points per atom       ...     4800
Average number of shells per batch           ...   156.45 (55.67%)
Average number of basis functions per batch  ...   433.31 (55.34%)
Average number of large shells per batch     ...   117.80 (75.29%)
Average number of large basis fcns per batch ...   328.42 (75.79%)
Maximum spatial batch extension              ...   3.57,  3.80, 16.24 au
Average spatial batch extension              ...   0.06,  0.06,  0.09 au

Time for grid setup =    0.796 sec

------------------------------
INITIAL GUESS: MODEL POTENTIAL
------------------------------
Loading Hartree-Fock densities                     ... done
  calling /sw/apps/orca/orca_4_2_0_linux_x86-64_openmpi314/orca MOR11_ed11_atom46.inp > MOR11_ed11_atom46.out in order to generate an atomic fitting density for atom 20 (Pd with ECP) on-the-fly... 
    atom 20 (Pd), assumed electronic state with S=3: 1s2 2s2 2p6 3s2 3p6 4s2 3d10 4p6 5s2 4d8           ... done
  calling /sw/apps/orca/orca_4_2_0_linux_x86-64_openmpi314/orca MOR11_ed11_atom53.inp > MOR11_ed11_atom53.out in order to generate an atomic fitting density for atom 25 (I  with ECP) on-the-fly... 
    atom 25 (I ), assumed electronic state with S=2: 1s2 2s2 2p6 3s2 3p6 4s2 3d10 4p6 5s2 4d10 5p5           ... done
Calculating cut-offs                               ... done
Setting up the integral package                    ... done
Initializing the effective Hamiltonian             ... done
Starting the Coulomb interaction                   ... done (   0.1 sec)
Reading the grid                                   ... done
Mapping shells                                     ... done
Starting the XC term evaluation                    ... done (   0.3 sec)
  promolecular density results
     # of electrons  =    189.988200233
     EX              =   -293.863076807
     EC              =    -10.685725799
     EX+EC           =   -304.548802606
Transforming the Hamiltonian                       ... done (   0.0 sec)
Diagonalizing the Hamiltonian                      ... done (   0.1 sec)
Back transforming the eigenvectors                 ... done (   0.0 sec)
Now organizing SCF variables                       ... done
                      ------------------
                      INITIAL GUESS DONE (   3.9 sec)
                      ------------------
--------------
SCF ITERATIONS
--------------
ITER       Energy         Delta-E        Max-DP      RMS-DP      [F,P]     Damp
               ***  Starting incremental Fock matrix formation  ***
  0   -685.9371023571   0.000000000000143.59663465  0.39171638  7.0360713 0.7000
  1   -859.5994772689-173.662374911820160.04225328  0.42293606  2.6945383 0.7000
  2   -889.1351280662 -29.53565079723295.07368491  0.25839723  0.7982035 0.7000
  3   -909.8485328217 -20.71340475558497.31733577  0.25992597  0.6397870 0.7000
  4   -924.9372935612 -15.08876073948174.49274659  0.20021968  0.4751316 0.7000
  5   -935.6623557621 -10.72506220088852.98817214  0.14316642  0.3414935 0.7000
  6   -943.2751145778  -7.61275881565636.82731551  0.10004148  0.2417423 0.7000
                               ***Turning on DIIS***
  7   -948.6668903892  -5.39177581140125.60081187  0.06983150  0.1798154 0.7000
  8   -952.4745183229  -3.80762793369017.74320097  0.04855751  0.1394464 0.7000
  9   -955.1578973691  -2.68337904626441.12054972  0.11272726  0.0980296 0.0000
 10   -961.4838841292  -6.325986760109 0.19209664  0.00111989  0.0062283 0.0000
 11   -961.4854593211  -0.001575191912 0.71027441  0.00191634  0.0041448 0.0000
 12   -961.4861333039  -0.000673982774 0.50951892  0.00220791  0.0039660 0.0000
 13   -961.4864040295  -0.000270725580 0.43716603  0.00170926  0.0021913 0.0000
 14   -961.4864976657  -0.000093636160 0.08356633  0.00040932  0.0015250 0.0000
 15   -961.4865307462  -0.000033080549 1.04775011  0.00382020  0.0004506 0.0000
 16   -961.4865438231  -0.000013076857 0.32891394  0.00150904  0.0002866 0.0000
 17   -961.4865448139  -0.000000990873 0.30719525  0.00126678  0.0001455 0.0000
 18   -961.4865451289  -0.000000314994 0.17604188  0.00093815  0.0000667 0.0000
 19   -961.4865451021   0.000000026785 0.38979611  0.00135690  0.0000745 0.0000
               *** Restarting incremental Fock matrix formation ***
                                   *** Resetting DIIS ***
 20   -961.4865452093  -0.000000107146 1.14425735  0.00479410  0.0000555 0.0000
 21   -961.4865452277  -0.000000018422 0.32903945  0.00098679  0.0000921 0.0000
                 **** Energy Check signals convergence ****

               *****************************************************
               *                     SUCCESS                       *
               *           SCF CONVERGED AFTER  22 CYCLES          *
               *****************************************************


Setting up the DFT-NL grid :

General Integration Accuracy     IntAcc      ...  4.340
Radial Grid Type                 RadialGrid  ... Gauss-Chebyshev
Angular Grid (max. acc.)         AngularGrid ... Lebedev-110
Angular grid pruning method      GridPruning ... 3 (G Style)
Weight generation scheme         WeightScheme... Becke
Basis function cutoff            BFCut       ...    1.0000e-10
Integration weight cutoff        WCut        ...    1.0000e-14
Grids for H and He will be reduced by one unit

# of grid points (after initial pruning)     ...  36880 (   0.0 sec)
# of grid points (after weights+screening)   ...  33566 (   0.0 sec)
nearest neighbour list constructed           ...    0.0 sec
Grid point re-assignment to atoms done       ...    0.0 sec
Grid point division into batches done        ...    0.0 sec
Reduced shell lists constructed in    0.1 sec

Total number of grid points                  ...    33566
Total number of batches                      ...      538
Average number of points per batch           ...       62
Average number of grid points per atom       ...     1291
Average number of shells per batch           ...   160.79 (57.22%)
Average number of basis functions per batch  ...   449.21 (57.37%)
Average number of large shells per batch     ...   124.17 (77.22%)
Average number of large basis fcns per batch ...   350.67 (78.06%)
Maximum spatial batch extension              ...   2.98,  3.39, 18.99 au
Average spatial batch extension              ...   0.08,  0.08,  0.16 au

Final grid set up in    0.1 sec

-------------------------------------------------------------------------------
                         DFT-NL dispersion correction                          
-------------------------------------------------------------------------------

SC Energy -961.486545227 
NL    Energy 0.491186634 
SC+NL Energy -960.995358593 
NL done in    0.3 sec
-------------------------------------------------------------------------------

----------------
TOTAL SCF ENERGY
----------------

Total Energy       :         -960.99535859 Eh          -26150.01315 eV

Components:
Nuclear Repulsion  :         1306.78748817 Eh           35559.49536 eV
Electronic Energy  :        -2267.78284676 Eh          -61709.50851 eV
One Electron Energy:        -4067.41295510 Eh         -110679.93337 eV
Two Electron Energy:         1799.63010834 Eh           48970.42486 eV

Virial components:
Potential Energy   :        -1655.66140019 Eh          -45052.83714 eV
Kinetic Energy     :          694.66604159 Eh           18902.82399 eV
Virial Ratio       :            2.38339188


DFT components:
N(Alpha)           :       66.999983200839 electrons
N(Beta)            :       66.999983200839 electrons
N(Total)           :      133.999966401677 electrons
E(X)               :      -71.725766192175 Eh       
E(C)               :       -5.882472057777 Eh       
NL Energy, E(C,NL) :        0.491186634325 Eh       
E(XC)              :      -77.117051615627 Eh       
DFET-embed. en.    :        0.000000000000 Eh       

---------------
SCF CONVERGENCE
---------------

  Last Energy change         ...    5.9504e-10  Tolerance :   1.0000e-06
  Last MAX-Density change    ...    4.1833e-01  Tolerance :   1.0000e-05
  Last RMS-Density change    ...    2.3220e-03  Tolerance :   1.0000e-06
  Last DIIS Error            ...    8.9599e-06  Tolerance :   1.0000e-06

             **** THE GBW FILE WAS UPDATED (MOR11_ed11.gbw) ****
             **** DENSITY FILE WAS UPDATED (MOR11_ed11.scfp) ****
             **** ENERGY FILE WAS UPDATED (MOR11_ed11.en.tmp) ****
             **** THE GBW FILE WAS UPDATED (MOR11_ed11.gbw) ****
             **** DENSITY FILE WAS UPDATED (MOR11_ed11.scfp) ****
----------------
ORBITAL ENERGIES
----------------

  NO   OCC          E(Eh)            E(eV) 
   0   2.0000     -14.488894      -394.2628 
   1   2.0000     -14.471549      -393.7909 
   2   2.0000     -10.371111      -282.2123 
   3   2.0000     -10.364517      -282.0328 
   4   2.0000     -10.351701      -281.6841 
   5   2.0000     -10.339348      -281.3480 
   6   2.0000     -10.337621      -281.3010 
   7   2.0000     -10.330778      -281.1148 
   8   2.0000     -10.329867      -281.0900 
   9   2.0000     -10.324799      -280.9521 
  10   2.0000     -10.324131      -280.9339 
  11   2.0000     -10.315981      -280.7121 
  12   2.0000     -10.231886      -278.4238 
  13   2.0000      -6.863892      -186.7760 
  14   2.0000      -4.891098      -133.0936 
  15   2.0000      -4.885693      -132.9465 
  16   2.0000      -4.885421      -132.9391 
  17   2.0000      -3.559761       -96.8660 
  18   2.0000      -2.253694       -61.3261 
  19   2.0000      -2.250240       -61.2321 
  20   2.0000      -2.224207       -60.5237 
  21   2.0000      -1.944836       -52.9217 
  22   2.0000      -1.942939       -52.8701 
  23   2.0000      -1.942836       -52.8673 
  24   2.0000      -1.938223       -52.7417 
  25   2.0000      -1.938201       -52.7411 
  26   2.0000      -1.143663       -31.1207 
  27   2.0000      -1.115062       -30.3424 
  28   2.0000      -0.987728       -26.8774 
  29   2.0000      -0.975783       -26.5524 
  30   2.0000      -0.973460       -26.4892 
  31   2.0000      -0.915034       -24.8993 
  32   2.0000      -0.826181       -22.4815 
  33   2.0000      -0.816881       -22.2285 
  34   2.0000      -0.782193       -21.2846 
  35   2.0000      -0.774080       -21.0638 
  36   2.0000      -0.767337       -20.8803 
  37   2.0000      -0.735169       -20.0050 
  38   2.0000      -0.704086       -19.1591 
  39   2.0000      -0.661066       -17.9885 
  40   2.0000      -0.657860       -17.9013 
  41   2.0000      -0.636622       -17.3234 
  42   2.0000      -0.617249       -16.7962 
  43   2.0000      -0.594735       -16.1836 
  44   2.0000      -0.590603       -16.0711 
  45   2.0000      -0.582306       -15.8454 
  46   2.0000      -0.574446       -15.6315 
  47   2.0000      -0.561386       -15.2761 
  48   2.0000      -0.549663       -14.9571 
  49   2.0000      -0.521733       -14.1971 
  50   2.0000      -0.508067       -13.8252 
  51   2.0000      -0.485731       -13.2174 
  52   2.0000      -0.485386       -13.2080 
  53   2.0000      -0.473475       -12.8839 
  54   2.0000      -0.468921       -12.7600 
  55   2.0000      -0.447549       -12.1784 
  56   2.0000      -0.432393       -11.7660 
  57   2.0000      -0.427455       -11.6316 
  58   2.0000      -0.373223       -10.1559 
  59   2.0000      -0.367851       -10.0097 
  60   2.0000      -0.361700        -9.8424 
  61   2.0000      -0.360628        -9.8132 
  62   2.0000      -0.344205        -9.3663 
  63   2.0000      -0.341467        -9.2918 
  64   2.0000      -0.313181        -8.5221 
  65   2.0000      -0.286461        -7.7950 
  66   2.0000      -0.283826        -7.7233 
  67   0.0000      -0.033107        -0.9009 
  68   0.0000       0.003572         0.0972 
  69   0.0000       0.019903         0.5416 
  70   0.0000       0.033846         0.9210 
  71   0.0000       0.047046         1.2802 
  72   0.0000       0.049797         1.3551 
  73   0.0000       0.058793         1.5998 
  74   0.0000       0.067590         1.8392 
  75   0.0000       0.068116         1.8535 
  76   0.0000       0.070532         1.9193 
  77   0.0000       0.075079         2.0430 
  78   0.0000       0.081037         2.2051 
  79   0.0000       0.086107         2.3431 
  80   0.0000       0.094996         2.5850 
  81   0.0000       0.103811         2.8248 
  82   0.0000       0.104359         2.8398 
  83   0.0000       0.112544         3.0625 
  84   0.0000       0.121519         3.3067 
  85   0.0000       0.139232         3.7887 
  86   0.0000       0.148218         4.0332 
  87   0.0000       0.148597         4.0435 
  88   0.0000       0.152595         4.1523 
  89   0.0000       0.152871         4.1598 
  90   0.0000       0.162339         4.4175 
  91   0.0000       0.165111         4.4929 
  92   0.0000       0.170272         4.6333 
  93   0.0000       0.176837         4.8120 
  94   0.0000       0.177212         4.8222 
  95   0.0000       0.184986         5.0337 
  96   0.0000       0.194332         5.2880 
  97   0.0000       0.198756         5.4084 
  98   0.0000       0.200662         5.4603 
  99   0.0000       0.203998         5.5511 
 100   0.0000       0.209065         5.6890 
 101   0.0000       0.212169         5.7734 
 102   0.0000       0.216684         5.8963 
 103   0.0000       0.219036         5.9603 
 104   0.0000       0.221966         6.0400 
 105   0.0000       0.222243         6.0475 
 106   0.0000       0.227242         6.1836 
 107   0.0000       0.229568         6.2469 
 108   0.0000       0.237145         6.4530 
 109   0.0000       0.240405         6.5418 
 110   0.0000       0.242128         6.5886 
 111   0.0000       0.246983         6.7207 
 112   0.0000       0.252459         6.8698 
 113   0.0000       0.254228         6.9179 
 114   0.0000       0.257391         7.0040 
 115   0.0000       0.262181         7.1343 
 116   0.0000       0.264260         7.1909 
 117   0.0000       0.266735         7.2582 
 118   0.0000       0.269140         7.3237 
 119   0.0000       0.278129         7.5683 
 120   0.0000       0.278879         7.5887 
 121   0.0000       0.279374         7.6022 
 122   0.0000       0.281658         7.6643 
 123   0.0000       0.283714         7.7202 
 124   0.0000       0.290312         7.8998 
 125   0.0000       0.293237         7.9794 
 126   0.0000       0.301359         8.2004 
 127   0.0000       0.304540         8.2869 
 128   0.0000       0.307715         8.3734 
 129   0.0000       0.317130         8.6295 
 130   0.0000       0.319248         8.6872 
 131   0.0000       0.320714         8.7271 
 132   0.0000       0.324964         8.8427 
 133   0.0000       0.327595         8.9143 
 134   0.0000       0.328379         8.9357 
 135   0.0000       0.333616         9.0782 
 136   0.0000       0.336117         9.1462 
 137   0.0000       0.343116         9.3367 
 138   0.0000       0.346269         9.4225 
 139   0.0000       0.348339         9.4788 
 140   0.0000       0.352907         9.6031 
 141   0.0000       0.356587         9.7032 
 142   0.0000       0.358250         9.7485 
 143   0.0000       0.360286         9.8039 
 144   0.0000       0.367556        10.0017 
 145   0.0000       0.369638        10.0584 
 146   0.0000       0.371371        10.1055 
 147   0.0000       0.375090        10.2067 
 148   0.0000       0.378839        10.3087 
 149   0.0000       0.379294        10.3211 
 150   0.0000       0.379732        10.3330 
 151   0.0000       0.387682        10.5494 
 152   0.0000       0.390050        10.6138 
 153   0.0000       0.394521        10.7355 
 154   0.0000       0.399947        10.8831 
 155   0.0000       0.401811        10.9338 
 156   0.0000       0.404824        11.0158 
 157   0.0000       0.408260        11.1093 
 158   0.0000       0.411345        11.1933 
 159   0.0000       0.411877        11.2077 
 160   0.0000       0.422982        11.5099 
 161   0.0000       0.423996        11.5375 
 162   0.0000       0.424670        11.5558 
 163   0.0000       0.428962        11.6726 
 164   0.0000       0.429496        11.6872 
 165   0.0000       0.438084        11.9209 
 166   0.0000       0.438254        11.9255 
 167   0.0000       0.446046        12.1375 
 168   0.0000       0.447949        12.1893 
 169   0.0000       0.451480        12.2854 
 170   0.0000       0.453705        12.3459 
 171   0.0000       0.457194        12.4409 
 172   0.0000       0.457550        12.4506 
 173   0.0000       0.463671        12.6171 
 174   0.0000       0.468931        12.7603 
 175   0.0000       0.475972        12.9518 
 176   0.0000       0.482030        13.1167 
 177   0.0000       0.486839        13.2476 
 178   0.0000       0.487584        13.2678 
 179   0.0000       0.489811        13.3284 
 180   0.0000       0.491929        13.3861 
 181   0.0000       0.496367        13.5068 
 182   0.0000       0.500848        13.6288 
 183   0.0000       0.506217        13.7749 
 184   0.0000       0.512278        13.9398 
 185   0.0000       0.520874        14.1737 
 186   0.0000       0.521017        14.1776 
 187   0.0000       0.525574        14.3016 
 188   0.0000       0.529960        14.4210 
 189   0.0000       0.530024        14.4227 
 190   0.0000       0.532877        14.5003 
 191   0.0000       0.543028        14.7765 
 192   0.0000       0.551218        14.9994 
 193   0.0000       0.552432        15.0324 
 194   0.0000       0.555776        15.1234 
 195   0.0000       0.558944        15.2096 
 196   0.0000       0.561054        15.2670 
 197   0.0000       0.562570        15.3083 
 198   0.0000       0.570033        15.5114 
 199   0.0000       0.574420        15.6308 
 200   0.0000       0.580101        15.7853 
 201   0.0000       0.582605        15.8535 
 202   0.0000       0.591721        16.1015 
 203   0.0000       0.597918        16.2702 
 204   0.0000       0.601120        16.3573 
 205   0.0000       0.603588        16.4245 
 206   0.0000       0.610526        16.6133 
 207   0.0000       0.612391        16.6640 
 208   0.0000       0.613720        16.7002 
 209   0.0000       0.619683        16.8624 
 210   0.0000       0.627760        17.0822 
 211   0.0000       0.634980        17.2787 
 212   0.0000       0.636955        17.3324 
 213   0.0000       0.642815        17.4919 
 214   0.0000       0.643173        17.5016 
 215   0.0000       0.648523        17.6472 
 216   0.0000       0.652326        17.7507 
 217   0.0000       0.656664        17.8687 
 218   0.0000       0.658811        17.9272 
 219   0.0000       0.668011        18.1775 
 220   0.0000       0.672848        18.3091 
 221   0.0000       0.676922        18.4200 
 222   0.0000       0.680190        18.5089 
 223   0.0000       0.681902        18.5555 
 224   0.0000       0.687581        18.7100 
 225   0.0000       0.688885        18.7455 
 226   0.0000       0.692893        18.8546 
 227   0.0000       0.699556        19.0359 
 228   0.0000       0.699876        19.0446 
 229   0.0000       0.702502        19.1160 
 230   0.0000       0.708356        19.2754 
 231   0.0000       0.712176        19.3793 
 232   0.0000       0.717654        19.5283 
 233   0.0000       0.718200        19.5432 
 234   0.0000       0.724022        19.7017 
 235   0.0000       0.725706        19.7475 
 236   0.0000       0.732661        19.9367 
 237   0.0000       0.735783        20.0217 
 238   0.0000       0.745634        20.2897 
 239   0.0000       0.745790        20.2940 
 240   0.0000       0.750320        20.4173 
 241   0.0000       0.757914        20.6239 
 242   0.0000       0.761569        20.7233 
 243   0.0000       0.766272        20.8513 
 244   0.0000       0.767516        20.8852 
 245   0.0000       0.775245        21.0955 
 246   0.0000       0.775704        21.1080 
 247   0.0000       0.782151        21.2834 
 248   0.0000       0.783953        21.3324 
 249   0.0000       0.786539        21.4028 
 250   0.0000       0.788154        21.4468 
 251   0.0000       0.793965        21.6049 
 252   0.0000       0.797279        21.6951 
 253   0.0000       0.799571        21.7574 
 254   0.0000       0.804105        21.8808 
 255   0.0000       0.809054        22.0155 
 256   0.0000       0.812620        22.1125 
 257   0.0000       0.818657        22.2768 
 258   0.0000       0.826357        22.4863 
 259   0.0000       0.832806        22.6618 
 260   0.0000       0.838944        22.8288 
 261   0.0000       0.844979        22.9931 
 262   0.0000       0.849237        23.1089 
 263   0.0000       0.856035        23.2939 
 264   0.0000       0.857278        23.3277 
 265   0.0000       0.864624        23.5276 
 266   0.0000       0.870233        23.6803 
 267   0.0000       0.875745        23.8302 
 268   0.0000       0.876016        23.8376 
 269   0.0000       0.888644        24.1812 
 270   0.0000       0.889710        24.2102 
 271   0.0000       0.900439        24.5022 
 272   0.0000       0.900710        24.5096 
 273   0.0000       0.903267        24.5791 
 274   0.0000       0.905422        24.6378 
 275   0.0000       0.908949        24.7338 
 276   0.0000       0.915224        24.9045 
 277   0.0000       0.920327        25.0434 
 278   0.0000       0.923165        25.1206 
 279   0.0000       0.932771        25.3820 
 280   0.0000       0.932870        25.3847 
 281   0.0000       0.945211        25.7205 
 282   0.0000       0.946446        25.7541 
 283   0.0000       0.947682        25.7877 
 284   0.0000       0.960544        26.1377 
 285   0.0000       0.971780        26.4435 
 286   0.0000       0.978166        26.6173 
 287   0.0000       0.993608        27.0375 
 288   0.0000       1.001150        27.2427 
 289   0.0000       1.005968        27.3738 
 290   0.0000       1.009260        27.4634 
 291   0.0000       1.015345        27.6289 
 292   0.0000       1.018826        27.7237 
 293   0.0000       1.026783        27.9402 
 294   0.0000       1.026798        27.9406 
 295   0.0000       1.036472        28.2038 
 296   0.0000       1.043579        28.3972 
 297   0.0000       1.047684        28.5089 
 298   0.0000       1.048390        28.5281 
 299   0.0000       1.052375        28.6366 
 300   0.0000       1.065278        28.9877 
 301   0.0000       1.070213        29.1220 
 302   0.0000       1.070639        29.1336 
 303   0.0000       1.096970        29.8501 
 304   0.0000       1.100190        29.9377 
 305   0.0000       1.100532        29.9470 
 306   0.0000       1.105862        30.0920 
 307   0.0000       1.111846        30.2549 
 308   0.0000       1.119278        30.4571 
 309   0.0000       1.128348        30.7039 
 310   0.0000       1.128942        30.7201 
 311   0.0000       1.137363        30.9492 
 312   0.0000       1.151869        31.3440 
 313   0.0000       1.152108        31.3505 
 314   0.0000       1.162090        31.6221 
 315   0.0000       1.171113        31.8676 
 316   0.0000       1.181607        32.1532 
 317   0.0000       1.189093        32.3569 
 318   0.0000       1.196680        32.5633 
 319   0.0000       1.199188        32.6316 
 320   0.0000       1.207679        32.8626 
 321   0.0000       1.208736        32.8914 
 322   0.0000       1.217269        33.1236 
 323   0.0000       1.234127        33.5823 
 324   0.0000       1.239245        33.7216 
 325   0.0000       1.244289        33.8588 
 326   0.0000       1.260871        34.3101 
 327   0.0000       1.266826        34.4721 
 328   0.0000       1.272494        34.6263 
 329   0.0000       1.279420        34.8148 
 330   0.0000       1.288385        35.0587 
 331   0.0000       1.291766        35.1507 
 332   0.0000       1.305284        35.5186 
 333   0.0000       1.307228        35.5715 
 334   0.0000       1.309599        35.6360 
 335   0.0000       1.323181        36.0056 
 336   0.0000       1.330126        36.1946 
 337   0.0000       1.340311        36.4717 
 338   0.0000       1.344474        36.5850 
 339   0.0000       1.346065        36.6283 
 340   0.0000       1.354993        36.8712 
 341   0.0000       1.366730        37.1906 
 342   0.0000       1.367201        37.2034 
 343   0.0000       1.379436        37.5364 
 344   0.0000       1.388854        37.7927 
 345   0.0000       1.393837        37.9282 
 346   0.0000       1.396894        38.0114 
 347   0.0000       1.408587        38.3296 
 348   0.0000       1.419352        38.6225 
 349   0.0000       1.435133        39.0520 
 350   0.0000       1.435500        39.0619 
 351   0.0000       1.441243        39.2182 
 352   0.0000       1.442559        39.2540 
 353   0.0000       1.446991        39.3746 
 354   0.0000       1.457275        39.6545 
 355   0.0000       1.459392        39.7121 
 356   0.0000       1.473322        40.0911 
 357   0.0000       1.482427        40.3389 
 358   0.0000       1.494798        40.6755 
 359   0.0000       1.497661        40.7534 
 360   0.0000       1.501048        40.8456 
 361   0.0000       1.505172        40.9578 
 362   0.0000       1.516857        41.2758 
 363   0.0000       1.527213        41.5576 
 364   0.0000       1.541016        41.9332 
 365   0.0000       1.547734        42.1160 
 366   0.0000       1.550814        42.1998 
 367   0.0000       1.558167        42.3999 
 368   0.0000       1.578220        42.9455 
 369   0.0000       1.584791        43.1244 
 370   0.0000       1.586671        43.1755 
 371   0.0000       1.596765        43.4502 
 372   0.0000       1.603509        43.6337 
 373   0.0000       1.611260        43.8446 
 374   0.0000       1.631683        44.4004 
 375   0.0000       1.638618        44.5891 
 376   0.0000       1.641236        44.6603 
 377   0.0000       1.656096        45.0647 
 378   0.0000       1.656659        45.0800 
 379   0.0000       1.670972        45.4694 
 380   0.0000       1.679915        45.7128 
 381   0.0000       1.682138        45.7733 
 382   0.0000       1.691086        46.0168 
 383   0.0000       1.705168        46.4000 
 384   0.0000       1.711308        46.5671 
 385   0.0000       1.722574        46.8736 
 386   0.0000       1.724912        46.9372 
 387   0.0000       1.742005        47.4024 
 388   0.0000       1.744312        47.4651 
 389   0.0000       1.749723        47.6124 
 390   0.0000       1.758785        47.8590 
 391   0.0000       1.769077        48.1390 
 392   0.0000       1.785716        48.5918 
 393   0.0000       1.798287        48.9339 
 394   0.0000       1.799475        48.9662 
 395   0.0000       1.810276        49.2601 
 396   0.0000       1.813410        49.3454 
 397   0.0000       1.818158        49.4746 
 398   0.0000       1.825067        49.6626 
 399   0.0000       1.826753        49.7085 
 400   0.0000       1.841217        50.1021 
 401   0.0000       1.845719        50.2246 
 402   0.0000       1.850509        50.3549 
 403   0.0000       1.862352        50.6772 
 404   0.0000       1.868187        50.8360 
 405   0.0000       1.877215        51.0816 
 406   0.0000       1.877500        51.0894 
 407   0.0000       1.882642        51.2293 
 408   0.0000       1.884371        51.2763 
 409   0.0000       1.896893        51.6171 
 410   0.0000       1.904088        51.8129 
 411   0.0000       1.912503        52.0419 
 412   0.0000       1.918028        52.1922 
 413   0.0000       1.928405        52.4746 
 414   0.0000       1.930051        52.5194 
 415   0.0000       1.937505        52.7222 
 416   0.0000       1.951033        53.0903 
 417   0.0000       1.957393        53.2634 
 418   0.0000       1.959307        53.3154 
 419   0.0000       1.980094        53.8811 
 420   0.0000       1.983587        53.9761 
 421   0.0000       2.005911        54.5836 
 422   0.0000       2.009881        54.6916 
 423   0.0000       2.028436        55.1966 
 424   0.0000       2.035712        55.3945 
 425   0.0000       2.041157        55.5427 
 426   0.0000       2.055756        55.9400 
 427   0.0000       2.093682        56.9720 
 428   0.0000       2.101077        57.1732 
 429   0.0000       2.119283        57.6686 
 430   0.0000       2.121927        57.7406 
 431   0.0000       2.128531        57.9203 
 432   0.0000       2.137674        58.1691 
 433   0.0000       2.138161        58.1823 
 434   0.0000       2.151455        58.5441 
 435   0.0000       2.161399        58.8147 
 436   0.0000       2.190517        59.6070 
 437   0.0000       2.198221        59.8166 
 438   0.0000       2.209715        60.1294 
 439   0.0000       2.224835        60.5408 
 440   0.0000       2.229116        60.6573 
 441   0.0000       2.232231        60.7421 
 442   0.0000       2.257318        61.4247 
 443   0.0000       2.282170        62.1010 
 444   0.0000       2.286012        62.2056 
 445   0.0000       2.301782        62.6347 
 446   0.0000       2.308495        62.8173 
 447   0.0000       2.327185        63.3259 
 448   0.0000       2.343645        63.7738 
 449   0.0000       2.364286        64.3355 
 450   0.0000       2.391150        65.0665 
 451   0.0000       2.395943        65.1969 
 452   0.0000       2.402523        65.3760 
 453   0.0000       2.403904        65.4135 
 454   0.0000       2.434092        66.2350 
 455   0.0000       2.454858        66.8001 
 456   0.0000       2.470594        67.2283 
 457   0.0000       2.481038        67.5125 
 458   0.0000       2.507644        68.2365 
 459   0.0000       2.523112        68.6574 
 460   0.0000       2.536666        69.0262 
 461   0.0000       2.541082        69.1463 
 462   0.0000       2.555965        69.5513 
 463   0.0000       2.557368        69.5895 
 464   0.0000       2.563718        69.7623 
 465   0.0000       2.577717        70.1432 
 466   0.0000       2.599716        70.7419 
 467   0.0000       2.602018        70.8045 
 468   0.0000       2.633957        71.6736 
 469   0.0000       2.649295        72.0910 
 470   0.0000       2.663813        72.4860 
 471   0.0000       2.687680        73.1355 
 472   0.0000       2.695371        73.3448 
 473   0.0000       2.704448        73.5918 
 474   0.0000       2.733694        74.3876 
 475   0.0000       2.738435        74.5166 
 476   0.0000       2.760728        75.1232 
 477   0.0000       2.761618        75.1474 
 478   0.0000       2.792126        75.9776 
 479   0.0000       2.792561        75.9895 
 480   0.0000       2.814523        76.5871 
 481   0.0000       2.828022        76.9544 
 482   0.0000       2.836541        77.1862 
 483   0.0000       2.851800        77.6014 
 484   0.0000       2.870212        78.1024 
 485   0.0000       2.882295        78.4312 
 486   0.0000       2.900743        78.9332 
 487   0.0000       2.915129        79.3247 
 488   0.0000       2.931108        79.7595 
 489   0.0000       2.960375        80.5559 
 490   0.0000       2.962363        80.6100 
 491   0.0000       2.976660        80.9990 
 492   0.0000       2.978941        81.0611 
 493   0.0000       2.991906        81.4139 
 494   0.0000       3.010536        81.9208 
 495   0.0000       3.023779        82.2812 
 496   0.0000       3.029734        82.4433 
 497   0.0000       3.040337        82.7318 
 498   0.0000       3.043978        82.8309 
 499   0.0000       3.059144        83.2435 
 500   0.0000       3.067545        83.4722 
 501   0.0000       3.084196        83.9253 
 502   0.0000       3.086099        83.9770 
 503   0.0000       3.088478        84.0418 
 504   0.0000       3.100816        84.3775 
 505   0.0000       3.105030        84.4922 
 506   0.0000       3.108305        84.5813 
 507   0.0000       3.123482        84.9943 
 508   0.0000       3.127990        85.1169 
 509   0.0000       3.131654        85.2166 
 510   0.0000       3.133464        85.2659 
 511   0.0000       3.149680        85.7071 
 512   0.0000       3.151704        85.7622 
 513   0.0000       3.163780        86.0908 
 514   0.0000       3.176102        86.4261 
 515   0.0000       3.179917        86.5300 
 516   0.0000       3.187093        86.7252 
 517   0.0000       3.190680        86.8228 
 518   0.0000       3.195638        86.9577 
 519   0.0000       3.205267        87.2198 
 520   0.0000       3.211171        87.3804 
 521   0.0000       3.225455        87.7691 
 522   0.0000       3.241158        88.1964 
 523   0.0000       3.241999        88.2193 
 524   0.0000       3.245027        88.3017 
 525   0.0000       3.256014        88.6007 
 526   0.0000       3.259858        88.7052 
 527   0.0000       3.259991        88.7089 
 528   0.0000       3.262955        88.7895 
 529   0.0000       3.272079        89.0378 
 530   0.0000       3.281947        89.3063 
 531   0.0000       3.292109        89.5828 
 532   0.0000       3.295982        89.6882 
 533   0.0000       3.303968        89.9055 
 534   0.0000       3.312643        90.1416 
 535   0.0000       3.314931        90.2039 
 536   0.0000       3.327015        90.5327 
 537   0.0000       3.336093        90.7797 
 538   0.0000       3.340338        90.8952 
 539   0.0000       3.342296        90.9485 
 540   0.0000       3.353735        91.2598 
 541   0.0000       3.354307        91.2753 
 542   0.0000       3.355456        91.3066 
 543   0.0000       3.363507        91.5257 
 544   0.0000       3.379523        91.9615 
 545   0.0000       3.392709        92.3203 
 546   0.0000       3.394792        92.3770 
 547   0.0000       3.406881        92.7060 
 548   0.0000       3.416275        92.9616 
 549   0.0000       3.427207        93.2590 
 550   0.0000       3.429262        93.3150 
 551   0.0000       3.433933        93.4421 
 552   0.0000       3.435326        93.4800 
 553   0.0000       3.440037        93.6082 
 554   0.0000       3.454040        93.9892 
 555   0.0000       3.463907        94.2577 
 556   0.0000       3.466795        94.3363 
 557   0.0000       3.498296        95.1935 
 558   0.0000       3.502837        95.3170 
 559   0.0000       3.517471        95.7153 
 560   0.0000       3.518692        95.7485 
 561   0.0000       3.531893        96.1077 
 562   0.0000       3.543377        96.4202 
 563   0.0000       3.549536        96.5878 
 564   0.0000       3.553591        96.6981 
 565   0.0000       3.562373        96.9371 
 566   0.0000       3.579117        97.3927 
 567   0.0000       3.579424        97.4011 
 568   0.0000       3.584053        97.5270 
 569   0.0000       3.591343        97.7254 
 570   0.0000       3.594720        97.8173 
 571   0.0000       3.598974        97.9331 
 572   0.0000       3.601617        98.0050 
 573   0.0000       3.609745        98.2262 
 574   0.0000       3.611462        98.2729 
 575   0.0000       3.625187        98.6464 
 576   0.0000       3.639024        99.0229 
 577   0.0000       3.658368        99.5493 
 578   0.0000       3.663317        99.6839 
 579   0.0000       3.665958        99.7558 
 580   0.0000       3.671462        99.9056 
 581   0.0000       3.679864       100.1342 
 582   0.0000       3.683930       100.2448 
 583   0.0000       3.728031       101.4449 
 584   0.0000       3.759518       102.3017 
 585   0.0000       3.766410       102.4892 
 586   0.0000       3.775527       102.7373 
 587   0.0000       3.775822       102.7453 
 588   0.0000       3.779360       102.8416 
 589   0.0000       3.792222       103.1916 
 590   0.0000       3.798833       103.3715 
 591   0.0000       3.810102       103.6782 
 592   0.0000       3.822828       104.0244 
 593   0.0000       3.823297       104.0372 
 594   0.0000       3.824448       104.0685 
 595   0.0000       3.834768       104.3493 
 596   0.0000       3.851553       104.8061 
 597   0.0000       3.875125       105.4475 
 598   0.0000       3.902741       106.1990 
 599   0.0000       3.907277       106.3224 
 600   0.0000       3.911058       106.4253 
 601   0.0000       3.923309       106.7587 
 602   0.0000       3.926166       106.8364 
 603   0.0000       3.943711       107.3138 
 604   0.0000       3.967409       107.9587 
 605   0.0000       3.991882       108.6246 
 606   0.0000       3.996766       108.7575 
 607   0.0000       4.002304       108.9082 
 608   0.0000       4.017055       109.3096 
 609   0.0000       4.020414       109.4010 
 610   0.0000       4.030822       109.6842 
 611   0.0000       4.041134       109.9648 
 612   0.0000       4.062816       110.5548 
 613   0.0000       4.066519       110.6556 
 614   0.0000       4.078652       110.9858 
 615   0.0000       4.079441       111.0072 
 616   0.0000       4.084770       111.1522 
 617   0.0000       4.091834       111.3445 
 618   0.0000       4.116375       112.0123 
 619   0.0000       4.124822       112.2421 
 620   0.0000       4.128251       112.3354 
 621   0.0000       4.132251       112.4443 
 622   0.0000       4.155807       113.0853 
 623   0.0000       4.158728       113.1647 
 624   0.0000       4.163528       113.2953 
 625   0.0000       4.193251       114.1042 
 626   0.0000       4.214186       114.6738 
 627   0.0000       4.224063       114.9426 
 628   0.0000       4.250120       115.6516 
 629   0.0000       4.250159       115.6527 
 630   0.0000       4.263287       116.0099 
 631   0.0000       4.269570       116.1809 
 632   0.0000       4.273759       116.2949 
 633   0.0000       4.275886       116.3528 
 634   0.0000       4.280223       116.4708 
 635   0.0000       4.292163       116.7957 
 636   0.0000       4.312636       117.3528 
 637   0.0000       4.320679       117.5717 
 638   0.0000       4.326639       117.7338 
 639   0.0000       4.347174       118.2926 
 640   0.0000       4.352779       118.4451 
 641   0.0000       4.359996       118.6415 
 642   0.0000       4.370913       118.9386 
 643   0.0000       4.405680       119.8846 
 644   0.0000       4.410073       120.0042 
 645   0.0000       4.430300       120.5546 
 646   0.0000       4.439038       120.7924 
 647   0.0000       4.447140       121.0128 
 648   0.0000       4.462771       121.4382 
 649   0.0000       4.464694       121.4905 
 650   0.0000       4.480414       121.9183 
 651   0.0000       4.482325       121.9703 
 652   0.0000       4.484443       122.0279 
 653   0.0000       4.498082       122.3990 
 654   0.0000       4.519026       122.9690 
 655   0.0000       4.541527       123.5812 
 656   0.0000       4.546212       123.7087 
 657   0.0000       4.555549       123.9628 
 658   0.0000       4.570929       124.3813 
 659   0.0000       4.594197       125.0145 
 660   0.0000       4.600925       125.1975 
 661   0.0000       4.607605       125.3793 
 662   0.0000       4.614949       125.5792 
 663   0.0000       4.622584       125.7869 
 664   0.0000       4.644885       126.3938 
 665   0.0000       4.674841       127.2089 
 666   0.0000       4.684045       127.4594 
 667   0.0000       4.707863       128.1075 
 668   0.0000       4.720729       128.4576 
 669   0.0000       4.728184       128.6604 
 670   0.0000       4.739185       128.9598 
 671   0.0000       4.745357       129.1277 
 672   0.0000       4.772730       129.8726 
 673   0.0000       4.777781       130.0100 
 674   0.0000       4.795191       130.4838 
 675   0.0000       4.799735       130.6074 
 676   0.0000       4.813231       130.9747 
 677   0.0000       4.838981       131.6754 
 678   0.0000       4.850659       131.9931 
 679   0.0000       4.869177       132.4970 
 680   0.0000       4.877836       132.7327 
 681   0.0000       4.885344       132.9370 
 682   0.0000       4.889007       133.0366 
 683   0.0000       4.926672       134.0616 
 684   0.0000       4.929889       134.1491 
 685   0.0000       4.931088       134.1817 
 686   0.0000       4.962684       135.0415 
 687   0.0000       4.971375       135.2780 
 688   0.0000       4.982666       135.5852 
 689   0.0000       5.002110       136.1143 
 690   0.0000       5.003192       136.1438 
 691   0.0000       5.023372       136.6929 
 692   0.0000       5.029867       136.8696 
 693   0.0000       5.063672       137.7895 
 694   0.0000       5.075397       138.1086 
 695   0.0000       5.096070       138.6711 
 696   0.0000       5.098338       138.7328 
 697   0.0000       5.111810       139.0994 
 698   0.0000       5.114386       139.1695 
 699   0.0000       5.125054       139.4598 
 700   0.0000       5.136210       139.7634 
 701   0.0000       5.142410       139.9321 
 702   0.0000       5.154661       140.2655 
 703   0.0000       5.161507       140.4517 
 704   0.0000       5.179506       140.9415 
 705   0.0000       5.191933       141.2797 
 706   0.0000       5.212098       141.8284 
 707   0.0000       5.229532       142.3028 
 708   0.0000       5.234658       142.4423 
 709   0.0000       5.239887       142.5846 
 710   0.0000       5.254527       142.9829 
 711   0.0000       5.274952       143.5387 
 712   0.0000       5.280981       143.7028 
 713   0.0000       5.288724       143.9135 
 714   0.0000       5.304502       144.3428 
 715   0.0000       5.307689       144.4296 
 716   0.0000       5.316918       144.6807 
 717   0.0000       5.329578       145.0252 
 718   0.0000       5.331982       145.0906 
 719   0.0000       5.347374       145.5094 
 720   0.0000       5.348968       145.5528 
 721   0.0000       5.387871       146.6114 
 722   0.0000       5.390728       146.6892 
 723   0.0000       5.410458       147.2260 
 724   0.0000       5.430981       147.7845 
 725   0.0000       5.432417       147.8236 
 726   0.0000       5.435459       147.9064 
 727   0.0000       5.455319       148.4468 
 728   0.0000       5.472873       148.9244 
 729   0.0000       5.490622       149.4074 
 730   0.0000       5.502664       149.7351 
 731   0.0000       5.517651       150.1429 
 732   0.0000       5.524330       150.3247 
 733   0.0000       5.539534       150.7384 
 734   0.0000       5.554593       151.1482 
 735   0.0000       5.580488       151.8528 
 736   0.0000       5.592443       152.1781 
 737   0.0000       5.622596       152.9986 
 738   0.0000       5.630666       153.2182 
 739   0.0000       5.674150       154.4015 
 740   0.0000       5.738344       156.1483 
 741   0.0000       5.746589       156.3726 
 742   0.0000       5.762249       156.7988 
 743   0.0000       5.793758       157.6562 
 744   0.0000       5.819373       158.3532 
 745   0.0000       5.834882       158.7752 
 746   0.0000       5.864972       159.5940 
 747   0.0000       5.879763       159.9965 
 748   0.0000       5.915391       160.9660 
 749   0.0000       5.987733       162.9345 
 750   0.0000       6.038037       164.3033 
 751   0.0000       6.067719       165.1110 
 752   0.0000       6.072222       165.2336 
 753   0.0000       6.088099       165.6656 
 754   0.0000       6.195766       168.5954 
 755   0.0000       6.241200       169.8317 
 756   0.0000       6.256425       170.2460 
 757   0.0000       6.316369       171.8771 
 758   0.0000       6.343997       172.6289 
 759   0.0000       6.401076       174.1821 
 760   0.0000       6.483266       176.4186 
 761   0.0000       6.734057       183.2430 
 762   0.0000       6.944433       188.9676 
 763   0.0000      23.214044       631.6862 
 764   0.0000      23.258044       632.8836 
 765   0.0000      23.283367       633.5726 
 766   0.0000      23.348287       635.3392 
 767   0.0000      23.357169       635.5809 
 768   0.0000      23.412647       637.0905 
 769   0.0000      23.509326       639.7213 
 770   0.0000      23.674439       644.2142 
 771   0.0000      23.801987       647.6850 
 772   0.0000      23.903556       650.4488 
 773   0.0000      23.988981       652.7733 
 774   0.0000      32.897614       895.1896 
 775   0.0000      32.988048       897.6504 
 776   0.0000      33.148147       902.0069 
 777   0.0000      34.808021       947.1744 
 778   0.0000      34.994442       952.2472 
 779   0.0000      35.131293       955.9711 
 780   0.0000      43.239339      1176.6022 
 781   0.0000     107.070632      2913.5400 
 782   0.0000     118.510227      3224.8272 

                    ********************************
                    * MULLIKEN POPULATION ANALYSIS *
                    ********************************

-----------------------
MULLIKEN ATOMIC CHARGES
-----------------------
   0 C :    0.218596
   1 C :   -0.164711
   2 C :   -0.052917
   3 C :    0.049361
   4 H :   -0.284669
   5 H :   -0.003021
   6 H :    0.008029
   7 H :   -0.103116
   8 N :    0.213214
   9 C :    0.615120
  10 C :   -0.078580
  11 N :    0.324809
  12 C :   -0.025403
  13 C :   -0.024743
  14 C :   -0.155830
  15 H :   -0.052523
  16 H :   -0.015638
  17 C :    0.014167
  18 H :   -0.108818
  19 H :    0.013845
  20 Pd:   -0.008596
  21 C :   -0.160132
  22 H :    0.039984
  23 H :    0.040520
  24 H :    0.090870
  25 I :   -0.389817
Sum of atomic charges:    0.0000000

--------------------------------
MULLIKEN REDUCED ORBITAL CHARGES
--------------------------------
  0 C s       :     3.051092  s :     3.051092
      pz      :     0.828463  p :     2.691913
      px      :     0.866293
      py      :     0.997157
      dz2     :    -0.015708  d :     0.026815
      dxz     :     0.005016
      dyz     :     0.043689
      dx2y2   :     0.093496
      dxy     :    -0.099676
      f0      :     0.001825  f :     0.011583
      f+1     :     0.000735
      f-1     :     0.000874
      f+2     :     0.000508
      f-2     :     0.001653
      f+3     :     0.001772
      f-3     :     0.004217
  1 C s       :     3.420088  s :     3.420088
      pz      :     0.957190  p :     2.662190
      px      :     0.858821
      py      :     0.846179
      dz2     :     0.004144  d :     0.075051
      dxz     :     0.019930
      dyz     :     0.015513
      dx2y2   :    -0.011686
      dxy     :     0.047150
      f0      :     0.001460  f :     0.007383
      f+1     :     0.000594
      f-1     :     0.000617
      f+2     :     0.000839
      f-2     :     0.000384
      f+3     :     0.000977
      f-3     :     0.002512
  2 C s       :     3.456439  s :     3.456439
      pz      :     0.868076  p :     2.533133
      px      :     0.737981
      py      :     0.927076
      dz2     :    -0.000658  d :     0.055763
      dxz     :     0.019996
      dyz     :     0.000465
      dx2y2   :     0.029469
      dxy     :     0.006491
      f0      :     0.001459  f :     0.007582
      f+1     :     0.000541
      f-1     :     0.000605
      f+2     :     0.000890
      f-2     :     0.000565
      f+3     :     0.000956
      f-3     :     0.002566
  3 C s       :     3.510111  s :     3.510111
      pz      :     0.977024  p :     2.401495
      px      :     0.636570
      py      :     0.787901
      dz2     :     0.007346  d :     0.031469
      dxz     :     0.011853
      dyz     :     0.025254
      dx2y2   :     0.016932
      dxy     :    -0.029916
      f0      :     0.001475  f :     0.007564
      f+1     :     0.000663
      f-1     :     0.000563
      f+2     :     0.000347
      f-2     :     0.000988
      f+3     :     0.000952
      f-3     :     0.002577
  4 H s       :     1.193175  s :     1.193175
      pz      :     0.013169  p :     0.089378
      px      :     0.005348
      py      :     0.070861
      dz2     :     0.000101  d :     0.002116
      dxz     :     0.000661
      dyz     :     0.000029
      dx2y2   :     0.000400
      dxy     :     0.000924
  5 H s       :     0.972632  s :     0.972632
      pz      :     0.018119  p :     0.028462
      px      :     0.006425
      py      :     0.003918
      dz2     :     0.000080  d :     0.001926
      dxz     :     0.000214
      dyz     :     0.000470
      dx2y2   :     0.000829
      dxy     :     0.000334
  6 H s       :     0.978352  s :     0.978352
      pz      :     0.012535  p :     0.011729
      px      :    -0.001369
      py      :     0.000563
      dz2     :     0.000079  d :     0.001890
      dxz     :     0.000149
      dyz     :     0.000477
      dx2y2   :     0.000733
      dxy     :     0.000453
  7 H s       :     1.089166  s :     1.089166
      pz      :     0.018268  p :     0.011883
      px      :    -0.002598
      py      :    -0.003787
      dz2     :     0.000100  d :     0.002067
      dxz     :     0.000705
      dyz     :     0.000015
      dx2y2   :     0.000265
      dxy     :     0.000982
  8 N s       :     3.286088  s :     3.286088
      pz      :     1.183747  p :     3.390027
      px      :     1.001324
      py      :     1.204956
      dz2     :    -0.009864  d :     0.106541
      dxz     :     0.024688
      dyz     :     0.025728
      dx2y2   :     0.009255
      dxy     :     0.056735
      f0      :     0.000721  f :     0.004131
      f+1     :     0.000369
      f-1     :     0.000308
      f+2     :     0.000529
      f-2     :     0.000372
      f+3     :     0.000688
      f-3     :     0.001145
  9 C s       :     3.059516  s :     3.059516
      pz      :     0.872441  p :     2.276386
      px      :     0.855576
      py      :     0.548369
      dz2     :    -0.015940  d :     0.035187
      dxz     :     0.043105
      dyz     :     0.020494
      dx2y2   :     0.152285
      dxy     :    -0.164757
      f0      :     0.002217  f :     0.013791
      f+1     :     0.001055
      f-1     :     0.000800
      f+2     :     0.001683
      f-2     :     0.000788
      f+3     :     0.002221
      f-3     :     0.005027
 10 C s       :     3.449740  s :     3.449740
      pz      :     0.863702  p :     2.548295
      px      :     0.911680
      py      :     0.772912
      dz2     :    -0.017591  d :     0.066815
      dxz     :     0.016772
      dyz     :     0.059278
      dx2y2   :    -0.092646
      dxy     :     0.101002
      f0      :     0.002212  f :     0.013730
      f+1     :     0.000859
      f-1     :     0.000999
      f+2     :     0.000967
      f-2     :     0.001528
      f+3     :     0.002418
      f-3     :     0.004747
 11 N s       :     3.190473  s :     3.190473
      pz      :     1.203397  p :     3.384299
      px      :     1.330426
      py      :     0.850475
      dz2     :    -0.009832  d :     0.096189
      dxz     :     0.024477
      dyz     :     0.037258
      dx2y2   :    -0.002684
      dxy     :     0.046969
      f0      :     0.000740  f :     0.004231
      f+1     :     0.000311
      f-1     :     0.000410
      f+2     :     0.000325
      f-2     :     0.000595
      f+3     :     0.000749
      f-3     :     0.001102
 12 C s       :     3.143805  s :     3.143805
      pz      :     0.860778  p :     2.704906
      px      :     0.986707
      py      :     0.857421
      dz2     :    -0.011782  d :     0.165080
      dxz     :     0.014054
      dyz     :     0.022731
      dx2y2   :    -0.017648
      dxy     :     0.157725
      f0      :     0.001832  f :     0.011612
      f+1     :     0.000669
      f-1     :     0.000968
      f+2     :     0.001376
      f-2     :     0.000818
      f+3     :     0.002064
      f-3     :     0.003884
 13 C s       :     3.445689  s :     3.445689
      pz      :     0.863340  p :     2.511048
      px      :     0.903923
      py      :     0.743786
      dz2     :     0.000188  d :     0.060435
      dxz     :    -0.005988
      dyz     :     0.024739
      dx2y2   :     0.031374
      dxy     :     0.010122
      f0      :     0.001458  f :     0.007570
      f+1     :     0.000632
      f-1     :     0.000512
      f+2     :     0.000310
      f-2     :     0.001140
      f+3     :     0.001124
      f-3     :     0.002394
 14 C s       :     3.453664  s :     3.453664
      pz      :     0.957589  p :     2.632964
      px      :     0.854895
      py      :     0.820480
      dz2     :     0.002883  d :     0.061790
      dxz     :     0.011950
      dyz     :     0.017424
      dx2y2   :     0.025582
      dxy     :     0.003951
      f0      :     0.001477  f :     0.007412
      f+1     :     0.000553
      f-1     :     0.000666
      f+2     :     0.000621
      f-2     :     0.000630
      f+3     :     0.001187
      f-3     :     0.002278
 15 H s       :     1.026295  s :     1.026295
      pz      :     0.001262  p :     0.024006
      px      :    -0.004139
      py      :     0.026883
      dz2     :     0.000096  d :     0.002222
      dxz     :     0.000329
      dyz     :     0.000414
      dx2y2   :     0.001035
      dxy     :     0.000347
 16 H s       :     0.985416  s :     0.985416
      pz      :     0.018278  p :     0.028294
      px      :     0.006456
      py      :     0.003560
      dz2     :     0.000081  d :     0.001928
      dxz     :     0.000102
      dyz     :     0.000586
      dx2y2   :     0.000543
      dxy     :     0.000615
 17 C s       :     3.539513  s :     3.539513
      pz      :     0.977015  p :     2.417569
      px      :     0.828231
      py      :     0.612323
      dz2     :     0.007643  d :     0.021169
      dxz     :     0.024591
      dyz     :     0.013484
      dx2y2   :    -0.049919
      dxy     :     0.025370
      f0      :     0.001485  f :     0.007582
      f+1     :     0.000593
      f-1     :     0.000631
      f+2     :     0.000921
      f-2     :     0.000409
      f+3     :     0.001086
      f-3     :     0.002457
 18 H s       :     1.091820  s :     1.091820
      pz      :     0.018574  p :     0.014922
      px      :     0.005198
      py      :    -0.008850
      dz2     :     0.000100  d :     0.002075
      dxz     :     0.000251
      dyz     :     0.000471
      dx2y2   :     0.000885
      dxy     :     0.000367
 19 H s       :     0.976383  s :     0.976383
      pz      :     0.011633  p :     0.007889
      px      :    -0.001581
      py      :    -0.002162
      dz2     :     0.000079  d :     0.001883
      dxz     :     0.000600
      dyz     :     0.000021
      dx2y2   :     0.000282
      dxy     :     0.000901
 20 Pds       :     3.045438  s :     3.045438
      pz      :     2.038284  p :     6.003629
      px      :     1.868306
      py      :     2.097038
      dz2     :     1.919804  d :     8.942937
      dxz     :     1.939477
      dyz     :     1.970628
      dx2y2   :     1.335691
      dxy     :     1.777338
      f0      :     0.000884  f :     0.016238
      f+1     :     0.001935
      f-1     :     0.002256
      f+2     :     0.001265
      f-2     :     0.000397
      f+3     :     0.005933
[...]
      f-2     :     0.000419
      f+3     :     0.002094
      f-3     :     0.001839


                     *******************************
                     * LOEWDIN POPULATION ANALYSIS *
                     *******************************

----------------------
LOEWDIN ATOMIC CHARGES
----------------------
   0 C :   -0.048411
   1 C :    0.058774
   2 C :    0.049952
   3 C :    0.076769
   4 H :   -0.089902
   5 H :    0.009667
   6 H :    0.012681
   7 H :    0.000365
   8 N :    0.005405
   9 C :   -0.173810
  10 C :   -0.158171
  11 N :    0.019986
  12 C :   -0.008758
  13 C :    0.053578
  14 C :    0.058604
  15 H :   -0.011587
  16 H :    0.009998
  17 C :    0.079183
  18 H :    0.001925
  19 H :    0.013858
  20 Pd:    0.418588
  21 C :   -0.076090
  22 H :   -0.109344
  23 H :   -0.109306
  24 H :   -0.165489
  25 I :    0.081537

-------------------------------
LOEWDIN REDUCED ORBITAL CHARGES
-------------------------------
  0 C s       :     2.649184  s :     2.649184
      pz      :     0.669671  p :     2.511636
      px      :     0.928435
      py      :     0.913531
      dz2     :     0.074047  d :     0.824011
      dxz     :     0.045108
      dyz     :     0.153289
      dx2y2   :     0.325211
      dxy     :     0.226357
      f0      :     0.004071  f :     0.063580
      f+1     :     0.003813
      f-1     :     0.005910
      f+2     :     0.002895
      f-2     :     0.010194
      f+3     :     0.012826
      f-3     :     0.023870
  1 C s       :     2.649069  s :     2.649069
      pz      :     0.729073  p :     2.606999
      px      :     0.946139
      py      :     0.931788
      dz2     :     0.058502  d :     0.641889
      dxz     :     0.091944
      dyz     :     0.052000
      dx2y2   :     0.180163
      dxy     :     0.259280
      f0      :     0.002650  f :     0.043269
      f+1     :     0.003764
      f-1     :     0.003659
      f+2     :     0.005798
      f-2     :     0.002730
      f+3     :     0.009155
      f-3     :     0.015513
  2 C s       :     2.651741  s :     2.651741
      pz      :     0.692746  p :     2.577221
      px      :     0.953034
      py      :     0.931441
      dz2     :     0.057843  d :     0.676849
      dxz     :     0.113430
      dyz     :     0.055762
      dx2y2   :     0.203768
      dxy     :     0.246046
      f0      :     0.002645  f :     0.044238
      f+1     :     0.003693
      f-1     :     0.003438
      f+2     :     0.005920
      f-2     :     0.003819
      f+3     :     0.008848
      f-3     :     0.015874
  3 C s       :     2.632250  s :     2.632250
      pz      :     0.737004  p :     2.581721
      px      :     0.909153
      py      :     0.935563
      dz2     :     0.062898  d :     0.665613
      dxz     :     0.035841
      dyz     :     0.120845
      dx2y2   :     0.261878
      dxy     :     0.184151
      f0      :     0.002637  f :     0.043647
      f+1     :     0.003452
      f-1     :     0.004105
      f+2     :     0.002149
      f-2     :     0.006931
      f+3     :     0.009185
      f-3     :     0.015188
  4 H s       :     0.691496  s :     0.691496
      pz      :     0.066668  p :     0.369821
      px      :     0.179597
      py      :     0.123557
      dz2     :     0.002954  d :     0.028584
      dxz     :     0.007355
      dyz     :     0.000141
      dx2y2   :     0.009695
      dxy     :     0.008439
  5 H s       :     0.704376  s :     0.704376
      pz      :     0.071096  p :     0.257109
      px      :     0.081584
      py      :     0.104429
      dz2     :     0.002747  d :     0.028848
      dxz     :     0.002559
      dyz     :     0.005722
      dx2y2   :     0.009083
      dxy     :     0.008737
  6 H s       :     0.704750  s :     0.704750
      pz      :     0.066903  p :     0.254128
      px      :     0.077457
      py      :     0.109768
      dz2     :     0.002748  d :     0.028441
      dxz     :     0.001748
      dyz     :     0.005906
      dx2y2   :     0.009123
      dxy     :     0.008917
  7 H s       :     0.688006  s :     0.688006
      pz      :     0.071553  p :     0.282204
      px      :     0.128059
      py      :     0.082591
      dz2     :     0.002768  d :     0.029426
      dxz     :     0.008635
      dyz     :     0.000023
      dx2y2   :     0.008730
      dxy     :     0.009270
  8 N s       :     2.912180  s :     2.912180
      pz      :     0.978820  p :     3.325401
      px      :     1.121869
      py      :     1.224712
      dz2     :     0.074629  d :     0.738887
      dxz     :     0.114017
      dyz     :     0.085858
      dx2y2   :     0.230533
      dxy     :     0.233850
      f0      :     0.001081  f :     0.018127
      f+1     :     0.001748
      f-1     :     0.001153
      f+2     :     0.002607
      f-2     :     0.001331
      f+3     :     0.003511
      f-3     :     0.006696
  9 C s       :     2.608679  s :     2.608679
      pz      :     0.715394  p :     2.489190
      px      :     0.863630
      py      :     0.910166
      dz2     :     0.084933  d :     1.000660
      dxz     :     0.154576
      dyz     :     0.133667
      dx2y2   :     0.292786
      dxy     :     0.334698
      f0      :     0.005321  f :     0.075281
      f+1     :     0.006457
      f-1     :     0.004697
      f+2     :     0.010812
      f-2     :     0.005315
      f+3     :     0.013284
      f-3     :     0.029396
 10 C s       :     2.610384  s :     2.610384
      pz      :     0.708392  p :     2.480648
      px      :     0.920789
      py      :     0.851468
      dz2     :     0.084608  d :     0.992942
      dxz     :     0.151291
      dyz     :     0.136821
      dx2y2   :     0.308926
      dxy     :     0.311297
      f0      :     0.005316  f :     0.074197
      f+1     :     0.005485
      f-1     :     0.005627
      f+2     :     0.006410
      f-2     :     0.009689
      f+3     :     0.014053
      f-3     :     0.027617
 11 N s       :     2.902850  s :     2.902850
      pz      :     0.991706  p :     3.311183
      px      :     1.231464
      py      :     1.088014
      dz2     :     0.076763  d :     0.747619
      dxz     :     0.075978
      dyz     :     0.130034
      dx2y2   :     0.239134
      dxy     :     0.225710
      f0      :     0.001065  f :     0.018361
      f+1     :     0.000998
      f-1     :     0.001991
      f+2     :     0.000923
      f-2     :     0.003155
      f+3     :     0.003805
      f-3     :     0.006425
 12 C s       :     2.638276  s :     2.638276
      pz      :     0.681728  p :     2.501292
      px      :     0.943414
      py      :     0.876150
      dz2     :     0.068404  d :     0.805869
      dxz     :     0.116150
      dyz     :     0.086709
      dx2y2   :     0.218789
      dxy     :     0.315817
      f0      :     0.004025  f :     0.063321
      f+1     :     0.004462
      f-1     :     0.005331
      f+2     :     0.008665
      f-2     :     0.004629
      f+3     :     0.014341
      f-3     :     0.021867
 13 C s       :     2.651471  s :     2.651471
      pz      :     0.690795  p :     2.575711
      px      :     0.926738
      py      :     0.958179
      dz2     :     0.057553  d :     0.674939
      dxz     :     0.035495
      dyz     :     0.133388
      dx2y2   :     0.270769
      dxy     :     0.177734
      f0      :     0.002662  f :     0.044301
      f+1     :     0.003328
      f-1     :     0.003807
      f+2     :     0.002229
      f-2     :     0.007533
      f+3     :     0.009589
      f-3     :     0.015153
 14 C s       :     2.648383  s :     2.648383
      pz      :     0.732664  p :     2.607721
      px      :     0.946416
      py      :     0.928640
      dz2     :     0.058256  d :     0.641796
      dxz     :     0.095917
      dyz     :     0.050199
      dx2y2   :     0.227767
      dxy     :     0.209657
      f0      :     0.002680  f :     0.043497
      f+1     :     0.003980
      f-1     :     0.003472
      f+2     :     0.004416
      f-2     :     0.004291
      f+3     :     0.009976
      f-3     :     0.014682
 15 H s       :     0.673942  s :     0.673942
      pz      :     0.070457  p :     0.308541
      px      :     0.139321
      py      :     0.098763
      dz2     :     0.002895  d :     0.029105
      dxz     :     0.003352
      dyz     :     0.004581
      dx2y2   :     0.008844
      dxy     :     0.009432
 16 H s       :     0.704032  s :     0.704032
      pz      :     0.071662  p :     0.257078
      px      :     0.070421
      py      :     0.114995
      dz2     :     0.002746  d :     0.028892
      dxz     :     0.001133
      dyz     :     0.007219
      dx2y2   :     0.008856
      dxy     :     0.008938
 17 C s       :     2.631625  s :     2.631625
      pz      :     0.734863  p :     2.580392
      px      :     0.922469
      py      :     0.923060
      dz2     :     0.062927  d :     0.665122
      dxz     :     0.085038
      dyz     :     0.070752
      dx2y2   :     0.196317
      dxy     :     0.250087
      f0      :     0.002660  f :     0.043679
      f+1     :     0.003985
      f-1     :     0.003589
      f+2     :     0.006430
      f-2     :     0.002567
      f+3     :     0.009738
      f-3     :     0.014711
 18 H s       :     0.686112  s :     0.686112
      pz      :     0.070677  p :     0.282496
      px      :     0.085765
      py      :     0.126054
      dz2     :     0.002776  d :     0.029467
      dxz     :     0.002931
      dyz     :     0.005698
      dx2y2   :     0.009130
      dxy     :     0.008932
 19 H s       :     0.704194  s :     0.704194
      pz      :     0.066488  p :     0.253504
      px      :     0.122897
      py      :     0.064119
      dz2     :     0.002756  d :     0.028445
      dxz     :     0.007525
      dyz     :     0.000115
      dx2y2   :     0.008786
      dxy     :     0.009263
 20 Pds       :     2.101058  s :     2.101058
      pz      :     2.051400  p :     6.521662
      px      :     2.278825
      py      :     2.191436
      dz2     :     1.917545  d :     8.922777
      dxz     :     1.920543
      dyz     :     1.930923
      dx2y2   :     1.405038
      dxy     :     1.748728
      f0      :     0.001493  f :     0.035354
      f+1     :     0.004576
      f-1     :     0.004662
      f+2     :     0.002239
      f-2     :     0.000746
      f+3     :     0.013843
      f-3     :     0.007795
      g0      :     0.000068  g :     0.000562
      g+1     :     0.000039
      g-1     :     0.000037
      g+2     :     0.000095
      g-2     :     0.000044
      g+3     :     0.000024
      g-3     :     0.000014
      g+4     :     0.000111
      g-4     :     0.000131
 21 C s       :     2.729865  s :     2.729865
      pz      :     0.957590  p :     2.846970
      px      :     0.971999
      py      :     0.917382
      dz2     :     0.090975  d :     0.476151
      dxz     :     0.055797
      dyz     :     0.082970
      dx2y2   :     0.126995
      dxy     :     0.119414
      f0      :     0.001166  f :     0.023104
      f+1     :     0.004558
      f-1     :     0.004435
      f+2     :     0.001354
      f-2     :     0.004429
      f+3     :     0.003929
      f-3     :     0.003232
 22 H s       :     0.730793  s :     0.730793
      pz      :     0.125073  p :     0.348471
      px      :     0.105582
      py      :     0.117815
      dz2     :     0.008981  d :     0.030079
      dxz     :     0.006966
      dyz     :     0.007731
      dx2y2   :     0.003826
      dxy     :     0.002575
 23 H s       :     0.730817  s :     0.730817
      pz      :     0.125090  p :     0.348410
      px      :     0.105456
      py      :     0.117864
      dz2     :     0.008982  d :     0.030080
      dxz     :     0.006968
      dyz     :     0.007737
      dx2y2   :     0.003822
      dxy     :     0.002571
 24 H s       :     0.736442  s :     0.736442
      pz      :     0.089407  p :     0.398654
      px      :     0.161220
      py      :     0.148027
      dz2     :     0.002725  d :     0.030393
      dxz     :     0.009412
      dyz     :     0.000147
      dx2y2   :     0.008136
      dxy     :     0.009973
 25 I s       :     3.681632  s :     3.681632
      pz      :     3.875417  p :    11.068559
      px      :     3.497671
      py      :     3.695471
      dz2     :     2.024255  d :    10.156608
      dxz     :     2.023045
      dyz     :     2.004599
      dx2y2   :     2.048020
      dxy     :     2.056689
      f0      :     0.001260  f :     0.011663
      f+1     :     0.001685
      f-1     :     0.000343
      f+2     :     0.001735
      f-2     :     0.000607
      f+3     :     0.003137
      f-3     :     0.002895


                      *****************************
                      * MAYER POPULATION ANALYSIS *
                      *****************************

  NA   - Mulliken gross atomic population
  ZA   - Total nuclear charge
  QA   - Mulliken gross atomic charge
  VA   - Mayer's total valence
  BVA  - Mayer's bonded valence
  FA   - Mayer's free valence

  ATOM       NA         ZA         QA         VA         BVA        FA
  0 C      5.7814     6.0000     0.2186     3.3966     3.3966     0.0000
  1 C      6.1647     6.0000    -0.1647     3.3050     3.3050     0.0000
  2 C      6.0529     6.0000    -0.0529     3.2426     3.2426     0.0000
  3 C      5.9506     6.0000     0.0494     2.7051     2.7051    -0.0000
  4 H      1.2847     1.0000    -0.2847     1.1295     1.1295    -0.0000
  5 H      1.0030     1.0000    -0.0030     0.9680     0.9680     0.0000
  6 H      0.9920     1.0000     0.0080     0.9325     0.9325     0.0000
  7 H      1.1031     1.0000    -0.1031     0.9078     0.9078     0.0000
  8 N      6.7868     7.0000     0.2132     2.9647     2.9647    -0.0000
  9 C      5.3849     6.0000     0.6151     2.3128     2.3128    -0.0000
 10 C      6.0786     6.0000    -0.0786     3.4015     3.4015    -0.0000
 11 N      6.6752     7.0000     0.3248     3.0825     3.0825     0.0000
 12 C      6.0254     6.0000    -0.0254     3.7834     3.7834    -0.0000
 13 C      6.0247     6.0000    -0.0247     3.2626     3.2626    -0.0000
 14 C      6.1558     6.0000    -0.1558     3.2235     3.2235    -0.0000
 15 H      1.0525     1.0000    -0.0525     0.9993     0.9993     0.0000
 16 H      1.0156     1.0000    -0.0156     0.9762     0.9762     0.0000
 17 C      5.9858     6.0000     0.0142     2.6516     2.6516     0.0000
 18 H      1.1088     1.0000    -0.1088     0.9168     0.9168    -0.0000
 19 H      0.9862     1.0000     0.0138     0.9232     0.9232    -0.0000
 20 Pd    18.0086    18.0000    -0.0086     2.4380     2.4380     0.0000
 21 C      6.1601     6.0000    -0.1601     3.6801     3.6801     0.0000
 22 H      0.9600     1.0000     0.0400     1.2040     1.2040     0.0000
 23 H      0.9595     1.0000     0.0405     1.2045     1.2045     0.0000
 24 H      0.9091     1.0000     0.0909     1.1846     1.1846     0.0000
 25 I     25.3898    25.0000    -0.3898     1.0294     1.0294    -0.0000

  Mayer bond orders larger than 0.100000
B(  0-C ,  1-C ) :   1.1907 B(  0-C ,  4-H ) :   1.0240 B(  0-C ,  8-N ) :   1.4891 
B(  0-C , 20-Pd) :  -0.1229 B(  0-C , 25-I ) :  -0.1367 B(  1-C ,  2-C ) :   1.1640 
B(  1-C ,  5-H ) :   1.1156 B(  1-C , 20-Pd) :   0.1106 B(  2-C ,  3-C ) :   1.0079 
B(  2-C ,  6-H ) :   1.0940 B(  2-C ,  7-H ) :  -0.1420 B(  2-C ,  8-N ) :   0.1420 
B(  3-C ,  7-H ) :   1.2581 B(  3-C ,  8-N ) :  -0.2178 B(  3-C ,  9-C ) :   0.9802 
B(  3-C , 10-C ) :  -0.3799 B(  3-C , 20-Pd) :   0.1738 B(  4-H ,  8-N ) :  -0.1569 
B(  4-H , 25-I ) :   0.3174 B(  7-H ,  9-C ) :  -0.1816 B(  8-N ,  9-C ) :   1.2346 
B(  8-N , 10-C ) :   0.3978 B(  8-N , 20-Pd) :   0.1927 B(  9-C , 10-C ) :   1.0072 
B(  9-C , 17-C ) :  -0.5000 B(  9-C , 20-Pd) :  -0.1737 B( 10-C , 11-N ) :   1.6133 
B( 10-C , 12-C ) :  -0.1289 B( 10-C , 17-C ) :   1.0399 B( 10-C , 18-H ) :  -0.1808 
B( 10-C , 20-Pd) :   0.1029 B( 11-N , 12-C ) :   1.6576 B( 11-N , 13-C ) :   0.1552 
B( 11-N , 17-C ) :  -0.2039 B( 11-N , 20-Pd) :   0.2536 B( 12-C , 14-C ) :   1.1739 
B( 12-C , 15-H ) :   1.1093 B( 13-C , 14-C ) :   1.1761 B( 13-C , 17-C ) :   1.0475 
B( 13-C , 18-H ) :  -0.1475 B( 13-C , 19-H ) :   1.0877 B( 14-C , 16-H ) :   1.1165 
B( 17-C , 18-H ) :   1.2611 B( 17-C , 20-Pd) :   0.1636 B( 20-Pd, 21-C ) :   0.6599 
B( 20-Pd, 25-I ) :   0.9089 B( 21-C , 22-H ) :   1.0167 B( 21-C , 23-H ) :   1.0168 
B( 21-C , 24-H ) :   0.9789 

-------
TIMINGS
-------

Total SCF time: 0 days 0 hours 17 min 52 sec 

Total time                  ....    1072.116 sec
Sum of individual times     ....    1070.546 sec  ( 99.9%)

Fock matrix formation       ....    1060.554 sec  ( 98.9%)
  XC integration            ....       9.626 sec  (  0.9% of F)
    Basis function eval.    ....       1.609 sec  ( 16.7% of XC)
    Density eval.           ....       3.110 sec  ( 32.3% of XC)
    XC-Functional eval.     ....       0.178 sec  (  1.8% of XC)
    XC-Potential eval.      ....       3.382 sec  ( 35.1% of XC)
Diagonalization             ....       3.851 sec  (  0.4%)
Density matrix formation    ....       0.139 sec  (  0.0%)
Population analysis         ....       0.124 sec  (  0.0%)
Initial guess               ....       3.124 sec  (  0.3%)
Orbital Transformation      ....       0.000 sec  (  0.0%)
Orbital Orthonormalization  ....       0.000 sec  (  0.0%)
DIIS solution               ....       1.852 sec  (  0.2%)
Grid generation             ....       0.901 sec  (  0.1%)

-------------------------   --------------------
FINAL SINGLE POINT ENERGY      -960.995358592795
-------------------------   --------------------


                            ***************************************
                            *     ORCA property calculations      *
                            ***************************************

                                    ---------------------
                                    Active property flags
                                    ---------------------
   (+) Dipole Moment


------------------------------------------------------------------------------
                       ORCA ELECTRIC PROPERTIES CALCULATION
------------------------------------------------------------------------------

Dipole Moment Calculation                       ... on
Quadrupole Moment Calculation                   ... off
Polarizability Calculation                      ... off
GBWName                                         ... MOR11_ed11.gbw
Electron density file                           ... MOR11_ed11.scfp
The origin for moment calculation is the CENTER OF MASS  = (-0.379126, -0.037662 -0.000076)

-------------
DIPOLE MOMENT
-------------
                                X             Y             Z
Electronic contribution:   -214.24633     -39.82993      -0.01930
Nuclear contribution   :    218.94043      41.00073       0.01934
                        -----------------------------------------
Total Dipole Moment    :      4.69410       1.17080       0.00004
                        -----------------------------------------
Magnitude (a.u.)       :      4.83791
Magnitude (Debye)      :     12.29699



--------------------
Rotational spectrum 
--------------------
 
Rotational constants in cm-1:     0.017794     0.008244     0.005640 
Rotational constants in MHz :   533.441148   247.152748   169.085365 

 Dipole components along the rotational axes: 
x,y,z [a.u.] :    -4.696205     1.162343    -0.000218 
x,y,z [Debye]:   -11.936805     2.954440    -0.000555 

 

Timings for individual modules:

Sum of individual times         ...     1076.995 sec (=  17.950 min)
GTO integral calculation        ...        4.428 sec (=   0.074 min)   0.4 %
SCF iterations                  ...     1072.567 sec (=  17.876 min)  99.6 %
                             ****ORCA TERMINATED NORMALLY****
TOTAL RUN TIME: 0 days 0 hours 17 minutes 57 seconds 723 msec
