
                                 *****************
                                 * O   R   C   A *
                                 *****************

           --- An Ab Initio, DFT and Semiempirical electronic structure package ---

                  #######################################################
                  #                        -***-                        #
                  #          Department of theory and spectroscopy      #
                  #               Directorship: Frank Neese             #
                  #        Max Planck Institute fuer Kohlenforschung    #
                  #                Kaiser Wilhelm Platz 1               #
                  #                 D-45470 Muelheim/Ruhr               #
                  #                      Germany                        #
                  #                                                     #
                  #                  All rights reserved                #
                  #                        -***-                        #
                  #######################################################


                         Program Version 4.2.0 -  RELEASE  -


 With contributions from (in alphabetic order):
   Daniel Aravena         : Magnetic Suceptibility
   Michael Atanasov       : Ab Initio Ligand Field Theory (pilot matlab implementation)
   Alexander A. Auer      : GIAO ZORA, VPT2
   Ute Becker             : Parallelization
   Giovanni Bistoni       : ED, misc. LED, open-shell LED, HFLED
   Martin Brehm           : Molecular dynamics
   Dmytro Bykov           : SCF Hessian
   Vijay G. Chilkuri      : MRCI spin determinant printing, contributions to CSF-ICE
   Dipayan Datta          : RHF DLPNO-CCSD density
   Achintya Kumar Dutta   : EOM-CC, STEOM-CC
   Dmitry Ganyushin       : Spin-Orbit,Spin-Spin,Magnetic field MRCI
   Miquel Garcia          : C-PCM Hessian, Gaussian charge scheme
   Yang Guo               : DLPNO-NEVPT2, CIM, IAO-localization
   Andreas Hansen         : Spin unrestricted coupled pair/coupled cluster methods
   Benjamin Helmich-Paris : CASSCF linear response (MC-RPA)
   Lee Huntington         : MR-EOM, pCC
   Robert Izsak           : Overlap fitted RIJCOSX, COSX-SCS-MP3, EOM
   Christian Kollmar      : KDIIS, OOCD, Brueckner-CCSD(T), CCSD density
   Simone Kossmann        : Meta GGA functionals, TD-DFT gradient, OOMP2, MP2 Hessian
   Martin Krupicka        : AUTO-CI
   Lucas Lang             : DCDCAS
   Dagmar Lenk            : GEPOL surface, SMD
   Dimitrios Liakos       : Extrapolation schemes; Compound Job, initial MDCI parallelization
   Dimitrios Manganas     : Further ROCIS development; embedding schemes
   Dimitrios Pantazis     : SARC Basis sets
   Taras Petrenko         : DFT Hessian,TD-DFT gradient, ASA, ECA, R-Raman, ABS, FL, XAS/XES, NRVS
   Peter Pinski           : DLPNO-MP2, DLPNO-MP2 Gradient
   Christoph Reimann      : Effective Core Potentials
   Marius Retegan         : Local ZFS, SOC
   Christoph Riplinger    : Optimizer, TS searches, QM/MM, DLPNO-CCSD(T), (RO)-DLPNO pert. Triples
   Tobias Risthaus        : Range-separated hybrids, TD-DFT gradient, RPA, STAB
   Michael Roemelt        : Original ROCIS implementation
   Masaaki Saitow         : Open-shell DLPNO-CCSD energy and density
   Barbara Sandhoefer     : DKH picture change effects
   Avijit Sen             : IP-ROCIS
   Kantharuban Sivalingam : CASSCF convergence, NEVPT2, FIC-MRCI
   Bernardo de Souza      : ESD, SOC TD-DFT
   Georgi Stoychev        : AutoAux, RI-MP2 NMR
   Willem Van den Heuvel  : Paramagnetic NMR
   Boris Wezisla          : Elementary symmetry handling
   Frank Wennmohs         : Technical directorship


 We gratefully acknowledge several colleagues who have allowed us to
 interface, adapt or use parts of their codes:
   Stefan Grimme, W. Hujo, H. Kruse,             : VdW corrections, initial TS optimization,
                  C. Bannwarth                     DFT functionals, gCP, sTDA/sTD-DF
   Ed Valeev, F. Pavosevic, A. Kumar             : LibInt (2-el integral package), F12 methods
   Garnet Chan, S. Sharma, J. Yang, R. Olivares  : DMRG
   Ulf Ekstrom                                   : XCFun DFT Library
   Mihaly Kallay                                 : mrcc  (arbitrary order and MRCC methods)
   Andreas Klamt, Michael Diedenhofen            : otool_cosmo (COSMO solvation model)
   Jiri Pittner, Ondrej Demel                    : Mk-CCSD
   Frank Weinhold                                : gennbo (NPA and NBO analysis)
   Christopher J. Cramer and Donald G. Truhlar   : smd solvation model
   Lars Goerigk                                  : TD-DFT with DH, B97 family of functionals
   V. Asgeirsson, H. Jonsson                     : NEB implementation
   FAccTs GmbH                                   : IRC, NEB, NEB-TS, Multilevel, MM, QM/MM, CI optimization
   S Lehtola, MJT Oliveira, MAL Marques          : LibXC Library


 Your calculation uses the libint2 library for the computation of 2-el integrals
 For citations please refer to: http://libint.valeyev.net

 Your ORCA version has been built with support for libXC version: 4.2.3
 For citations please refer to: https://tddft.org/programs/libxc/

 This ORCA versions uses:
   CBLAS   interface :  Fast vector & matrix operations
   LAPACKE interface :  Fast linear algebra routines
   SCALAPACK package :  Parallel linear algebra routines


Your calculation utilizes the DFT-NL dispersion correction.
Cite in your paper:
Vydrov, O. A.; Van Voorhis, T. J. Chem. Phys. 2010, 133, 244103
Hujo, W.; Grimme, S. J. Chem. Theory Comput. 2011, 7, 3866 
   

----- Orbital basis set information -----
Your calculation utilizes the basis: def2-TZVPPD
   F. Weigend and R. Ahlrichs, Phys. Chem. Chem. Phys. 7, 3297 (2005).
   D. Rappoport and F. Furche, J. Chem. Phys. 133 134105 (2010).

----- AuxJK basis set information -----
Your calculation utilizes the auxiliary basis: def2/JK
   H-Ba, Hf-Rn: F. Weigend, J. Comput. Chem. 29, 167 (2008).

cite the ECPs for Mo [Def2-ECP] as follows:
Ce-Yb(ecp-28): M. Dolg, H. Stoll, H.Preuss, J. Chem. Phys., 1989, 90, 1730-1734.
Y-Cd(ecp-28), Hf-Hg(ecp-46): D. Andrae,U. Haeussermann, M. Dolg, H. Stoll, H. Preuss, Theor. Chim. Acta, 1990, 77, 123-141.
In-Sb(ecp-28), Tl-Bi(ecp-46): B. Metz, H. Stoll, M. Dolg, J. Chem. Phys., 2000, 113, 2563-2569.
Te-Xe(ecp-28), Po-Rn(ecp-46): K. A. Peterson, D. Figgen, E. Goll, H. Stoll, M. Dolg, J. Chem. Phys., 2003, 119, 11113-11123.
Rb(ecp-28), Cs(ecp-46): T. Leininger, A. Nicklass, W. Kuechle, H. Stoll, M. Dolg, A. Bergner, Chem. Phys. Lett., 1996, 255, 274-280.
Sr(ecp-28), Ba(ecp-46): M. Kaupp, P. V. Schleyer, H. Stoll and H. Preuss, J. Chem. Phys., 1991, 94, 1360-1366.
La(ecp-46): M. Dolg, H. Stoll, A. Savin, H. Preuss, Theor. Chim. Acta, 1989, 75, 173-194.
Lu(ecp-28): X. Cao, M. Dolg, J. Chem. Phys., 2001, 115, 7348-7355.

ECP parameters for Mo [Def2-ECP] have been obtained from:
TURBOMOLE (7.0.2)

================================================================================
                                        WARNINGS
                       Please study these warnings very carefully!
================================================================================


INFO   : the flag for use of LIBINT has been found!

================================================================================
                                       INPUT FILE
================================================================================
NAME = MOR17_ed36.in
|  1> #
|  2> # MOR17_ed36 wB97X-V/Def2-TZVPPD
|  3> #
|  4> ! wb97x-v def2-tzvppd def2/jk grid4 nofinalgrid
|  5> 
|  6> *xyz 0 1
|  7> Mo      -0.000266    0.073285   -0.001759 
|  8> C        1.725893   -0.773990   -1.226681 
|  9> C        2.211696    0.414668   -0.610995 
| 10> C        2.192326    0.250811    0.809261 
| 11> C        1.685230   -1.035926    1.105715 
| 12> C        1.413513   -1.680058   -0.153190 
| 13> H        1.704188   -0.987838   -2.284881 
| 14> H        2.536107    1.301869   -1.133102 
| 15> H        2.493190    0.988099    1.537778 
| 16> H        1.573828   -1.467340    2.089978 
| 17> H        1.067801   -2.694661   -0.276651 
| 18> C       -1.407221   -1.685804    0.112781 
| 19> C       -1.709531   -0.814976    1.218351 
| 20> C       -2.202710    0.272498   -0.775202 
| 21> C       -1.695077   -1.002456   -1.122045 
| 22> H       -1.669608   -1.061100    2.269076 
| 23> H       -2.528690    1.258371    1.205067 
| 24> C       -2.207491    0.390536    0.649493 
| 25> H       -1.601566   -1.403288   -2.120864 
| 26> H       -1.058155   -2.702954    0.200059 
| 27> C        0.040880    2.214506    0.720862 
| 28> H        0.978366    2.504794    1.184780 
| 29> H       -0.817411    2.527371    1.307308 
| 30> C       -0.044841    2.215313   -0.718681 
| 31> H        0.814149    2.526211   -1.305102 
| 32> H       -0.980875    2.509977   -1.182445 
| 33> H       -2.516160    1.031799   -1.475134 
| 34> *
| 35> 
| 36> %maxcore 5000
| 37> 
| 38> %pal
| 39> nprocs = 24
| 40> end
| 41> 
| 42> 
| 43>                          ****END OF INPUT****
================================================================================

                       ****************************
                       * Single Point Calculation *
                       ****************************

---------------------------------
CARTESIAN COORDINATES (ANGSTROEM)
---------------------------------
  Mo    -0.000266    0.073285   -0.001759
  C      1.725893   -0.773990   -1.226681
  C      2.211696    0.414668   -0.610995
  C      2.192326    0.250811    0.809261
  C      1.685230   -1.035926    1.105715
  C      1.413513   -1.680058   -0.153190
  H      1.704188   -0.987838   -2.284881
  H      2.536107    1.301869   -1.133102
  H      2.493190    0.988099    1.537778
  H      1.573828   -1.467340    2.089978
  H      1.067801   -2.694661   -0.276651
  C     -1.407221   -1.685804    0.112781
  C     -1.709531   -0.814976    1.218351
  C     -2.202710    0.272498   -0.775202
  C     -1.695077   -1.002456   -1.122045
  H     -1.669608   -1.061100    2.269076
  H     -2.528690    1.258371    1.205067
  C     -2.207491    0.390536    0.649493
  H     -1.601566   -1.403288   -2.120864
  H     -1.058155   -2.702954    0.200059
  C      0.040880    2.214506    0.720862
  H      0.978366    2.504794    1.184780
  H     -0.817411    2.527371    1.307308
  C     -0.044841    2.215313   -0.718681
  H      0.814149    2.526211   -1.305102
  H     -0.980875    2.509977   -1.182445
  H     -2.516160    1.031799   -1.475134

----------------------------
CARTESIAN COORDINATES (A.U.)
----------------------------
  NO LB      ZA    FRAG     MASS         X           Y           Z
   0 Mo   14.0000*   0    95.940   -0.000503    0.138489   -0.003324
   1 C     6.0000    0    12.011    3.261465   -1.462629   -2.318091
   2 C     6.0000    0    12.011    4.179500    0.783609   -1.154613
   3 C     6.0000    0    12.011    4.142896    0.473964    1.529282
   4 C     6.0000    0    12.011    3.184623   -1.957616    2.089499
   5 C     6.0000    0    12.011    2.671152   -3.174850   -0.289487
   6 H     1.0000    0     1.008    3.220449   -1.866743   -4.317799
   7 H     1.0000    0     1.008    4.792548    2.460176   -2.141252
   8 H     1.0000    0     1.008    4.711446    1.867237    2.905979
   9 H     1.0000    0     1.008    2.974104   -2.772871    3.949486
  10 H     1.0000    0     1.008    2.017851   -5.092171   -0.522795
  11 C     6.0000    0    12.011   -2.659262   -3.185708    0.213125
  12 C     6.0000    0    12.011   -3.230545   -1.540081    2.302350
  13 C     6.0000    0    12.011   -4.162519    0.514947   -1.464919
  14 C     6.0000    0    12.011   -3.203231   -1.894367   -2.120358
  15 H     1.0000    0     1.008   -3.155102   -2.005188    4.287932
  16 H     1.0000    0     1.008   -4.778532    2.377977    2.277247
  17 C     6.0000    0    12.011   -4.171553    0.738006    1.227364
  18 H     1.0000    0     1.008   -3.026521   -2.651830   -4.007852
  19 H     1.0000    0     1.008   -1.999623   -5.107843    0.378057
  20 C     6.0000    0    12.011    0.077252    4.184810    1.362232
  21 H     1.0000    0     1.008    1.848844    4.733375    2.238910
  22 H     1.0000    0     1.008   -1.544683    4.776039    2.470454
  23 C     6.0000    0    12.011   -0.084737    4.186335   -1.358110
  24 H     1.0000    0     1.008    1.538519    4.773847   -2.466285
  25 H     1.0000    0     1.008   -1.853585    4.743169   -2.234497
  26 H     1.0000    0     1.008   -4.754853    1.949818   -2.787599
* core charge reduced due to ECP

--------------------------------
INTERNAL COORDINATES (ANGSTROEM)
--------------------------------
 Mo     0   0   0     0.000000000000     0.00000000     0.00000000
 C      1   0   0     2.279897744415     0.00000000     0.00000000
 C      2   1   0     1.424072205462    73.48912938     0.00000000
 C      3   2   1     1.429808175555   109.21877142    63.22805450
 C      4   3   2     1.414469311969   108.49942256   359.53654238
 C      2   1   3     1.439070329103    70.66158518   114.22383842
 H      2   1   3     1.079809850913   125.79577209   236.46431140
 H      3   2   1     1.079334902044   125.41554190   243.66101918
 H      4   3   2     1.079282058004   126.04557203   180.69811121
 H      5   4   3     1.080417557322   126.23823083   178.18953490
 H      6   2   1     1.078971108545   125.18750455   117.75913004
 C      1   2   3     2.255445830328   102.10684716   195.92773869
 C     12   1   2     1.439450508557    72.43294342   157.27362728
 C     12   1   2     2.292654199964    62.00373430   236.97761026
 C     14  12   1     1.415450116201    36.97392313    99.90285132
 H     13  12   1     1.079904576771   126.98829360   239.56955176
 H     13  12   1     2.229341991339   129.43731504    65.55320000
 C     17  13  12     1.079337229184    31.34365360     0.05619764
 H     15  14  12     1.080300881285   126.28561404   176.56603626
 H     12   1   2     1.078915494439   122.51815167    36.28449030
 C      1   2   3     2.260243675757   120.66692392    16.62273098
 H     21   1   2     1.085526155311   113.93435489   312.56517611
 H     21   1   2     1.085572134785   115.55302894   180.74339975
 C     21   1   2     1.442093197383    71.35546345    66.26484454
 H     24  21   1     1.085546395022   119.49691888   250.85850578
 H     24  21   1     1.085386368879   118.55088683   108.03504426
 H     14  12   1     1.079209764469   162.35241360   100.07556229

---------------------------
INTERNAL COORDINATES (A.U.)
---------------------------
 Mo     0   0   0     0.000000000000     0.00000000     0.00000000
 C      1   0   0     4.308382350290     0.00000000     0.00000000
 C      2   1   0     2.691106463252    73.48912938     0.00000000
 C      3   2   1     2.701945875841   109.21877142    63.22805450
 C      4   3   2     2.672959624457   108.49942256   359.53654238
 C      2   1   3     2.719448809457    70.66158518   114.22383842
 H      2   1   3     2.040544894936   125.79577209   236.46431140
 H      3   2   1     2.039647371646   125.41554190   243.66101918
 H      4   3   2     2.039547510882   126.04557203   180.69811121
 H      5   4   3     2.041693293618   126.23823083   178.18953490
 H      6   2   1     2.038959901563   125.18750455   117.75913004
 C      1   2   3     4.262174929215   102.10684716   195.92773869
 C     12   1   2     2.720167244506    72.43294342   157.27362728
 C     12   1   2     4.332488557717    62.00373430   236.97761026
 C     14  12   1     2.674813075847    36.97392313    99.90285132
 H     13  12   1     2.040723900864   126.98829360   239.56955176
 H     13  12   1     4.212845822481   129.43731504    65.55320000
 C     17  13  12     2.039651769303    31.34365360     0.05619764
 H     15  14  12     2.041472807863   126.28561404   176.56603626
 H     12   1   2     2.038854806133   122.51815167    36.28449030
 C      1   2   3     4.271241543108   120.66692392    16.62273098
 H     21   1   2     2.051347144746   113.93435489   312.56517611
 H     21   1   2     2.051434033360   115.55302894   180.74339975
 C     21   1   2     2.725161202645    71.35546345    66.26484454
 H     24  21   1     2.051385392257   119.49691888   250.85850578
 H     24  21   1     2.051082986672   118.55088683   108.03504426
 H     14  12   1     2.039410895900   162.35241360   100.07556229

---------------------
BASIS SET INFORMATION
---------------------
There are 3 groups of distinct atoms

 Group   1 Type Mo  : 7s7p5d2f1g contracted to 6s4p3d2f1g pattern {211111/4111/311/11/1}
 Group   2 Type C   : 12s6p3d1f contracted to 6s3p3d1f pattern {621111/411/111/1}
 Group   3 Type H   : 5s3p1d contracted to 3s3p1d pattern {311/111/1}

Atom   0Mo   basis set group =>   1
Atom   1C    basis set group =>   2
Atom   2C    basis set group =>   2
Atom   3C    basis set group =>   2
Atom   4C    basis set group =>   2
Atom   5C    basis set group =>   2
Atom   6H    basis set group =>   3
Atom   7H    basis set group =>   3
Atom   8H    basis set group =>   3
Atom   9H    basis set group =>   3
Atom  10H    basis set group =>   3
Atom  11C    basis set group =>   2
Atom  12C    basis set group =>   2
Atom  13C    basis set group =>   2
Atom  14C    basis set group =>   2
Atom  15H    basis set group =>   3
Atom  16H    basis set group =>   3
Atom  17C    basis set group =>   2
Atom  18H    basis set group =>   3
Atom  19H    basis set group =>   3
Atom  20C    basis set group =>   2
Atom  21H    basis set group =>   3
Atom  22H    basis set group =>   3
Atom  23C    basis set group =>   2
Atom  24H    basis set group =>   3
Atom  25H    basis set group =>   3
Atom  26H    basis set group =>   3
----------------------------------
AUXILIARY/JK BASIS SET INFORMATION
----------------------------------
There are 3 groups of distinct atoms

 Group   1 Type Mo  : 13s12p10d9f6g3h2i contracted to 11s10p9d8f6g3h2i pattern {31111111111/3111111111/211111111/21111111/111111/111/11}
 Group   2 Type C   : 14s10p6d2f1g contracted to 10s8p5d1f1g pattern {5111111111/31111111/21111/2/1}
 Group   3 Type H   : 4s2p2d contracted to 2s2p2d pattern {31/11/11}

Atom   0Mo   basis set group =>   1
Atom   1C    basis set group =>   2
Atom   2C    basis set group =>   2
Atom   3C    basis set group =>   2
Atom   4C    basis set group =>   2
Atom   5C    basis set group =>   2
Atom   6H    basis set group =>   3
Atom   7H    basis set group =>   3
Atom   8H    basis set group =>   3
Atom   9H    basis set group =>   3
Atom  10H    basis set group =>   3
Atom  11C    basis set group =>   2
Atom  12C    basis set group =>   2
Atom  13C    basis set group =>   2
Atom  14C    basis set group =>   2
Atom  15H    basis set group =>   3
Atom  16H    basis set group =>   3
Atom  17C    basis set group =>   2
Atom  18H    basis set group =>   3
Atom  19H    basis set group =>   3
Atom  20C    basis set group =>   2
Atom  21H    basis set group =>   3
Atom  22H    basis set group =>   3
Atom  23C    basis set group =>   2
Atom  24H    basis set group =>   3
Atom  25H    basis set group =>   3
Atom  26H    basis set group =>   3
-------------------------
ECP PARAMETER INFORMATION
-------------------------

 Group 1, Type Mo ECP Def2-ECP (replacing 28 core electrons, lmax=3)

Atom   0Mo   ECP group =>   1



           ************************************************************
           *        Program running with 24 parallel MPI-processes    *
           *              working on a common directory               *
           ************************************************************
------------------------------------------------------------------------------
                           ORCA GTO INTEGRAL CALCULATION
------------------------------------------------------------------------------

                         BASIS SET STATISTICS AND STARTUP INFO

 # of primitive gaussian shells          ...  412
 # of primitive gaussian functions       ...  966
 # of contracted shells                  ...  270
 # of contracted basis functions         ...  738
 Highest angular momentum                ...    4
 Maximum contraction depth               ...    6
 Integral package used                   ... LIBINT
 Integral threshhold            Thresh   ...  1.000e-10
 Primitive cut-off              TCut     ...  1.000e-11


------------------------------ INTEGRAL EVALUATION ----------------------------


 * One electron integrals 

   ECP integrals                         ... done
 Pre-screening matrix                    ... done
 Shell pair data                         ... done (   0.009 sec)



           ************************************************************
           *        Program running with 24 parallel MPI-processes    *
           *              working on a common directory               *
           ************************************************************
-------------------------------------------------------------------------------
                                 ORCA SCF
-------------------------------------------------------------------------------

------------
SCF SETTINGS
------------
Hamiltonian:
 Density Functional     Method          .... DFT(GTOs)
 Exchange Functional    Exchange        .... WB97X-V
 Correlation Functional Correlation     .... WB97X-V
 Gradients option       PostSCFGGA      .... off
 Hybrid DFT is turned on
   Fraction HF Exchange ScalHFX         ....  0.167000
   Scaling of DF-GGA-X  ScalDFX         ....  0.000000
   Scaling of DF-GGA-C  ScalDFC         ....  1.000000
   Scaling of DF-LDA-C  ScalLDAC        ....  1.000000
   Perturbative correction              ....  0.000000
   Density functional embedding theory  .... OFF
 Long-range corrected/Screened/Range-Separated Hybrid DFT is turned on
   Amount of maximum screened exact exchange              ....  0.833000
   Range separation parameter mu (erf(mu*r12)/r12)        ....  0.300000
   NL short-range parameter             ....  6.000000
   NL long-range parameter              ....  0.010000


General Settings:
 Integral files         IntName         .... MOR17_ed36
 Hartree-Fock type      HFTyp           .... RHF
 Total Charge           Charge          ....    0
 Multiplicity           Mult            ....    1
 Number of Electrons    NEL             ....  100
 Basis Dimension        Dim             ....  738
 Nuclear Repulsion      ENuc            ....    916.5363631980 Eh

Convergence Acceleration:
 DIIS                   CNVDIIS         .... on
   Start iteration      DIISMaxIt       ....    12
   Startup error        DIISStart       ....  0.200000
   # of expansion vecs  DIISMaxEq       ....     5
   Bias factor          DIISBfac        ....   1.050
   Max. coefficient     DIISMaxC        ....  10.000
 Newton-Raphson         CNVNR           .... off
 SOSCF                  CNVSOSCF        .... off
 Level Shifting         CNVShift        .... on
   Level shift para.    LevelShift      ....    0.2500
   Turn off err/grad.   ShiftErr        ....    0.0010
 Zerner damping         CNVZerner       .... off
 Static damping         CNVDamp         .... on
   Fraction old density DampFac         ....    0.7000
   Max. Damping (<1)    DampMax         ....    0.9800
   Min. Damping (>=0)   DampMin         ....    0.0000
   Turn off err/grad.   DampErr         ....    0.1000
 Fernandez-Rico         CNVRico         .... off

SCF Procedure:
 Maximum # iterations   MaxIter         ....   125
 SCF integral mode      SCFMode         .... Direct
   Integral package                     .... LIBINT
 Reset frequency        DirectResetFreq ....    20
 Integral Threshold     Thresh          ....  1.000e-10 Eh
 Primitive CutOff       TCut            ....  1.000e-11 Eh

Convergence Tolerance:
 Convergence Check Mode ConvCheckMode   .... Total+1el-Energy
 Convergence forced     ConvForced      .... 0
 Energy Change          TolE            ....  1.000e-06 Eh
 1-El. energy change                    ....  1.000e-03 Eh
 DIIS Error             TolErr          ....  1.000e-06


Diagonalization of the overlap matrix:
Smallest eigenvalue                        ... 7.517e-07
Time for diagonalization                   ...    0.088 sec
Threshold for overlap eigenvalues          ... 1.000e-08
Number of eigenvalues below threshold      ... 0
Time for construction of square roots      ...    0.073 sec
Total time needed                          ...    0.163 sec

-------------------
DFT GRID GENERATION
-------------------

General Integration Accuracy     IntAcc      ...  4.670
Radial Grid Type                 RadialGrid  ... Gauss-Chebyshev
Angular Grid (max. acc.)         AngularGrid ... Lebedev-302
Angular grid pruning method      GridPruning ... 3 (G Style)
Weight generation scheme         WeightScheme... Becke
Basis function cutoff            BFCut       ...    1.0000e-10
Integration weight cutoff        WCut        ...    1.0000e-14
Grids for H and He will be reduced by one unit

# of grid points (after initial pruning)     ... 132658 (   0.0 sec)
# of grid points (after weights+screening)   ... 114978 (   0.1 sec)
nearest neighbour list constructed           ...    0.0 sec
Grid point re-assignment to atoms done       ...    0.0 sec
Grid point division into batches done        ...    0.4 sec
Reduced shell lists constructed in    0.6 sec

Total number of grid points                  ...   114978
Total number of batches                      ...     1812
Average number of points per batch           ...       63
Average number of grid points per atom       ...     4258
Average number of shells per batch           ...   215.10 (79.67%)
Average number of basis functions per batch  ...   620.25 (84.04%)
Average number of large shells per batch     ...   177.90 (82.70%)
Average number of large basis fcns per batch ...   502.73 (81.05%)
Maximum spatial batch extension              ...   1.88,  1.87,  1.51 au
Average spatial batch extension              ...   0.05,  0.05,  0.04 au

Time for grid setup =    0.679 sec

------------------------------
INITIAL GUESS: MODEL POTENTIAL
------------------------------
Loading Hartree-Fock densities                     ... done
  calling /sw/apps/orca/orca_4_2_0_linux_x86-64_openmpi314/orca MOR17_ed36_atom42.inp > MOR17_ed36_atom42.out in order to generate an atomic fitting density for atom 0 (Mo with ECP) on-the-fly... 
    atom 0 (Mo), assumed electronic state with S=5: 1s2 2s2 2p6 3s2 3p6 4s2 3d10 4p6 5s2 4d4           ... done
Calculating cut-offs                               ... done
Setting up the integral package                    ... done
Initializing the effective Hamiltonian             ... done
Starting the Coulomb interaction                   ... done (   0.1 sec)
Reading the grid                                   ... done
Mapping shells                                     ... done
Starting the XC term evaluation                    ... done (   0.4 sec)
  promolecular density results
     # of electrons  =    127.995356256
     EX              =   -136.984063742
     EC              =     -6.346359343
     EX+EC           =   -143.330423084
Transforming the Hamiltonian                       ... done (   0.0 sec)
Diagonalizing the Hamiltonian                      ... done (   0.1 sec)
Back transforming the eigenvectors                 ... done (   0.0 sec)
Now organizing SCF variables                       ... done
                      ------------------
                      INITIAL GUESS DONE (   3.3 sec)
                      ------------------
--------------
SCF ITERATIONS
--------------
ITER       Energy         Delta-E        Max-DP      RMS-DP      [F,P]     Damp
               ***  Starting incremental Fock matrix formation  ***
  0   -534.1114652434   0.000000000000 0.32177423  0.00228665  0.3143178 0.7000
  1   -534.1779477304  -0.066482487020 0.23550324  0.00168950  0.2351136 0.7000
                               ***Turning on DIIS***
  2   -534.2123503101  -0.034402579672 0.18722135  0.00131744  0.1732236 0.7000
  3   -534.2343816297  -0.022031319610 0.17682677  0.00119831  0.1246417 0.7000
  4   -534.2498369411  -0.015455311444 0.48923568  0.00317202  0.0868980 0.0000
  5   -534.2868143326  -0.036977391485 0.06416097  0.00049959  0.0035551 0.0000
  6   -534.2871538034  -0.000339470731 0.06685910  0.00038356  0.0047077 0.0000
  7   -534.2872905328  -0.000136729461 0.02713081  0.00023317  0.0024429 0.0000
  8   -534.2873749675  -0.000084434638 0.04557497  0.00027210  0.0019826 0.0000
  9   -534.2874302970  -0.000055329517 0.05058704  0.00028559  0.0014891 0.0000
 10   -534.2874548842  -0.000024587241 0.03329842  0.00017713  0.0010423 0.0000
 11   -534.2874646623  -0.000009778101 0.03713397  0.00014844  0.0007524 0.0000
 12   -534.2874721220  -0.000007459696 0.03270478  0.00017558  0.0003030 0.0000
 13   -534.2874729861  -0.000000864092 0.01821127  0.00010519  0.0001822 0.0000
 14   -534.2874731717  -0.000000185603 0.03458246  0.00021456  0.0000892 0.0000
                 **** Energy Check signals convergence ****

               *****************************************************
               *                     SUCCESS                       *
               *           SCF CONVERGED AFTER  15 CYCLES          *
               *****************************************************


Setting up the DFT-NL grid :

General Integration Accuracy     IntAcc      ...  4.340
Radial Grid Type                 RadialGrid  ... Gauss-Chebyshev
Angular Grid (max. acc.)         AngularGrid ... Lebedev-110
Angular grid pruning method      GridPruning ... 3 (G Style)
Weight generation scheme         WeightScheme... Becke
Basis function cutoff            BFCut       ...    1.0000e-10
Integration weight cutoff        WCut        ...    1.0000e-14
Grids for H and He will be reduced by one unit

# of grid points (after initial pruning)     ...  34268 (   0.0 sec)
# of grid points (after weights+screening)   ...  30298 (   0.0 sec)
nearest neighbour list constructed           ...    0.0 sec
Grid point re-assignment to atoms done       ...    0.0 sec
Grid point division into batches done        ...    0.0 sec
Reduced shell lists constructed in    0.1 sec

Total number of grid points                  ...    30298
Total number of batches                      ...      485
Average number of points per batch           ...       62
Average number of grid points per atom       ...     1122
Average number of shells per batch           ...   214.14 (79.31%)
Average number of basis functions per batch  ...   616.14 (83.49%)
Average number of large shells per batch     ...   177.95 (83.10%)
Average number of large basis fcns per batch ...   507.50 (82.37%)
Maximum spatial batch extension              ...   2.47,  2.64,  2.29 au
Average spatial batch extension              ...   0.07,  0.08,  0.08 au

Final grid set up in    0.1 sec

-------------------------------------------------------------------------------
                         DFT-NL dispersion correction                          
-------------------------------------------------------------------------------

SC Energy -534.287473278 
NL    Energy 0.350685569 
SC+NL Energy -533.936787710 
NL done in    0.2 sec
-------------------------------------------------------------------------------

----------------
TOTAL SCF ENERGY
----------------

Total Energy       :         -533.93678771 Eh          -14529.15864 eV

Components:
Nuclear Repulsion  :          916.53636320 Eh           24940.22238 eV
Electronic Energy  :        -1450.47315091 Eh          -39469.38102 eV
One Electron Energy:        -2564.62834153 Eh          -69787.08508 eV
Two Electron Energy:         1114.15519063 Eh           30317.70406 eV

Virial components:
Potential Energy   :        -1020.89851418 Eh          -27780.06088 eV
Kinetic Energy     :          486.96172647 Eh           13250.90224 eV
Virial Ratio       :            2.09646561


DFT components:
N(Alpha)           :       50.000583145372 electrons
N(Beta)            :       50.000583145372 electrons
N(Total)           :      100.001166290743 electrons
E(X)               :      -49.108219662089 Eh       
E(C)               :       -4.139661847933 Eh       
NL Energy, E(C,NL) :        0.350685568557 Eh       
E(XC)              :      -52.897195941465 Eh       
DFET-embed. en.    :        0.000000000000 Eh       

---------------
SCF CONVERGENCE
---------------

  Last Energy change         ...   -1.0653e-07  Tolerance :   1.0000e-06
  Last MAX-Density change    ...    2.9788e-02  Tolerance :   1.0000e-05
  Last RMS-Density change    ...    1.7926e-04  Tolerance :   1.0000e-06
  Last DIIS Error            ...    3.9895e-05  Tolerance :   1.0000e-06

             **** THE GBW FILE WAS UPDATED (MOR17_ed36.gbw) ****
             **** DENSITY FILE WAS UPDATED (MOR17_ed36.scfp) ****
             **** ENERGY FILE WAS UPDATED (MOR17_ed36.en.tmp) ****
             **** THE GBW FILE WAS UPDATED (MOR17_ed36.gbw) ****
             **** DENSITY FILE WAS UPDATED (MOR17_ed36.scfp) ****
----------------
ORBITAL ENERGIES
----------------

  NO   OCC          E(Eh)            E(eV) 
   0   2.0000     -10.287657      -279.9414 
   1   2.0000     -10.287566      -279.9389 
   2   2.0000     -10.287419      -279.9349 
   3   2.0000     -10.287270      -279.9308 
   4   2.0000     -10.286637      -279.9136 
   5   2.0000     -10.286030      -279.8971 
   6   2.0000     -10.285748      -279.8894 
   7   2.0000     -10.285657      -279.8870 
   8   2.0000     -10.283575      -279.8303 
   9   2.0000     -10.283154      -279.8188 
  10   2.0000     -10.243611      -278.7428 
  11   2.0000     -10.243113      -278.7293 
  12   2.0000      -2.667932       -72.5981 
  13   2.0000      -1.690665       -46.0053 
  14   2.0000      -1.670024       -45.4437 
  15   2.0000      -1.641651       -44.6716 
  16   2.0000      -1.028038       -27.9743 
  17   2.0000      -1.010328       -27.4924 
  18   2.0000      -0.862673       -23.4745 
  19   2.0000      -0.850581       -23.1455 
  20   2.0000      -0.847416       -23.0594 
  21   2.0000      -0.847267       -23.0553 
  22   2.0000      -0.843311       -22.9477 
  23   2.0000      -0.696462       -18.9517 
  24   2.0000      -0.679687       -18.4952 
  25   2.0000      -0.665321       -18.1043 
  26   2.0000      -0.663748       -18.0615 
  27   2.0000      -0.661940       -18.0123 
  28   2.0000      -0.659359       -17.9421 
  29   2.0000      -0.648695       -17.6519 
  30   2.0000      -0.550388       -14.9768 
  31   2.0000      -0.535707       -14.5773 
  32   2.0000      -0.521520       -14.1913 
  33   2.0000      -0.516003       -14.0412 
  34   2.0000      -0.514114       -13.9897 
  35   2.0000      -0.509395       -13.8614 
  36   2.0000      -0.507606       -13.8127 
  37   2.0000      -0.491367       -13.3708 
  38   2.0000      -0.490298       -13.3417 
  39   2.0000      -0.487585       -13.2679 
  40   2.0000      -0.484231       -13.1766 
  41   2.0000      -0.472237       -12.8502 
  42   2.0000      -0.436229       -11.8704 
  43   2.0000      -0.370734       -10.0882 
  44   2.0000      -0.368048       -10.0151 
  45   2.0000      -0.365082        -9.9344 
  46   2.0000      -0.350232        -9.5303 
  47   2.0000      -0.348185        -9.4746 
  48   2.0000      -0.278413        -7.5760 
  49   2.0000      -0.253181        -6.8894 
  50   0.0000       0.055934         1.5220 
  51   0.0000       0.062613         1.7038 
  52   0.0000       0.069008         1.8778 
  53   0.0000       0.069431         1.8893 
  54   0.0000       0.082176         2.2361 
  55   0.0000       0.082249         2.2381 
  56   0.0000       0.085686         2.3316 
  57   0.0000       0.089254         2.4287 
  58   0.0000       0.092074         2.5055 
  59   0.0000       0.094512         2.5718 
  60   0.0000       0.098758         2.6874 
  61   0.0000       0.100159         2.7255 
  62   0.0000       0.106071         2.8863 
  63   0.0000       0.116112         3.1596 
  64   0.0000       0.127330         3.4648 
  65   0.0000       0.132979         3.6185 
  66   0.0000       0.134852         3.6695 
  67   0.0000       0.136616         3.7175 
  68   0.0000       0.140825         3.8320 
  69   0.0000       0.142028         3.8648 
  70   0.0000       0.147711         4.0194 
  71   0.0000       0.150905         4.1063 
  72   0.0000       0.157666         4.2903 
  73   0.0000       0.166355         4.5268 
  74   0.0000       0.182176         4.9572 
  75   0.0000       0.191624         5.2144 
  76   0.0000       0.193176         5.2566 
  77   0.0000       0.197598         5.3769 
  78   0.0000       0.200891         5.4665 
  79   0.0000       0.204914         5.5760 
  80   0.0000       0.205777         5.5995 
  81   0.0000       0.212329         5.7778 
  82   0.0000       0.216370         5.8877 
  83   0.0000       0.220638         6.0039 
  84   0.0000       0.222392         6.0516 
  85   0.0000       0.233467         6.3530 
  86   0.0000       0.235864         6.4182 
  87   0.0000       0.244372         6.6497 
  88   0.0000       0.245085         6.6691 
  89   0.0000       0.250779         6.8241 
  90   0.0000       0.254483         6.9248 
  91   0.0000       0.260558         7.0901 
  92   0.0000       0.267407         7.2765 
  93   0.0000       0.270498         7.3606 
  94   0.0000       0.271930         7.3996 
  95   0.0000       0.273893         7.4530 
  96   0.0000       0.282210         7.6793 
  97   0.0000       0.291406         7.9296 
  98   0.0000       0.293424         7.9845 
  99   0.0000       0.300129         8.1669 
 100   0.0000       0.304028         8.2730 
 101   0.0000       0.310403         8.4465 
 102   0.0000       0.311099         8.4654 
 103   0.0000       0.314586         8.5603 
 104   0.0000       0.315286         8.5794 
 105   0.0000       0.316113         8.6019 
 106   0.0000       0.325140         8.8475 
 107   0.0000       0.333732         9.0813 
 108   0.0000       0.334831         9.1112 
 109   0.0000       0.337515         9.1843 
 110   0.0000       0.345375         9.3981 
 111   0.0000       0.346751         9.4356 
 112   0.0000       0.350715         9.5435 
 113   0.0000       0.352509         9.5923 
 114   0.0000       0.355599         9.6764 
 115   0.0000       0.361484         9.8365 
 116   0.0000       0.363406         9.8888 
 117   0.0000       0.367560        10.0018 
 118   0.0000       0.368718        10.0333 
 119   0.0000       0.373618        10.1667 
 120   0.0000       0.374127        10.1805 
 121   0.0000       0.378705        10.3051 
 122   0.0000       0.380250        10.3471 
 123   0.0000       0.387092        10.5333 
 124   0.0000       0.388840        10.5809 
 125   0.0000       0.391856        10.6630 
 126   0.0000       0.396213        10.7815 
 127   0.0000       0.399435        10.8692 
 128   0.0000       0.401624        10.9287 
 129   0.0000       0.409285        11.1372 
 130   0.0000       0.418411        11.3855 
 131   0.0000       0.420745        11.4491 
 132   0.0000       0.423465        11.5231 
 133   0.0000       0.424697        11.5566 
 134   0.0000       0.436424        11.8757 
 135   0.0000       0.438378        11.9289 
 136   0.0000       0.439312        11.9543 
 137   0.0000       0.441641        12.0177 
 138   0.0000       0.450646        12.2627 
 139   0.0000       0.454310        12.3624 
 140   0.0000       0.455865        12.4047 
 141   0.0000       0.460593        12.5334 
 142   0.0000       0.460867        12.5408 
 143   0.0000       0.466549        12.6955 
 144   0.0000       0.469086        12.7645 
 145   0.0000       0.470618        12.8062 
 146   0.0000       0.473391        12.8816 
 147   0.0000       0.477657        12.9977 
 148   0.0000       0.480943        13.0871 
 149   0.0000       0.481619        13.1055 
 150   0.0000       0.486221        13.2307 
 151   0.0000       0.487992        13.2789 
 152   0.0000       0.488723        13.2988 
 153   0.0000       0.494308        13.4508 
 154   0.0000       0.495242        13.4762 
 155   0.0000       0.497459        13.5365 
 156   0.0000       0.506829        13.7915 
 157   0.0000       0.508895        13.8477 
 158   0.0000       0.510761        13.8985 
 159   0.0000       0.515444        14.0259 
 160   0.0000       0.523629        14.2487 
 161   0.0000       0.525122        14.2893 
 162   0.0000       0.535999        14.5853 
 163   0.0000       0.539430        14.6786 
 164   0.0000       0.546482        14.8705 
 165   0.0000       0.552826        15.0432 
 166   0.0000       0.555713        15.1217 
 167   0.0000       0.561280        15.2732 
 168   0.0000       0.564215        15.3531 
 169   0.0000       0.573533        15.6066 
 170   0.0000       0.574171        15.6240 
 171   0.0000       0.588072        16.0023 
 172   0.0000       0.589008        16.0277 
 173   0.0000       0.601858        16.3774 
 174   0.0000       0.603928        16.4337 
 175   0.0000       0.605686        16.4815 
 176   0.0000       0.606600        16.5064 
 177   0.0000       0.607400        16.5282 
 178   0.0000       0.610252        16.6058 
 179   0.0000       0.618765        16.8375 
 180   0.0000       0.621412        16.9095 
 181   0.0000       0.626054        17.0358 
 182   0.0000       0.626971        17.0607 
 183   0.0000       0.629746        17.1363 
 184   0.0000       0.630180        17.1481 
 185   0.0000       0.640336        17.4244 
 186   0.0000       0.646042        17.5797 
 187   0.0000       0.652169        17.7464 
 188   0.0000       0.652624        17.7588 
 189   0.0000       0.662396        18.0247 
 190   0.0000       0.666469        18.1355 
 191   0.0000       0.668900        18.2017 
 192   0.0000       0.679507        18.4903 
 193   0.0000       0.682578        18.5739 
 194   0.0000       0.684069        18.6145 
 195   0.0000       0.688844        18.7444 
 196   0.0000       0.691750        18.8235 
 197   0.0000       0.697979        18.9930 
 198   0.0000       0.701914        19.1001 
 199   0.0000       0.707000        19.2384 
 200   0.0000       0.711791        19.3688 
 201   0.0000       0.718408        19.5489 
 202   0.0000       0.719446        19.5771 
 203   0.0000       0.720659        19.6101 
 204   0.0000       0.723514        19.6878 
 205   0.0000       0.728222        19.8159 
 206   0.0000       0.730982        19.8910 
 207   0.0000       0.734289        19.9810 
 208   0.0000       0.739923        20.1343 
 209   0.0000       0.741207        20.1693 
 210   0.0000       0.744679        20.2637 
 211   0.0000       0.757436        20.6109 
 212   0.0000       0.759482        20.6665 
 213   0.0000       0.760127        20.6841 
 214   0.0000       0.763223        20.7684 
 215   0.0000       0.770377        20.9630 
 216   0.0000       0.772110        21.0102 
 217   0.0000       0.777781        21.1645 
 218   0.0000       0.781706        21.2713 
 219   0.0000       0.782705        21.2985 
 220   0.0000       0.793272        21.5860 
 221   0.0000       0.795797        21.6547 
 222   0.0000       0.797970        21.7139 
 223   0.0000       0.805334        21.9142 
 224   0.0000       0.807600        21.9759 
 225   0.0000       0.812144        22.0996 
 226   0.0000       0.813519        22.1370 
 227   0.0000       0.822774        22.3888 
 228   0.0000       0.826613        22.4933 
 229   0.0000       0.827085        22.5061 
 230   0.0000       0.834346        22.7037 
 231   0.0000       0.838950        22.8290 
 232   0.0000       0.840891        22.8818 
 233   0.0000       0.842638        22.9294 
 234   0.0000       0.849416        23.1138 
 235   0.0000       0.849766        23.1233 
 236   0.0000       0.850661        23.1477 
 237   0.0000       0.856155        23.2971 
 238   0.0000       0.857140        23.3240 
 239   0.0000       0.862294        23.4642 
 240   0.0000       0.864151        23.5148 
 241   0.0000       0.869356        23.6564 
 242   0.0000       0.873365        23.7655 
 243   0.0000       0.878394        23.9023 
 244   0.0000       0.880926        23.9712 
 245   0.0000       0.881862        23.9967 
 246   0.0000       0.894403        24.3379 
 247   0.0000       0.896556        24.3965 
 248   0.0000       0.902959        24.5708 
 249   0.0000       0.913493        24.8574 
 250   0.0000       0.915191        24.9036 
 251   0.0000       0.922078        25.0910 
 252   0.0000       0.929344        25.2887 
 253   0.0000       0.944817        25.7098 
 254   0.0000       0.953477        25.9454 
 255   0.0000       0.955664        26.0049 
 256   0.0000       0.965346        26.2684 
 257   0.0000       0.967658        26.3313 
 258   0.0000       0.987158        26.8619 
 259   0.0000       0.994031        27.0490 
 260   0.0000       1.012229        27.5441 
 261   0.0000       1.019567        27.7438 
 262   0.0000       1.028898        27.9977 
 263   0.0000       1.034696        28.1555 
 264   0.0000       1.044993        28.4357 
 265   0.0000       1.061963        28.8975 
 266   0.0000       1.067163        29.0390 
 267   0.0000       1.069185        29.0940 
 268   0.0000       1.088151        29.6101 
 269   0.0000       1.090080        29.6626 
 270   0.0000       1.099630        29.9225 
 271   0.0000       1.102641        30.0044 
 272   0.0000       1.105943        30.0942 
 273   0.0000       1.108094        30.1528 
 274   0.0000       1.113727        30.3060 
 275   0.0000       1.118400        30.4332 
 276   0.0000       1.131256        30.7830 
 277   0.0000       1.145841        31.1799 
 278   0.0000       1.152569        31.3630 
 279   0.0000       1.157610        31.5002 
 280   0.0000       1.171319        31.8732 
 281   0.0000       1.176758        32.0212 
 282   0.0000       1.190986        32.4084 
 283   0.0000       1.203528        32.7497 
 284   0.0000       1.214171        33.0393 
 285   0.0000       1.232153        33.5286 
 286   0.0000       1.236730        33.6531 
 287   0.0000       1.243361        33.8336 
 288   0.0000       1.245928        33.9034 
 289   0.0000       1.255952        34.1762 
 290   0.0000       1.260850        34.3095 
 291   0.0000       1.269560        34.5465 
 292   0.0000       1.278643        34.7936 
 293   0.0000       1.290921        35.1277 
 294   0.0000       1.313326        35.7374 
 295   0.0000       1.338571        36.4244 
 296   0.0000       1.347583        36.6696 
 297   0.0000       1.351625        36.7796 
 298   0.0000       1.358814        36.9752 
 299   0.0000       1.362268        37.0692 
 300   0.0000       1.366958        37.1968 
 301   0.0000       1.369404        37.2634 
 302   0.0000       1.379955        37.5505 
 303   0.0000       1.382297        37.6142 
 304   0.0000       1.389278        37.8042 
 305   0.0000       1.392940        37.9038 
 306   0.0000       1.396845        38.0101 
 307   0.0000       1.403873        38.2013 
 308   0.0000       1.413129        38.4532 
 309   0.0000       1.424479        38.7620 
 310   0.0000       1.426551        38.8184 
 311   0.0000       1.429011        38.8854 
 312   0.0000       1.437869        39.1264 
 313   0.0000       1.441164        39.2161 
 314   0.0000       1.457982        39.6737 
 315   0.0000       1.460492        39.7420 
 316   0.0000       1.464905        39.8621 
 317   0.0000       1.471192        40.0332 
 318   0.0000       1.484672        40.4000 
 319   0.0000       1.493018        40.6271 
 320   0.0000       1.494401        40.6647 
 321   0.0000       1.510569        41.1047 
 322   0.0000       1.520134        41.3650 
 323   0.0000       1.521465        41.4012 
 324   0.0000       1.531963        41.6868 
 325   0.0000       1.542464        41.9726 
 326   0.0000       1.543924        42.0123 
 327   0.0000       1.547553        42.1111 
 328   0.0000       1.559988        42.4494 
 329   0.0000       1.563423        42.5429 
 330   0.0000       1.569224        42.7007 
 331   0.0000       1.574370        42.8408 
 332   0.0000       1.577229        42.9186 
 333   0.0000       1.579667        42.9849 
 334   0.0000       1.589042        43.2400 
 335   0.0000       1.596912        43.4542 
 336   0.0000       1.605518        43.6884 
 337   0.0000       1.607122        43.7320 
 338   0.0000       1.609314        43.7917 
 339   0.0000       1.615083        43.9486 
 340   0.0000       1.618532        44.0425 
 341   0.0000       1.620077        44.0845 
 342   0.0000       1.623665        44.1822 
 343   0.0000       1.626478        44.2587 
 344   0.0000       1.635573        44.5062 
 345   0.0000       1.645590        44.7788 
 346   0.0000       1.648297        44.8524 
 347   0.0000       1.659241        45.1502 
 348   0.0000       1.669047        45.4171 
 349   0.0000       1.683880        45.8207 
 350   0.0000       1.695615        46.1400 
 351   0.0000       1.708676        46.4954 
 352   0.0000       1.717324        46.7308 
 353   0.0000       1.737420        47.2776 
 354   0.0000       1.743526        47.4438 
 355   0.0000       1.756314        47.7917 
 356   0.0000       1.772694        48.2375 
 357   0.0000       1.777986        48.3815 
 358   0.0000       1.783756        48.5385 
 359   0.0000       1.787921        48.6518 
 360   0.0000       1.824059        49.6352 
 361   0.0000       1.835076        49.9350 
 362   0.0000       1.839606        50.0582 
 363   0.0000       1.859093        50.5885 
 364   0.0000       1.865301        50.7574 
 365   0.0000       1.866404        50.7874 
 366   0.0000       1.895759        51.5862 
 367   0.0000       1.903049        51.7846 
 368   0.0000       1.911893        52.0252 
 369   0.0000       1.918812        52.2135 
 370   0.0000       1.937535        52.7230 
 371   0.0000       1.941467        52.8300 
 372   0.0000       1.947240        52.9871 
 373   0.0000       1.951618        53.1062 
 374   0.0000       1.958574        53.2955 
 375   0.0000       1.968040        53.5531 
 376   0.0000       1.979470        53.8641 
 377   0.0000       1.994400        54.2704 
 378   0.0000       2.003281        54.5120 
 379   0.0000       2.007620        54.6301 
 380   0.0000       2.020099        54.9697 
 381   0.0000       2.028764        55.2055 
 382   0.0000       2.040974        55.5377 
 383   0.0000       2.043103        55.5956 
 384   0.0000       2.051446        55.8227 
 385   0.0000       2.068063        56.2748 
 386   0.0000       2.077494        56.5315 
 387   0.0000       2.090194        56.8771 
 388   0.0000       2.091978        56.9256 
 389   0.0000       2.099961        57.1428 
 390   0.0000       2.101784        57.1925 
 391   0.0000       2.111941        57.4688 
 392   0.0000       2.115202        57.5576 
 393   0.0000       2.143085        58.3163 
 394   0.0000       2.151895        58.5560 
 395   0.0000       2.172754        59.1236 
 396   0.0000       2.194290        59.7097 
 397   0.0000       2.196477        59.7692 
 398   0.0000       2.208439        60.0947 
 399   0.0000       2.231486        60.7218 
 400   0.0000       2.234978        60.8168 
 401   0.0000       2.245009        61.0898 
 402   0.0000       2.264694        61.6254 
 403   0.0000       2.268119        61.7186 
 404   0.0000       2.291607        62.3578 
 405   0.0000       2.293631        62.4129 
 406   0.0000       2.313927        62.9652 
 407   0.0000       2.331644        63.4473 
 408   0.0000       2.365221        64.3609 
 409   0.0000       2.375607        64.6436 
 410   0.0000       2.406229        65.4768 
 411   0.0000       2.409014        65.5526 
 412   0.0000       2.425064        65.9893 
 413   0.0000       2.434189        66.2377 
 414   0.0000       2.441598        66.4393 
 415   0.0000       2.461235        66.9736 
 416   0.0000       2.498446        67.9862 
 417   0.0000       2.510198        68.3060 
 418   0.0000       2.526167        68.7405 
 419   0.0000       2.549936        69.3873 
 420   0.0000       2.557617        69.5963 
 421   0.0000       2.577850        70.1469 
 422   0.0000       2.582031        70.2606 
 423   0.0000       2.605642        70.9031 
 424   0.0000       2.619028        71.2674 
 425   0.0000       2.625420        71.4413 
 426   0.0000       2.632387        71.6309 
 427   0.0000       2.639481        71.8239 
 428   0.0000       2.680903        72.9511 
 429   0.0000       2.682497        72.9945 
 430   0.0000       2.704496        73.5931 
 431   0.0000       2.713520        73.8386 
 432   0.0000       2.726936        74.2037 
 433   0.0000       2.733764        74.3895 
 434   0.0000       2.755851        74.9905 
 435   0.0000       2.767388        75.3045 
 436   0.0000       2.769124        75.3517 
 437   0.0000       2.778677        75.6116 
 438   0.0000       2.786923        75.8360 
 439   0.0000       2.802217        76.2522 
 440   0.0000       2.812736        76.5384 
 441   0.0000       2.832045        77.0639 
 442   0.0000       2.844782        77.4105 
 443   0.0000       2.866554        78.0029 
 444   0.0000       2.873487        78.1915 
 445   0.0000       2.879130        78.3451 
 446   0.0000       2.890363        78.6508 
 447   0.0000       2.893002        78.7226 
 448   0.0000       2.898481        78.8717 
 449   0.0000       2.903859        79.0180 
 450   0.0000       2.939421        79.9857 
 451   0.0000       2.953844        80.3782 
 452   0.0000       2.960023        80.5463 
 453   0.0000       2.963301        80.6355 
 454   0.0000       2.972726        80.8920 
 455   0.0000       2.974784        80.9480 
 456   0.0000       2.977454        81.0206 
 457   0.0000       3.005322        81.7790 
 458   0.0000       3.011772        81.9545 
 459   0.0000       3.014990        82.0420 
 460   0.0000       3.018816        82.1462 
 461   0.0000       3.022488        82.2461 
 462   0.0000       3.026417        82.3530 
 463   0.0000       3.045805        82.8806 
 464   0.0000       3.050870        83.0184 
 465   0.0000       3.054789        83.1250 
 466   0.0000       3.055475        83.1437 
 467   0.0000       3.073646        83.6382 
 468   0.0000       3.084504        83.9336 
 469   0.0000       3.104162        84.4685 
 470   0.0000       3.110664        84.6455 
 471   0.0000       3.120592        84.9156 
 472   0.0000       3.130151        85.1757 
 473   0.0000       3.141905        85.4956 
 474   0.0000       3.160382        85.9984 
 475   0.0000       3.172345        86.3239 
 476   0.0000       3.184211        86.6468 
 477   0.0000       3.184623        86.6580 
 478   0.0000       3.214687        87.4761 
 479   0.0000       3.218572        87.5818 
 480   0.0000       3.226648        87.8016 
 481   0.0000       3.237030        88.0841 
 482   0.0000       3.243689        88.2653 
 483   0.0000       3.246739        88.3483 
 484   0.0000       3.262501        88.7772 
 485   0.0000       3.272828        89.0582 
 486   0.0000       3.290477        89.5384 
 487   0.0000       3.303135        89.8829 
 488   0.0000       3.308153        90.0194 
 489   0.0000       3.325161        90.4822 
 490   0.0000       3.336870        90.8009 
 491   0.0000       3.356601        91.3377 
 492   0.0000       3.364351        91.5486 
 493   0.0000       3.368848        91.6710 
 494   0.0000       3.384722        92.1030 
 495   0.0000       3.388416        92.2035 
 496   0.0000       3.394805        92.3773 
 497   0.0000       3.397372        92.4472 
 498   0.0000       3.407151        92.7133 
 499   0.0000       3.408316        92.7450 
 500   0.0000       3.436415        93.5096 
 501   0.0000       3.440872        93.6309 
 502   0.0000       3.442185        93.6666 
 503   0.0000       3.448999        93.8520 
 504   0.0000       3.451344        93.9159 
 505   0.0000       3.465990        94.3144 
 506   0.0000       3.468527        94.3834 
 507   0.0000       3.474490        94.5457 
 508   0.0000       3.490005        94.9679 
 509   0.0000       3.499114        95.2157 
 510   0.0000       3.511142        95.5430 
 511   0.0000       3.518671        95.7479 
 512   0.0000       3.522291        95.8464 
 513   0.0000       3.531445        96.0955 
 514   0.0000       3.536220        96.2254 
 515   0.0000       3.546123        96.4949 
 516   0.0000       3.555688        96.7552 
 517   0.0000       3.565279        97.0162 
 518   0.0000       3.573847        97.2493 
 519   0.0000       3.581716        97.4634 
 520   0.0000       3.583448        97.5106 
 521   0.0000       3.590359        97.6986 
 522   0.0000       3.593058        97.7721 
 523   0.0000       3.598260        97.9136 
 524   0.0000       3.601016        97.9886 
 525   0.0000       3.604146        98.0738 
 526   0.0000       3.619946        98.5037 
 527   0.0000       3.620974        98.5317 
 528   0.0000       3.624689        98.6328 
 529   0.0000       3.637352        98.9774 
 530   0.0000       3.647559        99.2551 
 531   0.0000       3.649822        99.3167 
 532   0.0000       3.656204        99.4904 
 533   0.0000       3.657119        99.5153 
 534   0.0000       3.673312        99.9559 
 535   0.0000       3.686396       100.3119 
 536   0.0000       3.691532       100.4517 
 537   0.0000       3.700736       100.7021 
 538   0.0000       3.707442       100.8846 
 539   0.0000       3.714282       101.0707 
 540   0.0000       3.719710       101.2185 
 541   0.0000       3.720442       101.2384 
 542   0.0000       3.735251       101.6413 
 543   0.0000       3.738164       101.7206 
 544   0.0000       3.743293       101.8602 
 545   0.0000       3.753248       102.1311 
 546   0.0000       3.760560       102.3300 
 547   0.0000       3.763365       102.4064 
 548   0.0000       3.765061       102.4525 
 549   0.0000       3.780619       102.8759 
 550   0.0000       3.784219       102.9738 
 551   0.0000       3.791474       103.1713 
 552   0.0000       3.799218       103.3820 
 553   0.0000       3.810446       103.6875 
 554   0.0000       3.821390       103.9853 
 555   0.0000       3.828561       104.1804 
 556   0.0000       3.839875       104.4883 
 557   0.0000       3.868695       105.2725 
 558   0.0000       3.868992       105.2806 
 559   0.0000       3.872540       105.3772 
 560   0.0000       3.886503       105.7571 
 561   0.0000       3.898501       106.0836 
 562   0.0000       3.900999       106.1516 
 563   0.0000       3.909993       106.3963 
 564   0.0000       3.925095       106.8073 
 565   0.0000       3.929653       106.9313 
 566   0.0000       3.935778       107.0980 
 567   0.0000       3.955477       107.6340 
 568   0.0000       3.983088       108.3853 
 569   0.0000       3.985719       108.4569 
 570   0.0000       3.989588       108.5622 
 571   0.0000       3.995316       108.7181 
 572   0.0000       4.000107       108.8484 
 573   0.0000       4.021779       109.4382 
 574   0.0000       4.025606       109.5423 
 575   0.0000       4.026490       109.5664 
 576   0.0000       4.040488       109.9473 
 577   0.0000       4.049616       110.1957 
 578   0.0000       4.054256       110.3219 
 579   0.0000       4.063270       110.5672 
 580   0.0000       4.064667       110.6052 
 581   0.0000       4.074389       110.8698 
 582   0.0000       4.094288       111.4112 
 583   0.0000       4.099423       111.5510 
 584   0.0000       4.102956       111.6471 
 585   0.0000       4.110151       111.8429 
 586   0.0000       4.124494       112.2332 
 587   0.0000       4.126555       112.2893 
 588   0.0000       4.140441       112.6671 
 589   0.0000       4.142393       112.7203 
 590   0.0000       4.162562       113.2691 
 591   0.0000       4.164658       113.3261 
 592   0.0000       4.183428       113.8369 
 593   0.0000       4.185981       113.9063 
 594   0.0000       4.200134       114.2914 
 595   0.0000       4.208363       114.5154 
 596   0.0000       4.222343       114.8958 
 597   0.0000       4.230494       115.1176 
 598   0.0000       4.241333       115.4126 
 599   0.0000       4.254081       115.7594 
 600   0.0000       4.261834       115.9704 
 601   0.0000       4.296126       116.9035 
 602   0.0000       4.305006       117.1452 
 603   0.0000       4.325407       117.7003 
 604   0.0000       4.335959       117.9874 
 605   0.0000       4.344226       118.2124 
 606   0.0000       4.344422       118.2177 
 607   0.0000       4.350424       118.3811 
 608   0.0000       4.354024       118.4790 
 609   0.0000       4.355840       118.5284 
 610   0.0000       4.364606       118.7670 
 611   0.0000       4.368131       118.8629 
 612   0.0000       4.382075       119.2423 
 613   0.0000       4.385832       119.3446 
 614   0.0000       4.392609       119.5290 
 615   0.0000       4.396670       119.6395 
 616   0.0000       4.405203       119.8717 
 617   0.0000       4.414011       120.1113 
 618   0.0000       4.417801       120.2145 
 619   0.0000       4.422772       120.3497 
 620   0.0000       4.424965       120.4094 
 621   0.0000       4.431189       120.5788 
 622   0.0000       4.437939       120.7625 
 623   0.0000       4.453336       121.1814 
 624   0.0000       4.462382       121.4276 
 625   0.0000       4.463596       121.4606 
 626   0.0000       4.489396       122.1627 
 627   0.0000       4.493382       122.2711 
 628   0.0000       4.497866       122.3931 
 629   0.0000       4.518685       122.9597 
 630   0.0000       4.532257       123.3290 
 631   0.0000       4.545584       123.6916 
 632   0.0000       4.568762       124.3223 
 633   0.0000       4.572183       124.4154 
 634   0.0000       4.582820       124.7049 
 635   0.0000       4.590036       124.9012 
 636   0.0000       4.607296       125.3709 
 637   0.0000       4.617096       125.6376 
 638   0.0000       4.618178       125.6670 
 639   0.0000       4.635683       126.1434 
 640   0.0000       4.637438       126.1911 
 641   0.0000       4.646330       126.4331 
 642   0.0000       4.649242       126.5123 
 643   0.0000       4.675008       127.2134 
 644   0.0000       4.683871       127.4546 
 645   0.0000       4.692132       127.6794 
 646   0.0000       4.698019       127.8396 
 647   0.0000       4.715904       128.3263 
 648   0.0000       4.728720       128.6750 
 649   0.0000       4.747065       129.1742 
 650   0.0000       4.754529       129.3773 
 651   0.0000       4.782157       130.1291 
 652   0.0000       4.836780       131.6155 
 653   0.0000       4.844825       131.8344 
 654   0.0000       4.847739       131.9137 
 655   0.0000       4.863635       132.3462 
 656   0.0000       4.921973       133.9337 
 657   0.0000       4.953829       134.8005 
 658   0.0000       4.963068       135.0520 
 659   0.0000       4.965595       135.1207 
 660   0.0000       4.979977       135.5121 
 661   0.0000       4.984415       135.6328 
 662   0.0000       4.995370       135.9309 
 663   0.0000       5.029301       136.8542 
 664   0.0000       5.031221       136.9065 
 665   0.0000       5.043739       137.2471 
 666   0.0000       5.056261       137.5879 
 667   0.0000       5.089161       138.4831 
 668   0.0000       5.095617       138.6588 
 669   0.0000       5.104336       138.8960 
 670   0.0000       5.134454       139.7156 
 671   0.0000       5.150319       140.1473 
 672   0.0000       5.151495       140.1793 
 673   0.0000       5.183836       141.0593 
 674   0.0000       5.203299       141.5890 
 675   0.0000       5.209059       141.7457 
 676   0.0000       5.222655       142.1157 
 677   0.0000       5.244882       142.7205 
 678   0.0000       5.260257       143.1389 
 679   0.0000       5.313802       144.5959 
 680   0.0000       5.368303       146.0789 
 681   0.0000       5.370275       146.1326 
 682   0.0000       5.393503       146.7647 
 683   0.0000       5.395142       146.8093 
 684   0.0000       5.407175       147.1367 
 685   0.0000       5.423572       147.5829 
 686   0.0000       5.427832       147.6988 
 687   0.0000       5.432705       147.8314 
 688   0.0000       5.434132       147.8702 
 689   0.0000       5.451217       148.3352 
 690   0.0000       5.457574       148.5081 
 691   0.0000       5.473865       148.9514 
 692   0.0000       5.487448       149.3211 
 693   0.0000       5.500052       149.6640 
 694   0.0000       5.521355       150.2437 
 695   0.0000       5.525454       150.3552 
 696   0.0000       5.532227       150.5395 
 697   0.0000       5.546183       150.9193 
 698   0.0000       5.553006       151.1050 
 699   0.0000       5.577633       151.7751 
 700   0.0000       5.590381       152.1220 
 701   0.0000       5.599078       152.3587 
 702   0.0000       5.659178       153.9941 
 703   0.0000       5.703290       155.1944 
 704   0.0000       5.705387       155.2515 
 705   0.0000       5.748519       156.4252 
 706   0.0000       5.857079       159.3792 
 707   0.0000       5.861517       159.5000 
 708   0.0000       5.862295       159.5212 
 709   0.0000       5.879574       159.9913 
 710   0.0000       5.929621       161.3532 
 711   0.0000       5.943042       161.7184 
 712   0.0000       5.963322       162.2702 
 713   0.0000       6.066974       165.0908 
 714   0.0000       6.090925       165.7425 
 715   0.0000       6.093895       165.8233 
 716   0.0000       6.099326       165.9711 
 717   0.0000       6.119518       166.5205 
 718   0.0000       6.124352       166.6521 
 719   0.0000       6.153435       167.4435 
 720   0.0000       6.174512       168.0170 
 721   0.0000       6.178689       168.1307 
 722   0.0000       6.664790       181.3581 
 723   0.0000       6.670160       181.5043 
 724   0.0000      23.396595       636.6537 
 725   0.0000      23.495627       639.3485 
 726   0.0000      23.509563       639.7277 
 727   0.0000      23.536337       640.4563 
 728   0.0000      23.589542       641.9041 
 729   0.0000      23.623037       642.8155 
 730   0.0000      23.773011       646.8965 
 731   0.0000      23.841541       648.7613 
 732   0.0000      23.929236       651.1476 
 733   0.0000      23.937312       651.3674 
 734   0.0000      23.970842       652.2798 
 735   0.0000      23.976156       652.4244 
 736   0.0000      25.930775       705.6123 
 737   0.0000      86.232924      2346.5172 

                    ********************************
                    * MULLIKEN POPULATION ANALYSIS *
                    ********************************

-----------------------
MULLIKEN ATOMIC CHARGES
-----------------------
   0 Mo:   -1.142687
   1 C :    0.423362
   2 C :   -0.236528
   3 C :   -0.093865
   4 C :    0.467545
   5 C :   -0.330516
   6 H :   -0.065213
   7 H :    0.108512
   8 H :    0.057702
   9 H :    0.014826
  10 H :    0.157134
  11 C :   -0.333266
  12 C :    0.397043
  13 C :   -0.113217
  14 C :    0.471425
  15 H :   -0.060412
  16 H :    0.110569
  17 C :   -0.212456
  18 H :    0.005873
  19 H :    0.162917
  20 C :    0.089463
  21 H :    0.012658
  22 H :   -0.015065
  23 C :    0.063427
  24 H :   -0.022990
  25 H :    0.014527
  26 H :    0.069234
Sum of atomic charges:   -0.0000000

--------------------------------
MULLIKEN REDUCED ORBITAL CHARGES
--------------------------------
  0 Mos       :     2.598408  s :     2.598408
      pz      :     2.238596  p :     7.755140
      px      :     2.861411
      py      :     2.655133
      dz2     :     1.543156  d :     4.675549
      dxz     :     0.594141
      dyz     :     1.183571
      dx2y2   :     0.672693
      dxy     :     0.681988
      f0      :     0.014248  f :     0.106295
      f+1     :     0.007326
      f-1     :     0.008684
      f+2     :     0.017053
      f-2     :     0.013186
      f+3     :     0.026930
      f-3     :     0.018868
      g0      :     0.000887  g :     0.007294
      g+1     :     0.001050
      g-1     :     0.000771
      g+2     :     0.000673
      g-2     :     0.000334
      g+3     :     0.000820
      g-3     :     0.000577
      g+4     :     0.001527
      g-4     :     0.000656
  1 C s       :     3.032123  s :     3.032123
      pz      :     0.787013  p :     2.592676
      px      :     0.916618
      py      :     0.889046
      dz2     :    -0.042118  d :    -0.056167
      dxz     :    -0.080904
      dyz     :     0.018632
      dx2y2   :     0.004179
      dxy     :     0.044045
      f0      :     0.001362  f :     0.008005
      f+1     :     0.000848
      f-1     :     0.001661
      f+2     :     0.001281
      f-2     :     0.001170
      f+3     :     0.000745
      f-3     :     0.000939
  2 C s       :     3.150348  s :     3.150348
      pz      :     0.891665  p :     2.965250
      px      :     1.186970
      py      :     0.886614
      dz2     :     0.017815  d :     0.113068
      dxz     :     0.023192
      dyz     :     0.033333
      dx2y2   :     0.015767
      dxy     :     0.022961
      f0      :     0.000957  f :     0.007863
      f+1     :     0.001292
      f-1     :     0.002098
      f+2     :     0.000907
      f-2     :     0.000653
      f+3     :     0.000805
      f-3     :     0.001151
  3 C s       :     3.244374  s :     3.244374
      pz      :     0.819863  p :     2.811018
      px      :     1.114695
      py      :     0.876460
      dz2     :    -0.024510  d :     0.030563
      dxz     :    -0.050528
      dyz     :     0.052060
      dx2y2   :     0.025942
      dxy     :     0.027599
      f0      :     0.001229  f :     0.007910
      f+1     :     0.001438
      f-1     :     0.001803
      f+2     :     0.000758
      f-2     :     0.000624
      f+3     :     0.000691
      f-3     :     0.001366
  4 C s       :     2.897466  s :     2.897466
      pz      :     0.877960  p :     2.609797
      px      :     0.875359
      py      :     0.856478
      dz2     :    -0.004591  d :     0.017212
      dxz     :    -0.010930
      dyz     :     0.002593
      dx2y2   :    -0.008492
      dxy     :     0.038631
      f0      :     0.001665  f :     0.007980
      f+1     :     0.001045
      f-1     :     0.001278
      f+2     :     0.001198
      f-2     :     0.000925
      f+3     :     0.000809
      f-3     :     0.001060
  5 C s       :     3.138590  s :     3.138590
      pz      :     0.962961  p :     3.047087
      px      :     0.938998
      py      :     1.145128
      dz2     :     0.025531  d :     0.136839
      dxz     :     0.054257
      dyz     :    -0.026946
      dx2y2   :     0.040179
      dxy     :     0.043818
      f0      :     0.001557  f :     0.007999
      f+1     :     0.000921
      f-1     :     0.001224
      f+2     :     0.001007
      f-2     :     0.001594
      f+3     :     0.000937
      f-3     :     0.000758
  6 H s       :     1.002079  s :     1.002079
      pz      :     0.024504  p :     0.061094
      px      :     0.032543
      py      :     0.004047
      dz2     :     0.000317  d :     0.002041
      dxz     :     0.000822
      dyz     :     0.000806
      dx2y2   :     0.000035
      dxy     :     0.000061
  7 H s       :     0.848393  s :     0.848393
      pz      :     0.010598  p :     0.040961
      px      :     0.025861
      py      :     0.004502
      dz2     :     0.000509  d :     0.002135
      dxz     :     0.000265
      dyz     :     0.000356
      dx2y2   :     0.000418
      dxy     :     0.000586
  8 H s       :     0.884183  s :     0.884183
      pz      :     0.011268  p :     0.056027
      px      :     0.043068
      py      :     0.001691
      dz2     :     0.000704  d :     0.002088
      dxz     :     0.000401
      dyz     :     0.000177
      dx2y2   :     0.000383
      dxy     :     0.000423
  9 H s       :     0.941589  s :     0.941589
      pz      :     0.017951  p :     0.041543
      px      :     0.015306
      py      :     0.008287
      dz2     :     0.000510  d :     0.002042
      dxz     :     0.000652
      dyz     :     0.000566
      dx2y2   :     0.000133
      dxy     :     0.000182
 10 H s       :     0.797854  s :     0.797854
      pz      :     0.006460  p :     0.042902
      px      :     0.005425
      py      :     0.031018
      dz2     :     0.000093  d :     0.002110
      dxz     :     0.000127
      dyz     :     0.000794
      dx2y2   :     0.000537
      dxy     :     0.000559
 11 C s       :     3.136418  s :     3.136418
      pz      :     0.966185  p :     3.051054
      px      :     0.938349
      py      :     1.146520
      dz2     :     0.024729  d :     0.137789
      dxz     :     0.051800
      dyz     :    -0.024072
      dx2y2   :     0.040575
      dxy     :     0.044756
      f0      :     0.001587  f :     0.008006
      f+1     :     0.000905
      f-1     :     0.001180
      f+2     :     0.001028
      f-2     :     0.001619
      f+3     :     0.000936
      f-3     :     0.000750
 12 C s       :     3.049485  s :     3.049485
      pz      :     0.789494  p :     2.598961
      px      :     0.916801
      py      :     0.892666
      dz2     :    -0.041962  d :    -0.053504
      dxz     :    -0.076601
      dyz     :     0.016316
      dx2y2   :     0.002882
      dxy     :     0.045861
      f0      :     0.001407  f :     0.008015
      f+1     :     0.000884
      f-1     :     0.001594
      f+2     :     0.001278
      f-2     :     0.001143
      f+3     :     0.000744
      f-3     :     0.000965
 13 C s       :     3.237424  s :     3.237424
      pz      :     0.826553  p :     2.826943
      px      :     1.125131
      py      :     0.875259
      dz2     :    -0.020769  d :     0.040944
      dxz     :    -0.044058
      dyz     :     0.053595
      dx2y2   :     0.027614
      dxy     :     0.024562
      f0      :     0.001162  f :     0.007906
      f+1     :     0.001430
      f-1     :     0.001894
      f+2     :     0.000754
      f-2     :     0.000613
      f+3     :     0.000709
      f-3     :     0.001345
 14 C s       :     2.898229  s :     2.898229
      pz      :     0.876862  p :     2.612750
      px      :     0.873595
      py      :     0.862293
      dz2     :    -0.006119  d :     0.009618
      dxz     :    -0.016671
      dyz     :     0.000705
      dx2y2   :    -0.008695
      dxy     :     0.040398
      f0      :     0.001630  f :     0.007978
      f+1     :     0.001004
      f-1     :     0.001328
      f+2     :     0.001223
      f-2     :     0.000959
      f+3     :     0.000793
      f-3     :     0.001041
 15 H s       :     0.997610  s :     0.997610
      pz      :     0.024334  p :     0.060761
      px      :     0.032063
      py      :     0.004365
      dz2     :     0.000340  d :     0.002041
      dxz     :     0.000801
      dyz     :     0.000779
      dx2y2   :     0.000045
      dxy     :     0.000075
 16 H s       :     0.846526  s :     0.846526
      pz      :     0.011026  p :     0.040776
      px      :     0.025250
      py      :     0.004500
      dz2     :     0.000549  d :     0.002129
      dxz     :     0.000285
      dyz     :     0.000315
      dx2y2   :     0.000416
      dxy     :     0.000563
 17 C s       :     3.148956  s :     3.148956
      pz      :     0.883580  p :     2.945620
      px      :     1.174506
      py      :     0.887534
      dz2     :     0.014371  d :     0.110017
      dxz     :     0.016778
      dyz     :     0.042537
      dx2y2   :     0.014517
      dxy     :     0.021813
      f0      :     0.000953  f :     0.007864
      f+1     :     0.001339
      f-1     :     0.002103
      f+2     :     0.000858
      f-2     :     0.000626
      f+3     :     0.000790
      f-3     :     0.001194
 18 H s       :     0.948380  s :     0.948380
      pz      :     0.018218  p :     0.043706
      px      :     0.016960
      py      :     0.008527
      dz2     :     0.000476  d :     0.002041
      dxz     :     0.000683
      dyz     :     0.000606
      dx2y2   :     0.000114
      dxy     :     0.000161
 19 H s       :     0.793156  s :     0.793156
      pz      :     0.006636  p :     0.041817
      px      :     0.003912
      py      :     0.031268
      dz2     :     0.000077  d :     0.002110
      dxz     :     0.000126
      dyz     :     0.000808
      dx2y2   :     0.000541
      dxy     :     0.000559
 20 C s       :     3.043139  s :     3.043139
      pz      :     0.844279  p :     2.901402
      px      :     0.990394
      py      :     1.066729
      dz2     :    -0.027523  d :    -0.038742
      dxz     :    -0.036671
      dyz     :    -0.002880
      dx2y2   :     0.029955
      dxy     :    -0.001624
      f0      :     0.000902  f :     0.004738
      f+1     :     0.001012
      f-1     :     0.001449
      f+2     :     0.000395
      f-2     :     0.000367
      f+3     :     0.000260
      f-3     :     0.000355
 21 H s       :     0.941165  s :     0.941165
      pz      :     0.014435  p :     0.044025
      px      :     0.006043
      py      :     0.023547
      dz2     :     0.000423  d :     0.002152
      dxz     :     0.000434
      dyz     :     0.000235
      dx2y2   :     0.000400
      dxy     :     0.000660
 22 H s       :     0.952756  s :     0.952756
      pz      :     0.017791  p :     0.060158
      px      :     0.003984
      py      :     0.038383
      dz2     :     0.000577  d :     0.002151
      dxz     :     0.000291
      dyz     :     0.000325
      dx2y2   :     0.000419
      dxy     :     0.000539
 23 C s       :     3.061450  s :     3.061450
      pz      :     0.846862  p :     2.908377
      px      :     0.988531
      py      :     1.072983
      dz2     :    -0.027871  d :    -0.037995
      dxz     :    -0.035084
      dyz     :    -0.003932
      dx2y2   :     0.029415
      dxy     :    -0.000523
      f0      :     0.000904  f :     0.004741
      f+1     :     0.001014
      f-1     :     0.001448
      f+2     :     0.000395
      f-2     :     0.000367
      f+3     :     0.000257
      f-3     :     0.000358
 24 H s       :     0.956337  s :     0.956337
      pz      :     0.017397  p :     0.064496
      px      :     0.005142
      py      :     0.041958
      dz2     :     0.000578  d :     0.002157
      dxz     :     0.000293
      dyz     :     0.000326
      dx2y2   :     0.000416
      dxy     :     0.000543
 25 H s       :     0.939375  s :     0.939375
      pz      :     0.014692  p :     0.043951
      px      :     0.004877
      py      :     0.024383
      dz2     :     0.000424  d :     0.002147
      dxz     :     0.000433
      dyz     :     0.000234
      dx2y2   :     0.000400
      dxy     :     0.000655
 26 H s       :     0.875981  s :     0.875981
      pz      :     0.010498  p :     0.052691
      px      :     0.040293
      py      :     0.001900
      dz2     :     0.000689  d :     0.002094
      dxz     :     0.000377
      dyz     :     0.000186
      dx2y2   :     0.000398
      dxy     :     0.000444


                     *******************************
                     * LOEWDIN POPULATION ANALYSIS *
                     *******************************

----------------------
LOEWDIN ATOMIC CHARGES
----------------------
   0 Mo:    1.063949
   1 C :   -0.064891
   2 C :   -0.081836
   3 C :   -0.071945
   4 C :   -0.060172
   5 C :   -0.091203
   6 H :   -0.000235
   7 H :    0.002375
   8 H :    0.002369
   9 H :    0.004492
  10 H :   -0.003959
  11 C :   -0.091563
  12 C :   -0.065294
  13 C :   -0.073076
  14 C :   -0.060285
  15 H :    0.000193
  16 H :    0.002342
  17 C :   -0.079581
  18 H :    0.003787
  19 H :   -0.004149
  20 C :   -0.034729
  21 H :   -0.065276
  22 H :   -0.065676
  23 C :   -0.035813
  24 H :   -0.066006
  25 H :   -0.065896
  26 H :    0.002075

-------------------------------
LOEWDIN REDUCED ORBITAL CHARGES
-------------------------------
  0 Mos       :     1.775799  s :     1.775799
      pz      :     2.098800  p :     6.320699
      px      :     2.095034
      py      :     2.126865
      dz2     :     1.460633  d :     4.580514
      dxz     :     0.624122
      dyz     :     1.135171
      dx2y2   :     0.691878
      dxy     :     0.668710
      f0      :     0.035207  f :     0.239347
      f+1     :     0.016029
      f-1     :     0.019379
      f+2     :     0.039580
      f-2     :     0.027899
      f+3     :     0.056299
      f-3     :     0.044955
      g0      :     0.001371  g :     0.019691
      g+1     :     0.002536
      g-1     :     0.001442
      g+2     :     0.001779
      g-2     :     0.000824
      g+3     :     0.002465
      g-3     :     0.002275
      g+4     :     0.004960
      g-4     :     0.002039
  1 C s       :     2.636629  s :     2.636629
      pz      :     0.927171  p :     2.612307
      px      :     0.795379
      py      :     0.889758
      dz2     :     0.201500  d :     0.767105
      dxz     :     0.102449
      dyz     :     0.179231
      dx2y2   :     0.139477
      dxy     :     0.144447
      f0      :     0.007429  f :     0.048850
      f+1     :     0.004348
      f-1     :     0.011808
      f+2     :     0.008757
      f-2     :     0.008472
      f+3     :     0.004077
      f-3     :     0.003957
  2 C s       :     2.632123  s :     2.632123
      pz      :     0.914337  p :     2.591099
      px      :     0.766612
      py      :     0.910150
      dz2     :     0.183875  d :     0.810434
      dxz     :     0.164293
      dyz     :     0.226262
      dx2y2   :     0.118970
      dxy     :     0.117035
      f0      :     0.007456  f :     0.048180
      f+1     :     0.007566
      f-1     :     0.014025
      f+2     :     0.005242
      f-2     :     0.004085
      f+3     :     0.004669
      f-3     :     0.005136
  3 C s       :     2.634356  s :     2.634356
      pz      :     0.919040  p :     2.587901
      px      :     0.761252
      py      :     0.907609
      dz2     :     0.165380  d :     0.801192
      dxz     :     0.150385
      dyz     :     0.237821
      dx2y2   :     0.123681
      dxy     :     0.123925
      f0      :     0.009549  f :     0.048495
      f+1     :     0.008600
      f-1     :     0.011883
      f+2     :     0.004080
      f-2     :     0.003222
      f+3     :     0.004718
      f-3     :     0.006442
  4 C s       :     2.636837  s :     2.636837
      pz      :     0.922734  p :     2.604246
      px      :     0.785925
      py      :     0.895586
      dz2     :     0.178165  d :     0.770318
      dxz     :     0.110970
      dyz     :     0.213974
      dx2y2   :     0.128396
      dxy     :     0.138812
      f0      :     0.010885  f :     0.048771
      f+1     :     0.006108
      f-1     :     0.008627
      f+2     :     0.007391
      f-2     :     0.006209
      f+3     :     0.004695
      f-3     :     0.004856
  5 C s       :     2.632362  s :     2.632362
      pz      :     0.909551  p :     2.601103
      px      :     0.798364
      py      :     0.893189
      dz2     :     0.231487  d :     0.809496
      dxz     :     0.161484
      dyz     :     0.178755
      dx2y2   :     0.123185
      dxy     :     0.114585
      f0      :     0.010055  f :     0.048242
      f+1     :     0.004329
      f-1     :     0.009069
      f+2     :     0.007934
      f-2     :     0.010451
      f+3     :     0.003620
      f-3     :     0.002784
  6 H s       :     0.710136  s :     0.710136
      pz      :     0.116917  p :     0.260754
      px      :     0.080417
      py      :     0.063420
      dz2     :     0.011308  d :     0.029345
      dxz     :     0.008658
      dyz     :     0.008605
      dx2y2   :     0.000311
      dxy     :     0.000462
  7 H s       :     0.694957  s :     0.694957
      pz      :     0.074277  p :     0.272885
      px      :     0.086350
      py      :     0.112257
      dz2     :     0.005010  d :     0.029783
      dxz     :     0.002949
      dyz     :     0.008048
      dx2y2   :     0.006947
      dxy     :     0.006829
  8 H s       :     0.698498  s :     0.698498
      pz      :     0.087247  p :     0.269627
      px      :     0.082043
      py      :     0.100337
      dz2     :     0.007000  d :     0.029505
      dxz     :     0.004649
      dyz     :     0.008175
      dx2y2   :     0.004911
      dxy     :     0.004770
  9 H s       :     0.708076  s :     0.708076
      pz      :     0.109181  p :     0.258225
      px      :     0.078402
      py      :     0.070642
      dz2     :     0.010147  d :     0.029207
      dxz     :     0.007394
      dyz     :     0.008597
      dx2y2   :     0.001392
      dxy     :     0.001677
 10 H s       :     0.698443  s :     0.698443
      pz      :     0.063116  p :     0.275460
      px      :     0.098872
      py      :     0.113472
      dz2     :     0.003105  d :     0.030056
      dxz     :     0.001070
      dyz     :     0.007890
      dx2y2   :     0.008789
      dxy     :     0.009203
 11 C s       :     2.632318  s :     2.632318
      pz      :     0.909303  p :     2.601330
      px      :     0.799265
      py      :     0.892762
      dz2     :     0.233018  d :     0.809659
      dxz     :     0.162052
      dyz     :     0.176672
      dx2y2   :     0.123363
      dxy     :     0.114555
      f0      :     0.010222  f :     0.048256
      f+1     :     0.004204
      f-1     :     0.008786
      f+2     :     0.008114
      f-2     :     0.010653
      f+3     :     0.003582
      f-3     :     0.002695
 12 C s       :     2.636617  s :     2.636617
      pz      :     0.926335  p :     2.611546
      px      :     0.794808
      py      :     0.890403
      dz2     :     0.198989  d :     0.768240
      dxz     :     0.103368
      dyz     :     0.183179
      dx2y2   :     0.138579
      dxy     :     0.144124
      f0      :     0.007917  f :     0.048890
      f+1     :     0.004606
      f-1     :     0.011286
      f+2     :     0.008607
      f-2     :     0.008217
      f+3     :     0.004139
      f-3     :     0.004118
 13 C s       :     2.634058  s :     2.634058
      pz      :     0.918731  p :     2.587380
      px      :     0.761085
      py      :     0.907563
      dz2     :     0.167130  d :     0.803165
      dxz     :     0.153486
      dyz     :     0.237039
      dx2y2   :     0.122305
      dxy     :     0.123205
      f0      :     0.009081  f :     0.048474
      f+1     :     0.008569
      f-1     :     0.012485
      f+2     :     0.004066
      f-2     :     0.003203
      f+3     :     0.004760
      f-3     :     0.006309
 14 C s       :     2.636818  s :     2.636818
      pz      :     0.923519  p :     2.605667
      px      :     0.787831
      py      :     0.894316
      dz2     :     0.181701  d :     0.769042
      dxz     :     0.109157
      dyz     :     0.208253
      dx2y2   :     0.129934
      dxy     :     0.139997
      f0      :     0.010419  f :     0.048759
      f+1     :     0.005797
      f-1     :     0.009025
      f+2     :     0.007675
      f-2     :     0.006557
      f+3     :     0.004591
      f-3     :     0.004694
 15 H s       :     0.709927  s :     0.709927
      pz      :     0.116083  p :     0.260549
      px      :     0.080198
      py      :     0.064268
      dz2     :     0.011180  d :     0.029331
      dxz     :     0.008522
      dyz     :     0.008614
      dx2y2   :     0.000419
      dxy     :     0.000596
 16 H s       :     0.695683  s :     0.695683
      pz      :     0.075799  p :     0.272232
      px      :     0.085818
      py      :     0.110615
      dz2     :     0.005279  d :     0.029742
      dxz     :     0.003200
      dyz     :     0.008068
      dx2y2   :     0.006665
      dxy     :     0.006530
 17 C s       :     2.632443  s :     2.632443
      pz      :     0.914792  p :     2.591097
      px      :     0.766945
      py      :     0.909360
      dz2     :     0.179607  d :     0.807845
      dxz     :     0.162859
      dyz     :     0.228947
      dx2y2   :     0.118996
      dxy     :     0.117436
      f0      :     0.007536  f :     0.048196
      f+1     :     0.007860
      f-1     :     0.014016
      f+2     :     0.004864
      f-2     :     0.003794
      f+3     :     0.004713
      f-3     :     0.005412
 18 H s       :     0.708454  s :     0.708454
      pz      :     0.110689  p :     0.258531
      px      :     0.078490
      py      :     0.069352
      dz2     :     0.010366  d :     0.029228
      dxz     :     0.007614
      dyz     :     0.008611
      dx2y2   :     0.001182
      dxy     :     0.001454
 19 H s       :     0.698399  s :     0.698399
      pz      :     0.062784  p :     0.275676
      px      :     0.099164
      py      :     0.113728
      dz2     :     0.003049  d :     0.030074
      dxz     :     0.001027
      dyz     :     0.007866
      dx2y2   :     0.008858
      dxy     :     0.009274
 20 C s       :     2.665427  s :     2.665427
      pz      :     0.941879  p :     2.700588
      px      :     0.926253
      py      :     0.832455
      dz2     :     0.148775  d :     0.636910
      dxz     :     0.190808
      dyz     :     0.143267
      dx2y2   :     0.075326
      dxy     :     0.078734
      f0      :     0.006829  f :     0.031805
      f+1     :     0.006746
      f-1     :     0.009096
      f+2     :     0.003002
      f-2     :     0.002740
      f+3     :     0.000858
      f-3     :     0.002533
 21 H s       :     0.709183  s :     0.709183
      pz      :     0.082446  p :     0.325364
      px      :     0.134721
      py      :     0.108197
      dz2     :     0.005214  d :     0.030728
      dxz     :     0.008180
      dyz     :     0.002333
      dx2y2   :     0.007186
      dxy     :     0.007815
 22 H s       :     0.712933  s :     0.712933
      pz      :     0.086829  p :     0.322166
      px      :     0.130311
      py      :     0.105026
      dz2     :     0.006394  d :     0.030577
      dxz     :     0.007705
      dyz     :     0.003485
      dx2y2   :     0.006348
      dxy     :     0.006644
 23 C s       :     2.665245  s :     2.665245
      pz      :     0.941662  p :     2.701201
      px      :     0.926303
      py      :     0.833236
      dz2     :     0.149383  d :     0.637535
      dxz     :     0.190275
      dyz     :     0.142879
      dx2y2   :     0.076117
      dxy     :     0.078881
      f0      :     0.006834  f :     0.031833
      f+1     :     0.006752
      f-1     :     0.009088
      f+2     :     0.003013
      f-2     :     0.002746
      f+3     :     0.000848
      f-3     :     0.002551
 24 H s       :     0.712578  s :     0.712578
      pz      :     0.086935  p :     0.322823
      px      :     0.131002
      py      :     0.104886
      dz2     :     0.006400  d :     0.030605
      dxz     :     0.007715
      dyz     :     0.003484
      dx2y2   :     0.006345
      dxy     :     0.006662
 25 H s       :     0.709372  s :     0.709372
      pz      :     0.082221  p :     0.325775
      px      :     0.135337
      py      :     0.108217
      dz2     :     0.005219  d :     0.030748
      dxz     :     0.008163
      dyz     :     0.002352
      dx2y2   :     0.007198
      dxy     :     0.007816
 26 H s       :     0.698056  s :     0.698056
      pz      :     0.085133  p :     0.270324
      px      :     0.082744
      py      :     0.102446
      dz2     :     0.006692  d :     0.029544
      dxz     :     0.004418
      dyz     :     0.008123
      dx2y2   :     0.005222
      dxy     :     0.005090


                      *****************************
                      * MAYER POPULATION ANALYSIS *
                      *****************************

  NA   - Mulliken gross atomic population
  ZA   - Total nuclear charge
  QA   - Mulliken gross atomic charge
  VA   - Mayer's total valence
  BVA  - Mayer's bonded valence
  FA   - Mayer's free valence

  ATOM       NA         ZA         QA         VA         BVA        FA
  0 Mo    15.1427    14.0000    -1.1427     7.2054     7.2054     0.0000
  1 C      5.5766     6.0000     0.4234     3.2237     3.2237     0.0000
  2 C      6.2365     6.0000    -0.2365     3.8831     3.8831     0.0000
  3 C      6.0939     6.0000    -0.0939     3.7267     3.7267    -0.0000
  4 C      5.5325     6.0000     0.4675     3.2872     3.2872    -0.0000
  5 C      6.3305     6.0000    -0.3305     4.0323     4.0323    -0.0000
  6 H      1.0652     1.0000    -0.0652     1.0835     1.0835     0.0000
  7 H      0.8915     1.0000     0.1085     0.9214     0.9214     0.0000
  8 H      0.9423     1.0000     0.0577     0.9913     0.9913    -0.0000
  9 H      0.9852     1.0000     0.0148     1.0062     1.0062    -0.0000
 10 H      0.8429     1.0000     0.1571     0.9079     0.9079     0.0000
 11 C      6.3333     6.0000    -0.3333     4.0342     4.0342     0.0000
 12 C      5.6030     6.0000     0.3970     3.2646     3.2646     0.0000
 13 C      6.1132     6.0000    -0.1132     3.7554     3.7554    -0.0000
 14 C      5.5286     6.0000     0.4714     3.2767     3.2767     0.0000
 15 H      1.0604     1.0000    -0.0604     1.0809     1.0809     0.0000
 16 H      0.8894     1.0000     0.1106     0.9170     0.9170     0.0000
 17 C      6.2125     6.0000    -0.2125     3.8843     3.8843     0.0000
 18 H      0.9941     1.0000     0.0059     1.0140     1.0140     0.0000
 19 H      0.8371     1.0000     0.1629     0.9013     0.9013     0.0000
 20 C      5.9105     6.0000     0.0895     3.6609     3.6609    -0.0000
 21 H      0.9873     1.0000     0.0127     1.0655     1.0655    -0.0000
 22 H      1.0151     1.0000    -0.0151     1.0732     1.0732    -0.0000
 23 C      5.9366     6.0000     0.0634     3.6964     3.6964    -0.0000
 24 H      1.0230     1.0000    -0.0230     1.0857     1.0857    -0.0000
 25 H      0.9855     1.0000     0.0145     1.0633     1.0633    -0.0000
 26 H      0.9308     1.0000     0.0692     0.9733     0.9733    -0.0000

  Mayer bond orders larger than 0.100000
B(  0-Mo,  2-C ) :   0.8684 B(  0-Mo,  3-C ) :   0.5301 B(  0-Mo,  5-C ) :   0.9656 
B(  0-Mo, 11-C ) :   0.9761 B(  0-Mo, 13-C ) :   0.5722 B(  0-Mo, 17-C ) :   0.8323 
B(  0-Mo, 20-C ) :   0.7139 B(  0-Mo, 23-C ) :   0.7294 B(  1-C ,  2-C ) :   1.0853 
B(  1-C ,  3-C ) :  -0.1550 B(  1-C ,  5-C ) :   1.0464 B(  1-C ,  6-H ) :   1.0055 
B(  1-C , 11-C ) :  -0.1383 B(  1-C , 12-C ) :   0.2291 B(  1-C , 14-C ) :   0.2137 
B(  1-C , 17-C ) :  -0.2354 B(  2-C ,  3-C ) :   1.1410 B(  2-C ,  4-C ) :  -0.1141 
B(  2-C ,  7-H ) :   0.9325 B(  2-C , 11-C ) :   0.1165 B(  2-C , 12-C ) :  -0.2495 
B(  2-C , 17-C ) :   0.1436 B(  2-C , 20-C ) :  -0.1057 B(  2-C , 23-C ) :   0.1339 
B(  3-C ,  4-C ) :   1.1307 B(  3-C ,  8-H ) :   0.9453 B(  3-C , 12-C ) :   0.1032 
B(  3-C , 20-C ) :   0.1376 B(  3-C , 23-C ) :  -0.1186 B(  4-C ,  5-C ) :   1.0963 
B(  4-C ,  9-H ) :   0.9316 B(  4-C , 11-C ) :  -0.1217 B(  4-C , 12-C ) :   0.1956 
B(  4-C , 14-C ) :   0.1511 B(  5-C , 10-H ) :   0.9189 B(  5-C , 11-C ) :   0.3429 
B(  5-C , 12-C ) :  -0.1340 B(  5-C , 14-C ) :  -0.1230 B(  5-C , 17-C ) :   0.1093 
B( 11-C , 12-C ) :   1.0572 B( 11-C , 14-C ) :   1.0957 B( 11-C , 19-H ) :   0.9152 
B( 12-C , 13-C ) :  -0.1636 B( 12-C , 15-H ) :   1.0024 B( 12-C , 17-C ) :   1.1031 
B( 13-C , 14-C ) :   1.1239 B( 13-C , 17-C ) :   1.1483 B( 13-C , 20-C ) :  -0.1205 
B( 13-C , 23-C ) :   0.1468 B( 13-C , 26-H ) :   0.9444 B( 14-C , 17-C ) :  -0.1095 
B( 14-C , 18-H ) :   0.9383 B( 16-H , 17-C ) :   0.9268 B( 17-C , 20-C ) :   0.1362 
B( 17-C , 23-C ) :  -0.1014 B( 20-C , 21-H ) :   1.0542 B( 20-C , 22-H ) :   1.0697 
B( 20-C , 23-C ) :   0.8216 B( 23-C , 24-H ) :   1.0780 B( 23-C , 25-H ) :   1.0525 


-------
TIMINGS
-------

Total SCF time: 0 days 0 hours 12 min 17 sec 

Total time                  ....     737.547 sec
Sum of individual times     ....     736.384 sec  ( 99.8%)

Fock matrix formation       ....     729.347 sec  ( 98.9%)
  XC integration            ....       7.307 sec  (  1.0% of F)
    Basis function eval.    ....       1.196 sec  ( 16.4% of XC)
    Density eval.           ....       2.250 sec  ( 30.8% of XC)
    XC-Functional eval.     ....       0.114 sec  (  1.6% of XC)
    XC-Potential eval.      ....       2.241 sec  ( 30.7% of XC)
Diagonalization             ....       2.178 sec  (  0.3%)
Density matrix formation    ....       0.104 sec  (  0.0%)
Population analysis         ....       0.101 sec  (  0.0%)
Initial guess               ....       2.638 sec  (  0.4%)
Orbital Transformation      ....       0.000 sec  (  0.0%)
Orbital Orthonormalization  ....       0.000 sec  (  0.0%)
DIIS solution               ....       1.244 sec  (  0.2%)
Grid generation             ....       0.771 sec  (  0.1%)

-------------------------   --------------------
FINAL SINGLE POINT ENERGY      -533.936787709691
-------------------------   --------------------


                            ***************************************
                            *     ORCA property calculations      *
                            ***************************************

                                    ---------------------
                                    Active property flags
                                    ---------------------
   (+) Dipole Moment


------------------------------------------------------------------------------
                       ORCA ELECTRIC PROPERTIES CALCULATION
------------------------------------------------------------------------------

Dipole Moment Calculation                       ... on
Quadrupole Moment Calculation                   ... off
Polarizability Calculation                      ... off
GBWName                                         ... MOR17_ed36.gbw
Electron density file                           ... MOR17_ed36.scfp
The origin for moment calculation is the CENTER OF MASS  = ( 0.000012, -0.025539 -0.000272)

-------------
DIPOLE MOMENT
-------------
                                X             Y             Z
Electronic contribution:     -0.01309       0.79956      -0.10929
Nuclear contribution   :      0.01285      -1.32377       0.12031
                        -----------------------------------------
Total Dipole Moment    :     -0.00024      -0.52421       0.01102
                        -----------------------------------------
Magnitude (a.u.)       :      0.52432
Magnitude (Debye)      :      1.33272



--------------------
Rotational spectrum 
--------------------
 
Rotational constants in cm-1:     0.040116     0.028148     0.022583 
Rotational constants in MHz :  1202.641010   843.851559   677.032187 

 Dipole components along the rotational axes: 
x,y,z [a.u.] :    -0.000325     0.524207     0.010985 
x,y,z [Debye]:    -0.000826     1.332429     0.027922 

 

Timings for individual modules:

Sum of individual times         ...      741.655 sec (=  12.361 min)
GTO integral calculation        ...        3.677 sec (=   0.061 min)   0.5 %
SCF iterations                  ...      737.978 sec (=  12.300 min)  99.5 %
                             ****ORCA TERMINATED NORMALLY****
TOTAL RUN TIME: 0 days 0 hours 12 minutes 22 seconds 365 msec
