
                                 *****************
                                 * O   R   C   A *
                                 *****************

           --- An Ab Initio, DFT and Semiempirical electronic structure package ---

                  #######################################################
                  #                        -***-                        #
                  #          Department of theory and spectroscopy      #
                  #               Directorship: Frank Neese             #
                  #        Max Planck Institute fuer Kohlenforschung    #
                  #                Kaiser Wilhelm Platz 1               #
                  #                 D-45470 Muelheim/Ruhr               #
                  #                      Germany                        #
                  #                                                     #
                  #                  All rights reserved                #
                  #                        -***-                        #
                  #######################################################


                         Program Version 4.2.0 -  RELEASE  -


 With contributions from (in alphabetic order):
   Daniel Aravena         : Magnetic Suceptibility
   Michael Atanasov       : Ab Initio Ligand Field Theory (pilot matlab implementation)
   Alexander A. Auer      : GIAO ZORA, VPT2
   Ute Becker             : Parallelization
   Giovanni Bistoni       : ED, misc. LED, open-shell LED, HFLED
   Martin Brehm           : Molecular dynamics
   Dmytro Bykov           : SCF Hessian
   Vijay G. Chilkuri      : MRCI spin determinant printing, contributions to CSF-ICE
   Dipayan Datta          : RHF DLPNO-CCSD density
   Achintya Kumar Dutta   : EOM-CC, STEOM-CC
   Dmitry Ganyushin       : Spin-Orbit,Spin-Spin,Magnetic field MRCI
   Miquel Garcia          : C-PCM Hessian, Gaussian charge scheme
   Yang Guo               : DLPNO-NEVPT2, CIM, IAO-localization
   Andreas Hansen         : Spin unrestricted coupled pair/coupled cluster methods
   Benjamin Helmich-Paris : CASSCF linear response (MC-RPA)
   Lee Huntington         : MR-EOM, pCC
   Robert Izsak           : Overlap fitted RIJCOSX, COSX-SCS-MP3, EOM
   Christian Kollmar      : KDIIS, OOCD, Brueckner-CCSD(T), CCSD density
   Simone Kossmann        : Meta GGA functionals, TD-DFT gradient, OOMP2, MP2 Hessian
   Martin Krupicka        : AUTO-CI
   Lucas Lang             : DCDCAS
   Dagmar Lenk            : GEPOL surface, SMD
   Dimitrios Liakos       : Extrapolation schemes; Compound Job, initial MDCI parallelization
   Dimitrios Manganas     : Further ROCIS development; embedding schemes
   Dimitrios Pantazis     : SARC Basis sets
   Taras Petrenko         : DFT Hessian,TD-DFT gradient, ASA, ECA, R-Raman, ABS, FL, XAS/XES, NRVS
   Peter Pinski           : DLPNO-MP2, DLPNO-MP2 Gradient
   Christoph Reimann      : Effective Core Potentials
   Marius Retegan         : Local ZFS, SOC
   Christoph Riplinger    : Optimizer, TS searches, QM/MM, DLPNO-CCSD(T), (RO)-DLPNO pert. Triples
   Tobias Risthaus        : Range-separated hybrids, TD-DFT gradient, RPA, STAB
   Michael Roemelt        : Original ROCIS implementation
   Masaaki Saitow         : Open-shell DLPNO-CCSD energy and density
   Barbara Sandhoefer     : DKH picture change effects
   Avijit Sen             : IP-ROCIS
   Kantharuban Sivalingam : CASSCF convergence, NEVPT2, FIC-MRCI
   Bernardo de Souza      : ESD, SOC TD-DFT
   Georgi Stoychev        : AutoAux, RI-MP2 NMR
   Willem Van den Heuvel  : Paramagnetic NMR
   Boris Wezisla          : Elementary symmetry handling
   Frank Wennmohs         : Technical directorship


 We gratefully acknowledge several colleagues who have allowed us to
 interface, adapt or use parts of their codes:
   Stefan Grimme, W. Hujo, H. Kruse,             : VdW corrections, initial TS optimization,
                  C. Bannwarth                     DFT functionals, gCP, sTDA/sTD-DF
   Ed Valeev, F. Pavosevic, A. Kumar             : LibInt (2-el integral package), F12 methods
   Garnet Chan, S. Sharma, J. Yang, R. Olivares  : DMRG
   Ulf Ekstrom                                   : XCFun DFT Library
   Mihaly Kallay                                 : mrcc  (arbitrary order and MRCC methods)
   Andreas Klamt, Michael Diedenhofen            : otool_cosmo (COSMO solvation model)
   Jiri Pittner, Ondrej Demel                    : Mk-CCSD
   Frank Weinhold                                : gennbo (NPA and NBO analysis)
   Christopher J. Cramer and Donald G. Truhlar   : smd solvation model
   Lars Goerigk                                  : TD-DFT with DH, B97 family of functionals
   V. Asgeirsson, H. Jonsson                     : NEB implementation
   FAccTs GmbH                                   : IRC, NEB, NEB-TS, Multilevel, MM, QM/MM, CI optimization
   S Lehtola, MJT Oliveira, MAL Marques          : LibXC Library


 Your calculation uses the libint2 library for the computation of 2-el integrals
 For citations please refer to: http://libint.valeyev.net

 Your ORCA version has been built with support for libXC version: 4.2.3
 For citations please refer to: https://tddft.org/programs/libxc/

 This ORCA versions uses:
   CBLAS   interface :  Fast vector & matrix operations
   LAPACKE interface :  Fast linear algebra routines
   SCALAPACK package :  Parallel linear algebra routines


----- Orbital basis set information -----
Your calculation utilizes the basis: def2-SVP
   F. Weigend and R. Ahlrichs, Phys. Chem. Chem. Phys. 7, 3297 (2005).

----- AuxJ basis set information -----
Your calculation utilizes the auxiliary basis: def2/J
   F. Weigend, Phys. Chem. Chem. Phys. 8, 1057 (2006).

================================================================================
                                        WARNINGS
                       Please study these warnings very carefully!
================================================================================


INFO   : the flag for use of LIBINT has been found!

================================================================================
                                       INPUT FILE
================================================================================
NAME = MOR10_ed09_atom45.inp
|  1> # input to generate an atomic fitting density for Rh
|  2> # this file is use internally by ORCA
|  3> #
|  4> # atomic ground state (S=4): 1s2 2s2 2p6 3s2 3p6 4s2 3d10 4p6 5s2 4d7 
|  5> #
|  6> ! RHF AllowRHF def2-SVP def2/J  NoMulliken NoLoewdin NoMayer NoPrintMOs 
|  7> 
|  8> %output print[p_atomdensfit] 2 end
|  9> 
| 10> %scf
| 11>   guess hcore
| 12>   maxiter 1000
| 13>   maxdisk 500000
| 14>   SCFMode Conventional
| 15>   lshift 1.000000
| 16>   hftyp rohf
| 17>   rohf_case sahf
| 18>   rohf_numop   2
| 19>   rohf_norb[1] 5
| 20>   rohf_nel[1]  7
| 21> end
| 22> 
| 23> %basis
| 24>   NewECP 45
| 25>     N_core 28
| 26>     lmax f
| 27>     s 4
| 28>       1      11.7200000000    225.3477535000  2
| 29>       2       5.8200000000     32.8231890000  2
| 30>       3      12.3100000000     30.0934557000  2
| 31>       4       6.1600000000      5.2184819000  2
| 32>     p 4
| 33>       1      10.4200000000    158.7094116000  2
| 34>       2       5.4500000000     26.4441005000  2
| 35>       3      12.3100000000     30.0934557000  2
| 36>       4       6.1600000000      5.2184819000  2
| 37>     d 4
| 38>       1       8.8200000000     62.7586257000  2
| 39>       2       3.8700000000     10.9787195000  2
| 40>       3      12.3100000000     30.0934557000  2
| 41>       4       6.1600000000      5.2184819000  2
| 42>     f 2
| 43>       1      12.3100000000    -30.0934557000  2
| 44>       2       6.1600000000     -5.2184819000  2
| 45>   end
| 46>   NewGTO 45
| 47>     s 2 
| 48>      1      17.0000000000     -0.9383793180
| 49>      2      13.9105816940      1.9247376672
| 50>     s 1 
| 51>      1       5.2481265288      1.0000000000
| 52>     s 1 
| 53>      1       1.2262575928      1.0000000000
| 54>     s 1 
| 55>      1       0.5393021635      1.0000000000
| 56>     s 1 
| 57>      1       0.1013073038      1.0000000000
| 58>     s 1 
| 59>      1       0.0371241390      1.0000000000
| 60>     p 4 
| 61>      1      11.7671036310      0.0676935579
| 62>      2       6.7485133083     -0.2700677651
| 63>      3       1.7502679834      0.5577445140
| 64>      4       0.8432116613      0.5760017293
| 65>     p 1 
| 66>      1       0.3829554476      1.0000000000
| 67>     p 1 
| 68>      1       0.1150000000      1.0000000000
| 69>     p 1 
| 70>      1       0.0370000000      1.0000000000
| 71>     d 4 
| 72>      1      19.8578301360      0.0068204289
| 73>      2      10.0613781390     -0.0223899551
| 74>      3       2.2619546477      0.3862288430
| 75>      4       0.9709884504      0.6853960058
| 76>     d 1 
| 77>      1       0.3839119530      1.0000000000
| 78>     d 1 
| 79>      1       0.1353702690      1.0000000000
| 80>   end
| 81>   NewAuxGTO 45
| 82>     S 1
| 83>      1 1310.72 1.0
| 84>     S 1
| 85>      1  655.36 1.0
| 86>     S 1
| 87>      1  327.68 1.0
| 88>     S 1
| 89>      1  163.84 1.0
| 90>     S 1
| 91>      1   81.82 1.0
| 92>     S 1
| 93>      1   40.96 1.0
| 94>     S 1
| 95>      1   20.48 1.0
| 96>     S 1
| 97>      1   10.24 1.0
| 98>     S 1
| 99>      1    5.12 1.0
|100>     S 1
|101>      1    2.56 1.0
|102>     S 1
|103>      1    1.28 1.0
|104>     S 1
|105>      1    0.64 1.0
|106>     S 1
|107>      1    0.32 1.0
|108>     S 1
|109>      1    0.16 1.0
|110>     S 1
|111>      1    0.08 1.0
|112>     S 1
|113>      1    0.04 1.0
|114>     S 1
|115>      1    0.02 1.0
|116>     S 1
|117>      1    0.01 1.0
|118>   end
|119> end
|120> 
|121> * xyz 0 4
|122> 45  0.0 0.0 0.0
|123> *
|124> 
|125> 
|126>                          ****END OF INPUT****
================================================================================

                       ****************************
                       * Single Point Calculation *
                       ****************************

---------------------------------
CARTESIAN COORDINATES (ANGSTROEM)
---------------------------------
  Rh     0.000000    0.000000    0.000000

----------------------------
CARTESIAN COORDINATES (A.U.)
----------------------------
  NO LB      ZA    FRAG     MASS         X           Y           Z
   0 Rh   17.0000*   0   102.910    0.000000    0.000000    0.000000
* core charge reduced due to ECP

--------------------------------
INTERNAL COORDINATES (ANGSTROEM)
--------------------------------
 Rh     0   0   0     0.000000000000     0.00000000     0.00000000

---------------------------
INTERNAL COORDINATES (A.U.)
---------------------------
 Rh     0   0   0     0.000000000000     0.00000000     0.00000000

---------------------
BASIS SET INFORMATION
---------------------
There are 1 groups of distinct atoms

 Group   1 Type Rh  : 7s7p6d contracted to 6s4p3d pattern {211111/4111/411}

Atom   0Rh   basis set group =>   1
---------------------------------
AUXILIARY/J BASIS SET INFORMATION
---------------------------------
There are 1 groups of distinct atoms

 Group   1 Type Rh  : 18s contracted to 18s pattern {111111111111111111}

Atom   0Rh   basis set group =>   1
-------------------------
ECP PARAMETER INFORMATION
-------------------------

 Group 1, Type Rh ECP (replacing 28 core electrons, lmax=3)

Atom   0Rh   ECP group =>   1

------------------------------------------------------------------------------
                           ORCA GTO INTEGRAL CALCULATION
------------------------------------------------------------------------------

                         BASIS SET STATISTICS AND STARTUP INFO

 # of primitive gaussian shells          ...   20
 # of primitive gaussian functions       ...   58
 # of contracted shells                  ...   13
 # of contracted basis functions         ...   33
 Highest angular momentum                ...    2
 Maximum contraction depth               ...    4
 Integral package used                   ... LIBINT
 Integral threshhold            Thresh   ...  1.000e-10
 Primitive cut-off              TCut     ...  1.000e-11
 Storage cut-off                TCutStore... -1.000e+00
 Buffer length                           ... 1048576 integrals/buffer
 Generate file with integrals 4 distinct ...false


------------------------------ INTEGRAL EVALUATION ----------------------------


 * One electron integrals 

   ECP integrals                         ... done
 Pre-screening matrix                    ... done
 Shell pair data                         ... done (   0.000 sec)
 Statistics run                          ... done
 Maximum amount of storage needed        ...     1 MB
 Maximum amount of storage dedicated     ... 500000 MB
 Beginning two electron integral evaluation:
 Starting repulsion integrals
  <ss|ss>  ...          231 b.         0 skpd (  0.0%)     0.000 s. (  0.000 ms/b)
  <ss|sp>  ...          504 b.         0 skpd (  0.0%)     0.000 s. (  0.000 ms/b)
  <ss|sd>  ...          378 b.         0 skpd (  0.0%)     0.000 s. (  0.000 ms/b)
  <ss|pp>  ...          210 b.         0 skpd (  0.0%)     0.000 s. (  0.001 ms/b)
  <ss|pd>  ...          252 b.         0 skpd (  0.0%)     0.000 s. (  0.001 ms/b)
  <ss|dd>  ...          126 b.         0 skpd (  0.0%)     0.000 s. (  0.002 ms/b)
  <sp|sp>  ...          300 b.         0 skpd (  0.0%)     0.000 s. (  0.001 ms/b)
  <sp|sd>  ...          432 b.         0 skpd (  0.0%)     0.000 s. (  0.001 ms/b)
  <sp|pp>  ...          240 b.         0 skpd (  0.0%)     0.000 s. (  0.002 ms/b)
  <sp|pd>  ...          288 b.         0 skpd (  0.0%)     0.001 s. (  0.003 ms/b)
  <sp|dd>  ...          144 b.         0 skpd (  0.0%)     0.001 s. (  0.005 ms/b)
  <sd|sd>  ...          171 b.         0 skpd (  0.0%)     0.000 s. (  0.002 ms/b)
  <sd|pp>  ...          180 b.         0 skpd (  0.0%)     0.001 s. (  0.003 ms/b)
  <sd|pd>  ...          216 b.         0 skpd (  0.0%)     0.001 s. (  0.006 ms/b)
  <sd|dd>  ...          108 b.         0 skpd (  0.0%)     0.002 s. (  0.014 ms/b)
  <pp|pp>  ...           55 b.         0 skpd (  0.0%)     0.000 s. (  0.006 ms/b)
  <pp|pd>  ...          120 b.         0 skpd (  0.0%)     0.001 s. (  0.010 ms/b)
  <pp|dd>  ...           60 b.         0 skpd (  0.0%)     0.001 s. (  0.022 ms/b)
  <pd|pd>  ...           78 b.         0 skpd (  0.0%)     0.002 s. (  0.023 ms/b)
  <pd|dd>  ...           72 b.         0 skpd (  0.0%)     0.004 s. (  0.049 ms/b)
  <dd|dd>  ...           21 b.         0 skpd (  0.0%)     0.003 s. (  0.150 ms/b)


                                      INTEGRAL STATISTICS

Integral type statistics:
 Number of integrals retained            ...     157641 
 One   Center Integrals retained         ...     157641 (100.0%)
 Two   Center Integrals retained         ...          0 (  0.0%)
 Three Center Integrals retained         ...          0 (  0.0%)
 Four  Center Integrals retained         ...          0 (  0.0%)

Storage statistics:
 Number of char integrals                ...          0 (  0.0%)
 Number of short int integrals           ...          0 (  0.0%)
 Number of double/float integrals        ...     157641 (100.0%)
 Amount of memory used                   ...          1 MB
 Amount of memory estimated              ...          1 MB ( 94.1%)

Prescreening statistics:
 Total number of shell quadruples        ...       4186 
 Number of skipped shell quadruples      ...          0 (  0.0%)
 # of negligible batches done            ...          0 (  0.0%)

Timings:
 Total evaluation time               ...     0.170 sec (   0.003 min)
 One electron matrix time            ...     0.014 sec (   0.000 min) =  8.2%
 Schwartz matrix evaluation time     ...     0.068 sec (   0.001 min) = 39.9%
 Statistics run                      ...     0.001 sec (   0.000 min) =  0.9%
 Repulsion integral time             ...     0.019 sec (   0.000 min) = 10.9%

-------------------------------------------------------------------------------
                                 ORCA SCF
-------------------------------------------------------------------------------

------------
SCF SETTINGS
------------
Hamiltonian:
 Ab initio Hamiltonian  Method          .... Hartree-Fock(GTOs)


General Settings:
 Integral files         IntName         .... MOR10_ed09_atom45
 Hartree-Fock type      HFTyp           .... ROHF
 Total Charge           Charge          ....    0
 Multiplicity           Mult            ....    4
 Number of Electrons    NEL             ....   17
 Basis Dimension        Dim             ....   33
 Nuclear Repulsion      ENuc            ....      0.0000000000 Eh

Convergence Acceleration:
 DIIS                   CNVDIIS         .... on
   Start iteration      DIISMaxIt       ....    12
   Startup error        DIISStart       ....  0.200000
   # of expansion vecs  DIISMaxEq       ....     5
   Bias factor          DIISBfac        ....   1.050
   Max. coefficient     DIISMaxC        ....  10.000
 Newton-Raphson         CNVNR           .... off
 SOSCF                  CNVSOSCF        .... off
 Level Shifting         CNVShift        .... on
   Level shift para.    LevelShift      ....    1.0000
   Turn off err/grad.   ShiftErr        ....    0.0010
 Zerner damping         CNVZerner       .... off
 Static damping         CNVDamp         .... on
   Fraction old density DampFac         ....    0.7000
   Max. Damping (<1)    DampMax         ....    0.9800
   Min. Damping (>=0)   DampMin         ....    0.0000
   Turn off err/grad.   DampErr         ....    0.1000
 Fernandez-Rico         CNVRico         .... off

SCF Procedure:
 Maximum # iterations   MaxIter         ....  1000
 SCF integral mode      SCFMode         .... Conventional
 Integral Threshold     Thresh          ....  1.000e-10 Eh
 Primitive CutOff       TCut            ....  1.000e-11 Eh
 Integral Buffer length BufferLength    .... 1048576
 Integral index format  IndFormat       ....     0
 Integral value format  ValFormat       ....     0
 Integral Storage       Thresh          ....  1.000e-10 Eh

Convergence Tolerance:
 Convergence Check Mode ConvCheckMode   .... Total+1el-Energy
 Convergence forced     ConvForced      .... 0
 Energy Change          TolE            ....  1.000e-06 Eh
 1-El. energy change                    ....  1.000e-03 Eh
 DIIS Error             TolErr          ....  1.000e-06


Diagonalization of the overlap matrix:
Smallest eigenvalue                        ... 2.134e-02
Time for diagonalization                   ...    0.001 sec
Threshold for overlap eigenvalues          ... 1.000e-08
Number of eigenvalues below threshold      ... 0
Time for construction of square roots      ...    0.030 sec
Total time needed                          ...    0.031 sec

--------------------
INITIAL GUESS: HCORE
--------------------
AVERAGE-CONFIGURATION (SAHF) CASE FOUND

-------------------
FINAL ROHF SETTINGS
-------------------
Number of operators             ... 2
  operator   0:   5 orbitals  10 electrons n(mue)= 2.000
  operator   1:   5 orbitals   7 electrons n(mue)= 1.400
Vector coupling coefficients a and b (Zerner convention):
   1.000    1.000           1.000    1.000 
   1.000    0.969           1.000    1.122 

                      -----------------
                      INTIAL GUESS DONE 
                      -----------------

 InCore treatment chosen:
   Memory dedicated               ...    1024 MB
   Memory needed                  ...      1 MB
   Number of tiny    integrals    ...       0
   Number of small   integrals    ...       0
   Number of regular integrals    ...  157641

--------------
SCF ITERATIONS
--------------
ITER       Energy         Delta-E        Max-DP      RMS-DP      [F,P]     Damp
  0   -100.7907949878   0.000000000000 2.01442020  0.08801125  0.9460460 0.7000
  1   -106.4658589427  -5.675063954871 1.48301438  0.06494773  0.4695025 0.7000
                            ****Activating DIIS****
  2   -105.7063263124   0.759532630299 3.46275486  0.15034637  0.0993061 0.0000
  3   -103.7604784997   1.945847812689 0.00730892  0.00032543  0.3909192 0.7000
  4   -103.7785840760  -0.018105576307 0.00639189  0.00028507  0.3811007 0.7000
  5   -103.7847020676  -0.006117991596 0.00411896  0.00017705  0.3791800 0.7000
  6   -103.7785889994   0.006113068216 0.03071045  0.00137442  0.3790888 0.7000
  7   -103.6945178309   0.084071168471 1.07782154  0.03945048  0.4254785 0.7000
  8   -108.8337662802  -5.139248449270 0.75886792  0.02753341  0.1039150 0.7000
  9   -108.7127602382   0.121006041994 0.53075649  0.01956701  0.1411899 0.7000
 10   -108.5450754022   0.167684836023 0.37263122  0.01408236  0.2211521 0.7000
 11   -108.4036892296   0.141386172576 0.26131771  0.00992044  0.2903208 0.7000
 12   -108.3221016826   0.081587546969 0.18293794  0.00655151  0.3141194 0.7000
 13   -108.3530456334  -0.030943950793 0.13031514  0.00456350  0.3393060 0.7000
 14   -108.4813812116  -0.128335578151 0.08849277  0.00334088  0.3790553 0.7000
 15   -108.3528152897   0.128565921831 0.09983297  0.00432355  0.3381225 0.7000
 16   -108.7709813462  -0.418166056424 0.28163235  0.01310587  0.3281153 0.7000
 17   -109.3264093456  -0.555427999468 0.18624148  0.00841350  0.1033226 0.7000
 18   -109.4229612044  -0.096551858752 0.39015657  0.01947772  0.0549481 0.0000
 19   -109.6642962184  -0.241335014009 0.12419572  0.00395113  0.0380803 0.0000
 20   -109.6704907692  -0.006194550841 0.10172195  0.00291917  0.0334637 0.0000
 21   -109.6768203564  -0.006329587174 0.13098799  0.00341935  0.0270351 0.0000
 22   -109.6807480989  -0.003927742450 0.15785136  0.00401688  0.0199766 0.0000
 23   -109.6836664998  -0.002918400967 0.09034871  0.00231179  0.0118875 0.0000
 24   -109.6849033396  -0.001236839725 0.05781918  0.00150381  0.0079615 0.0000
 25   -109.6853765833  -0.000473243745 0.03528189  0.00093206  0.0049053 0.0000
 26   -109.6855656256  -0.000189042273 0.02941344  0.00078834  0.0030466 0.0000
 27   -109.6856545908  -0.000088965215 0.01040227  0.00028432  0.0014267 0.0000
 28   -109.6856711522  -0.000016561385 0.00704112  0.00019578  0.0008072 0.0000
 29   -109.6856774677  -0.000006315572 0.00271560  0.00007590  0.0003568 0.0000
 30   -109.6856785876  -0.000001119869 0.00093300  0.00002529  0.0002442 0.0000
                 **** Energy Check signals convergence ****

               *****************************************************
               *                     SUCCESS                       *
               *           SCF CONVERGED AFTER  31 CYCLES          *
               *****************************************************


----------------
TOTAL SCF ENERGY
----------------

Total Energy       :         -109.68567877 Eh           -2984.69906 eV

Components:
Nuclear Repulsion  :            0.00000000 Eh               0.00000 eV
Electronic Energy  :         -109.68567877 Eh           -2984.69906 eV
One Electron Energy:         -193.22675037 Eh           -5257.96719 eV
Two Electron Energy:           83.54107159 Eh            2273.26813 eV

Virial components:
Potential Energy   :         -150.65576800 Eh           -4099.55186 eV
Kinetic Energy     :           40.97008922 Eh            1114.85281 eV
Virial Ratio       :            3.67721357


---------------
SCF CONVERGENCE
---------------

  Last Energy change         ...   -1.8471e-07  Tolerance :   1.0000e-06
  Last MAX-Density change    ...    4.5074e-04  Tolerance :   1.0000e-05
  Last RMS-Density change    ...    1.2132e-05  Tolerance :   1.0000e-06
  Last DIIS Error            ...    2.4407e-04  Tolerance :   1.0000e-06

             **** THE GBW FILE WAS UPDATED (MOR10_ed09_atom45.gbw) ****
             **** DENSITY FILE WAS UPDATED (MOR10_ed09_atom45.scfp) ****
             **** ENERGY FILE WAS UPDATED (MOR10_ed09_atom45.en.tmp) ****
             **** THE GBW FILE WAS UPDATED (MOR10_ed09_atom45.gbw) ****
             **** DENSITY FILE WAS UPDATED (MOR10_ed09_atom45.scfp) ****
----------------
ORBITAL ENERGIES
----------------

  NO   OCC          E(Eh)            E(eV) 
   0   2.0000      -3.821435      -103.9865 
   1   2.0000      -2.428850       -66.0924 
   2   2.0000      -2.423232       -65.9395 
   3   2.0000      -2.421453       -65.8911 
   4   2.0000      -0.453163       -12.3312 
   5   1.4000      -0.489583       -13.3222 
   6   1.4000      -0.485724       -13.2172 
   7   1.4000      -0.480913       -13.0863 
   8   1.4000      -0.465667       -12.6715 
   9   1.4000      -0.255096        -6.9415 
  10   0.0000       0.004654         0.1267 
  11   0.0000       0.007616         0.2072 
  12   0.0000       0.008536         0.2323 
  13   0.0000       0.127419         3.4672 
  14   0.0000       0.205955         5.6043 
  15   0.0000       0.211659         5.7595 
  16   0.0000       0.213466         5.8087 
  17   0.0000       0.377229        10.2649 
  18   0.0000       0.378268        10.2932 
  19   0.0000       0.381321        10.3763 
  20   0.0000       0.379631        10.3303 
  21   0.0000       0.383974        10.4485 
  22   0.0000       1.538123        41.8545 
  23   0.0000       1.553716        42.2788 
  24   0.0000       1.558633        42.4126 
  25   0.0000       1.826928        49.7132 
  26   0.0000       1.830338        49.8060 
  27   0.0000       1.833564        49.8938 
  28   0.0000       1.842410        50.1345 
  29   0.0000       1.843804        50.1724 
  30   0.0000       1.879978        51.1568 
  31   0.0000      29.824543       811.5671 
  32   0.0000     101.862083      2771.8082 
CleanUpVectors: The p-vectors have cracked symmetry
CleanUpVectors: The p-vectors have cracked symmetry
CleanUpVectors: The p-vectors have cracked symmetry
CleanUpVectors: The d-vectors have cracked symmetry at i=4
CleanUpVectors: The d-vectors have cracked symmetry at i=5
CleanUpVectors: The d-vectors have cracked symmetry at i=6
CleanUpVectors: The d-vectors have cracked symmetry at i=7
CleanUpVectors: The d-vectors have cracked symmetry at i=8
CleanUpVectors: The p-vectors have cracked symmetry
CleanUpVectors: The p-vectors have cracked symmetry
CleanUpVectors: The p-vectors have cracked symmetry
CleanUpVectors: The p-vectors have cracked symmetry
CleanUpVectors: The p-vectors have cracked symmetry
CleanUpVectors: The p-vectors have cracked symmetry
CleanUpVectors: The d-vectors have cracked symmetry at i=17
CleanUpVectors: The d-vectors have cracked symmetry at i=18
CleanUpVectors: The d-vectors have cracked symmetry at i=19
CleanUpVectors: The d-vectors have cracked symmetry at i=20
CleanUpVectors: The d-vectors have cracked symmetry at i=21
CleanUpVectors: The p-vectors have cracked symmetry
CleanUpVectors: The p-vectors have cracked symmetry
CleanUpVectors: The p-vectors have cracked symmetry
CleanUpVectors: The d-vectors have cracked symmetry at i=25
CleanUpVectors: The d-vectors have cracked symmetry at i=26
CleanUpVectors: The d-vectors have cracked symmetry at i=27
CleanUpVectors: The d-vectors have cracked symmetry at i=28
--------------------------
ATOM BASIS FOR ELEMENT Rh
--------------------------
 NewGTO Rh
 S 7
    1         17.000000000000        -0.166853828912
    2         13.910581694000         0.342238840160
    3          5.248126528800        -0.676850108121
    4          1.226257592800         0.887935540046
    5          0.539302163500         0.417736174767
    6          0.101307303800         0.010764029649
    7          0.037124139000        -0.000432066951
 P 20
    1         11.767103631000        -0.034776408003
    2          6.748513308300         0.138742696925
    3          1.750267983400        -0.286531708214
    4          0.843211661300        -0.295911040427
    5         11.767103631000        -0.044340321025
    6          6.748513308300         0.176898537681
    7          1.750267983400        -0.365331230440
    8          0.843211661300        -0.377289987115
    9         11.767103631000        -0.017688996588
   10          6.748513308300         0.070571379665
   11          1.750267983400        -0.145744161059
   12          0.843211661300        -0.150514952094
   13          0.382955447600        -0.095544687611
   14          0.382955447600        -0.121820577920
   15          0.382955447600        -0.048598741223
   16          0.115000000000        -0.004306694911
   17          0.115000000000        -0.005491085650
   18          0.115000000000        -0.002190597476
   19          0.037000000000         0.000237626460
   20          0.037000000000         0.000302976475
 D 20
    1         17.000000000000        -0.000005047897
    2         13.910581694000         0.000012653400
    3          5.248126528800        -0.000070800582
    4          1.226257592800         0.000644919690
    5          0.539302163500        -0.000375474633
    6          0.101307303800        -0.004437569361
    7          0.037124139000         0.010842382175
    8         19.857830136000        -0.001366930839
    9         10.061378139000         0.004487330719
   10          2.261954647700        -0.077406879283
   11          0.970988450400        -0.137365105801
   12         19.857830136000        -0.000447723244
   13         10.061378139000         0.001469776091
   14          2.261954647700        -0.025353776575
   15          0.970988450400        -0.044992437804
   16         19.857830136000         0.003054196372
   17         10.061378139000        -0.010026249176
   18          2.261954647700         0.172953746515
   19          0.970988450400         0.306921166552
   20         19.857830136000         0.000122726465
 D 20
    1         19.857830136000        -0.001765418786
    2         10.061378139000         0.005795478251
    3          2.261954647700        -0.099972547928
    4          0.970988450400        -0.177409808411
    5         19.857830136000         0.000247810181
    6         10.061378139000        -0.000813505853
    7          2.261954647700         0.014033052893
    8          0.970988450400         0.024902848600
    9         19.857830136000        -0.002393352081
   10         10.061378139000         0.007856843964
   11          2.261954647700        -0.135531301438
   12          0.970988450400        -0.240511847704
   13         19.857830136000         0.002926601944
   14         10.061378139000        -0.009607384973
   15          2.261954647700         0.165728299409
   16          0.970988450400         0.294098994732
   17         19.857830136000        -0.001603447472
   18         10.061378139000         0.005263762358
   19          2.261954647700        -0.090800398503
   20          0.970988450400        -0.161133047381
 P 20
    1         11.767103631000        -0.009350743748
    2          6.748513308300         0.037305388347
    3          1.750267983400        -0.077043166132
    4          0.843211661300        -0.079565098013
    5         11.767103631000        -0.011922306052
    6          6.748513308300         0.047564800112
    7          1.750267983400        -0.098230924792
    8          0.843211661300        -0.101446417007
    9         11.767103631000        -0.004756249531
   10          6.748513308300         0.018975360743
   11          1.750267983400        -0.039187954741
   12          0.843211661300        -0.040470733699
   13          0.382955447600        -0.159756614203
   14          0.382955447600        -0.203691524410
   15          0.382955447600        -0.081260094584
   16          0.115000000000         0.945184093186
   17          0.115000000000         1.205120612691
   18          0.115000000000         0.480767254584
   19          0.037000000000        -0.610078145611
   20          0.037000000000        -0.777856667213
 D 20
    1         17.000000000000         0.000015651637
    2         13.910581694000        -0.000039233451
    3          5.248126528800         0.000220306733
    4          1.226257592800        -0.002131126682
    5          0.539302163500         0.000750655932
    6          0.101307303800         0.027242194775
    7          0.037124139000        -0.013347028996
    8         19.857830136000        -0.000028564203
    9         10.061378139000         0.000093769941
   10          2.261954647700        -0.001617540358
   11          0.970988450400        -0.002870463251
   12         19.857830136000         0.001215601377
   13         10.061378139000        -0.003990549662
   14          2.261954647700         0.068837359071
   15          0.970988450400         0.122157761680
   16         19.857830136000         0.000628997272
   17         10.061378139000        -0.002064858514
   18          2.261954647700         0.035619004642
   19          0.970988450400         0.063208960062
   20         19.857830136000         0.000667781068
 P 20
    1         11.767103631000        -0.053637857102
    2          6.748513308300         0.213991650633
    3          1.750267983400        -0.441936004980
    4          0.843211661300        -0.456402343221
    5         11.767103631000        -0.068388886017
    6          6.748513308300         0.272841820953
    7          1.750267983400        -0.563473499956
    8          0.843211661300        -0.581918247948
    9         11.767103631000        -0.027282860012
   10          6.748513308300         0.108846709460
   11          1.750267983400        -0.224790452299
   12          0.843211661300        -0.232148745536
   13          0.382955447600         1.275119089351
   14          0.382955447600         1.625791535519
   15          0.382955447600         0.648588468921
   16          0.115000000000        -0.762342588809
   17          0.115000000000        -0.971995587238
   18          0.115000000000        -0.387765046103
   19          0.037000000000         0.264700778855
   20          0.037000000000         0.337496543892
 D 20
    1         17.000000000000        -0.000391155365
    2         13.910581694000         0.000980496481
    3          5.248126528800        -0.005377415869
    4          1.226257592800         0.079863253923
    5          0.539302163500        -0.188106933449
    6          0.101307303800         0.452077352061
    7          0.037124139000        -0.527767917453
    8         19.857830136000        -0.000044387242
    9         10.061378139000         0.000145713469
   10          2.261954647700        -0.002513571122
   11          0.970988450400        -0.004460546224
   12         19.857830136000         0.005662331214
   13         10.061378139000        -0.018588177297
   14          2.261954647700         0.320647816354
   15          0.970988450400         0.569016883593
   16         19.857830136000         0.002718389985
   17         10.061378139000        -0.008923871300
   18          2.261954647700         0.153937623891
   19          0.970988450400         0.273175435934
   20         19.857830136000         0.003086825351
 S 20
    1         17.000000000000        -0.239892624050
    2         13.910581694000         0.492050880423
    3          5.248126528800        -1.022557197148
    4          1.226257592800         3.518374858008
    5          0.539302163500        -3.588546240038
    6          0.101307303800         1.551507054327
    7          0.037124139000        -0.663050117835
    8         19.857830136000        -0.007325421226
    9         10.061378139000         0.012184278557
   10          2.261954647700        -0.047251730828
   11          0.970988450400        -0.035995213885
   12         19.857830136000        -0.051529303318
   13         10.061378139000         0.085708024992
   14          2.261954647700        -0.332383448692
   15          0.970988450400        -0.253201588974
   16         19.857830136000        -0.006300214856
   17         10.061378139000         0.010479066038
   18          2.261954647700        -0.040638762928
   19          0.970988450400        -0.030957616535
   20         19.857830136000        -0.026022458927
 S 20
    1         17.000000000000        -1.717112337240
    2         13.910581694000         3.522020073230
    3          5.248126528800        -3.292358845195
    4          1.226257592800         2.121943130495
    5          0.539302163500        -1.263475048318
    6          0.101307303800         0.359861602778
    7          0.037124139000        -0.153795571724
    8         19.857830136000        -0.000007473832
    9         10.061378139000         0.000012431129
   10          2.261954647700        -0.000048209039
   11          0.970988450400        -0.000036724468
   12         19.857830136000        -0.000066930399
   13         10.061378139000         0.000111324468
   14          2.261954647700        -0.000431726325
   15          0.970988450400        -0.000328878565
   16         19.857830136000        -0.000013051995
   17         10.061378139000         0.000021709214
   18          2.261954647700        -0.000084190290
   19          0.970988450400        -0.000064134106
   20         19.857830136000        -0.000034346345
 S 20
    1         17.000000000000        -1.910622424064
    2         13.910581694000         3.918934355065
    3          5.248126528800        -1.540488068607
    4          1.226257592800         0.698339980702
    5          0.539302163500        -0.397144594515
    6          0.101307303800         0.112001818969
    7          0.037124139000        -0.047986335067
    8         19.857830136000        -0.000000475178
    9         10.061378139000         0.000000790358
   10          2.261954647700        -0.000003065080
   11          0.970988450400        -0.000002334903
   12         19.857830136000        -0.000004232657
   13         10.061378139000         0.000007040123
   14          2.261954647700        -0.000027302232
   15          0.970988450400        -0.000020798173
   16         19.857830136000        -0.000000819355
   17         10.061378139000         0.000001362823
   18          2.261954647700        -0.000005285150
   19          0.970988450400        -0.000004026098
   20         19.857830136000        -0.000002171373
 end
  // -----------------------------------------------
  // The basis set
  // -----------------------------------------------
  BAS[ATNO] = new BFNGauss[NSH];
  // Basis function   1 L = s
  InitBFNGauss(BAS[ATNO][  0]);
  BAS[ATNO][  0].l  = 0;
  BAS[ATNO][  0].ng = 7;
  BAS[ATNO][  0].a[  0] =        17.000000000000;     BAS[ATNO][  0].d[  0] =        -0.166853828912;
  BAS[ATNO][  0].a[  1] =        13.910581694000;     BAS[ATNO][  0].d[  1] =         0.342238840160;
  BAS[ATNO][  0].a[  2] =         5.248126528800;     BAS[ATNO][  0].d[  2] =        -0.676850108121;
  BAS[ATNO][  0].a[  3] =         1.226257592800;     BAS[ATNO][  0].d[  3] =         0.887935540046;
  BAS[ATNO][  0].a[  4] =         0.539302163500;     BAS[ATNO][  0].d[  4] =         0.417736174767;
  BAS[ATNO][  0].a[  5] =         0.101307303800;     BAS[ATNO][  0].d[  5] =         0.010764029649;
  BAS[ATNO][  0].a[  6] =         0.037124139000;     BAS[ATNO][  0].d[  6] =        -0.000432066951;

  // Basis function   2 L = p
  InitBFNGauss(BAS[ATNO][  1]);
  BAS[ATNO][  1].l  = 1;
  BAS[ATNO][  1].ng = 20;
  BAS[ATNO][  1].a[  0] =        11.767103631000;     BAS[ATNO][  1].d[  0] =         0.034776408003;
  BAS[ATNO][  1].a[  1] =         6.748513308300;     BAS[ATNO][  1].d[  1] =        -0.138742696925;
  BAS[ATNO][  1].a[  2] =         1.750267983400;     BAS[ATNO][  1].d[  2] =         0.286531708214;
  BAS[ATNO][  1].a[  3] =         0.843211661300;     BAS[ATNO][  1].d[  3] =         0.295911040427;
  BAS[ATNO][  1].a[  4] =        11.767103631000;     BAS[ATNO][  1].d[  4] =         0.044340321025;
  BAS[ATNO][  1].a[  5] =         6.748513308300;     BAS[ATNO][  1].d[  5] =        -0.176898537681;
  BAS[ATNO][  1].a[  6] =         1.750267983400;     BAS[ATNO][  1].d[  6] =         0.365331230440;
  BAS[ATNO][  1].a[  7] =         0.843211661300;     BAS[ATNO][  1].d[  7] =         0.377289987115;
  BAS[ATNO][  1].a[  8] =        11.767103631000;     BAS[ATNO][  1].d[  8] =         0.017688996588;
  BAS[ATNO][  1].a[  9] =         6.748513308300;     BAS[ATNO][  1].d[  9] =        -0.070571379665;
  BAS[ATNO][  1].a[ 10] =         1.750267983400;     BAS[ATNO][  1].d[ 10] =         0.145744161059;
  BAS[ATNO][  1].a[ 11] =         0.843211661300;     BAS[ATNO][  1].d[ 11] =         0.150514952094;
  BAS[ATNO][  1].a[ 12] =         0.382955447600;     BAS[ATNO][  1].d[ 12] =         0.095544687611;
  BAS[ATNO][  1].a[ 13] =         0.382955447600;     BAS[ATNO][  1].d[ 13] =         0.121820577920;
  BAS[ATNO][  1].a[ 14] =         0.382955447600;     BAS[ATNO][  1].d[ 14] =         0.048598741223;
  BAS[ATNO][  1].a[ 15] =         0.115000000000;     BAS[ATNO][  1].d[ 15] =         0.004306694911;
  BAS[ATNO][  1].a[ 16] =         0.115000000000;     BAS[ATNO][  1].d[ 16] =         0.005491085650;
  BAS[ATNO][  1].a[ 17] =         0.115000000000;     BAS[ATNO][  1].d[ 17] =         0.002190597476;
  BAS[ATNO][  1].a[ 18] =         0.037000000000;     BAS[ATNO][  1].d[ 18] =        -0.000237626460;
  BAS[ATNO][  1].a[ 19] =         0.037000000000;     BAS[ATNO][  1].d[ 19] =        -0.000302976475;

  // Basis function   3 L = d
  InitBFNGauss(BAS[ATNO][  2]);
  BAS[ATNO][  2].l  = 2;
  BAS[ATNO][  2].ng = 20;
  BAS[ATNO][  2].a[  0] =        17.000000000000;     BAS[ATNO][  2].d[  0] =        -0.000005047897;
  BAS[ATNO][  2].a[  1] =        13.910581694000;     BAS[ATNO][  2].d[  1] =         0.000012653400;
  BAS[ATNO][  2].a[  2] =         5.248126528800;     BAS[ATNO][  2].d[  2] =        -0.000070800582;
  BAS[ATNO][  2].a[  3] =         1.226257592800;     BAS[ATNO][  2].d[  3] =         0.000644919690;
  BAS[ATNO][  2].a[  4] =         0.539302163500;     BAS[ATNO][  2].d[  4] =        -0.000375474633;
  BAS[ATNO][  2].a[  5] =         0.101307303800;     BAS[ATNO][  2].d[  5] =        -0.004437569361;
  BAS[ATNO][  2].a[  6] =         0.037124139000;     BAS[ATNO][  2].d[  6] =         0.010842382175;
  BAS[ATNO][  2].a[  7] =        19.857830136000;     BAS[ATNO][  2].d[  7] =        -0.001366930839;
  BAS[ATNO][  2].a[  8] =        10.061378139000;     BAS[ATNO][  2].d[  8] =         0.004487330719;
  BAS[ATNO][  2].a[  9] =         2.261954647700;     BAS[ATNO][  2].d[  9] =        -0.077406879283;
  BAS[ATNO][  2].a[ 10] =         0.970988450400;     BAS[ATNO][  2].d[ 10] =        -0.137365105801;
  BAS[ATNO][  2].a[ 11] =        19.857830136000;     BAS[ATNO][  2].d[ 11] =        -0.000447723244;
  BAS[ATNO][  2].a[ 12] =        10.061378139000;     BAS[ATNO][  2].d[ 12] =         0.001469776091;
  BAS[ATNO][  2].a[ 13] =         2.261954647700;     BAS[ATNO][  2].d[ 13] =        -0.025353776575;
  BAS[ATNO][  2].a[ 14] =         0.970988450400;     BAS[ATNO][  2].d[ 14] =        -0.044992437804;
  BAS[ATNO][  2].a[ 15] =        19.857830136000;     BAS[ATNO][  2].d[ 15] =         0.003054196372;
  BAS[ATNO][  2].a[ 16] =        10.061378139000;     BAS[ATNO][  2].d[ 16] =        -0.010026249176;
  BAS[ATNO][  2].a[ 17] =         2.261954647700;     BAS[ATNO][  2].d[ 17] =         0.172953746515;
  BAS[ATNO][  2].a[ 18] =         0.970988450400;     BAS[ATNO][  2].d[ 18] =         0.306921166552;
  BAS[ATNO][  2].a[ 19] =        19.857830136000;     BAS[ATNO][  2].d[ 19] =         0.000122726465;

  // Basis function   4 L = d
  InitBFNGauss(BAS[ATNO][  3]);
  BAS[ATNO][  3].l  = 2;
  BAS[ATNO][  3].ng = 20;
  BAS[ATNO][  3].a[  0] =        19.857830136000;     BAS[ATNO][  3].d[  0] =        -0.001765418786;
  BAS[ATNO][  3].a[  1] =        10.061378139000;     BAS[ATNO][  3].d[  1] =         0.005795478251;
  BAS[ATNO][  3].a[  2] =         2.261954647700;     BAS[ATNO][  3].d[  2] =        -0.099972547928;
  BAS[ATNO][  3].a[  3] =         0.970988450400;     BAS[ATNO][  3].d[  3] =        -0.177409808411;
  BAS[ATNO][  3].a[  4] =        19.857830136000;     BAS[ATNO][  3].d[  4] =         0.000247810181;
  BAS[ATNO][  3].a[  5] =        10.061378139000;     BAS[ATNO][  3].d[  5] =        -0.000813505853;
  BAS[ATNO][  3].a[  6] =         2.261954647700;     BAS[ATNO][  3].d[  6] =         0.014033052893;
  BAS[ATNO][  3].a[  7] =         0.970988450400;     BAS[ATNO][  3].d[  7] =         0.024902848600;
  BAS[ATNO][  3].a[  8] =        19.857830136000;     BAS[ATNO][  3].d[  8] =        -0.002393352081;
  BAS[ATNO][  3].a[  9] =        10.061378139000;     BAS[ATNO][  3].d[  9] =         0.007856843964;
  BAS[ATNO][  3].a[ 10] =         2.261954647700;     BAS[ATNO][  3].d[ 10] =        -0.135531301438;
  BAS[ATNO][  3].a[ 11] =         0.970988450400;     BAS[ATNO][  3].d[ 11] =        -0.240511847704;
  BAS[ATNO][  3].a[ 12] =        19.857830136000;     BAS[ATNO][  3].d[ 12] =         0.002926601944;
  BAS[ATNO][  3].a[ 13] =        10.061378139000;     BAS[ATNO][  3].d[ 13] =        -0.009607384973;
  BAS[ATNO][  3].a[ 14] =         2.261954647700;     BAS[ATNO][  3].d[ 14] =         0.165728299409;
  BAS[ATNO][  3].a[ 15] =         0.970988450400;     BAS[ATNO][  3].d[ 15] =         0.294098994732;
  BAS[ATNO][  3].a[ 16] =        19.857830136000;     BAS[ATNO][  3].d[ 16] =        -0.001603447472;
  BAS[ATNO][  3].a[ 17] =        10.061378139000;     BAS[ATNO][  3].d[ 17] =         0.005263762358;
  BAS[ATNO][  3].a[ 18] =         2.261954647700;     BAS[ATNO][  3].d[ 18] =        -0.090800398503;
  BAS[ATNO][  3].a[ 19] =         0.970988450400;     BAS[ATNO][  3].d[ 19] =        -0.161133047381;

  // Basis function   5 L = p
  InitBFNGauss(BAS[ATNO][  4]);
  BAS[ATNO][  4].l  = 1;
  BAS[ATNO][  4].ng = 20;
  BAS[ATNO][  4].a[  0] =        11.767103631000;     BAS[ATNO][  4].d[  0] =        -0.009350743748;
  BAS[ATNO][  4].a[  1] =         6.748513308300;     BAS[ATNO][  4].d[  1] =         0.037305388347;
  BAS[ATNO][  4].a[  2] =         1.750267983400;     BAS[ATNO][  4].d[  2] =        -0.077043166132;
  BAS[ATNO][  4].a[  3] =         0.843211661300;     BAS[ATNO][  4].d[  3] =        -0.079565098013;
  BAS[ATNO][  4].a[  4] =        11.767103631000;     BAS[ATNO][  4].d[  4] =        -0.011922306052;
  BAS[ATNO][  4].a[  5] =         6.748513308300;     BAS[ATNO][  4].d[  5] =         0.047564800112;
  BAS[ATNO][  4].a[  6] =         1.750267983400;     BAS[ATNO][  4].d[  6] =        -0.098230924792;
  BAS[ATNO][  4].a[  7] =         0.843211661300;     BAS[ATNO][  4].d[  7] =        -0.101446417007;
  BAS[ATNO][  4].a[  8] =        11.767103631000;     BAS[ATNO][  4].d[  8] =        -0.004756249531;
  BAS[ATNO][  4].a[  9] =         6.748513308300;     BAS[ATNO][  4].d[  9] =         0.018975360743;
  BAS[ATNO][  4].a[ 10] =         1.750267983400;     BAS[ATNO][  4].d[ 10] =        -0.039187954741;
  BAS[ATNO][  4].a[ 11] =         0.843211661300;     BAS[ATNO][  4].d[ 11] =        -0.040470733699;
  BAS[ATNO][  4].a[ 12] =         0.382955447600;     BAS[ATNO][  4].d[ 12] =        -0.159756614203;
  BAS[ATNO][  4].a[ 13] =         0.382955447600;     BAS[ATNO][  4].d[ 13] =        -0.203691524410;
  BAS[ATNO][  4].a[ 14] =         0.382955447600;     BAS[ATNO][  4].d[ 14] =        -0.081260094584;
  BAS[ATNO][  4].a[ 15] =         0.115000000000;     BAS[ATNO][  4].d[ 15] =         0.945184093186;
  BAS[ATNO][  4].a[ 16] =         0.115000000000;     BAS[ATNO][  4].d[ 16] =         1.205120612691;
  BAS[ATNO][  4].a[ 17] =         0.115000000000;     BAS[ATNO][  4].d[ 17] =         0.480767254584;
  BAS[ATNO][  4].a[ 18] =         0.037000000000;     BAS[ATNO][  4].d[ 18] =        -0.610078145611;
  BAS[ATNO][  4].a[ 19] =         0.037000000000;     BAS[ATNO][  4].d[ 19] =        -0.777856667213;

  // Basis function   6 L = d
  InitBFNGauss(BAS[ATNO][  5]);
  BAS[ATNO][  5].l  = 2;
  BAS[ATNO][  5].ng = 20;
  BAS[ATNO][  5].a[  0] =        17.000000000000;     BAS[ATNO][  5].d[  0] =         0.000015651637;
  BAS[ATNO][  5].a[  1] =        13.910581694000;     BAS[ATNO][  5].d[  1] =        -0.000039233451;
  BAS[ATNO][  5].a[  2] =         5.248126528800;     BAS[ATNO][  5].d[  2] =         0.000220306733;
  BAS[ATNO][  5].a[  3] =         1.226257592800;     BAS[ATNO][  5].d[  3] =        -0.002131126682;
  BAS[ATNO][  5].a[  4] =         0.539302163500;     BAS[ATNO][  5].d[  4] =         0.000750655932;
  BAS[ATNO][  5].a[  5] =         0.101307303800;     BAS[ATNO][  5].d[  5] =         0.027242194775;
  BAS[ATNO][  5].a[  6] =         0.037124139000;     BAS[ATNO][  5].d[  6] =        -0.013347028996;
  BAS[ATNO][  5].a[  7] =        19.857830136000;     BAS[ATNO][  5].d[  7] =        -0.000028564203;
  BAS[ATNO][  5].a[  8] =        10.061378139000;     BAS[ATNO][  5].d[  8] =         0.000093769941;
  BAS[ATNO][  5].a[  9] =         2.261954647700;     BAS[ATNO][  5].d[  9] =        -0.001617540358;
  BAS[ATNO][  5].a[ 10] =         0.970988450400;     BAS[ATNO][  5].d[ 10] =        -0.002870463251;
  BAS[ATNO][  5].a[ 11] =        19.857830136000;     BAS[ATNO][  5].d[ 11] =         0.001215601377;
  BAS[ATNO][  5].a[ 12] =        10.061378139000;     BAS[ATNO][  5].d[ 12] =        -0.003990549662;
  BAS[ATNO][  5].a[ 13] =         2.261954647700;     BAS[ATNO][  5].d[ 13] =         0.068837359071;
  BAS[ATNO][  5].a[ 14] =         0.970988450400;     BAS[ATNO][  5].d[ 14] =         0.122157761680;
  BAS[ATNO][  5].a[ 15] =        19.857830136000;     BAS[ATNO][  5].d[ 15] =         0.000628997272;
  BAS[ATNO][  5].a[ 16] =        10.061378139000;     BAS[ATNO][  5].d[ 16] =        -0.002064858514;
  BAS[ATNO][  5].a[ 17] =         2.261954647700;     BAS[ATNO][  5].d[ 17] =         0.035619004642;
  BAS[ATNO][  5].a[ 18] =         0.970988450400;     BAS[ATNO][  5].d[ 18] =         0.063208960062;
  BAS[ATNO][  5].a[ 19] =        19.857830136000;     BAS[ATNO][  5].d[ 19] =         0.000667781068;

  // Basis function   7 L = p
  InitBFNGauss(BAS[ATNO][  6]);
  BAS[ATNO][  6].l  = 1;
  BAS[ATNO][  6].ng = 20;
  BAS[ATNO][  6].a[  0] =        11.767103631000;     BAS[ATNO][  6].d[  0] =        -0.053637857102;
  BAS[ATNO][  6].a[  1] =         6.748513308300;     BAS[ATNO][  6].d[  1] =         0.213991650633;
  BAS[ATNO][  6].a[  2] =         1.750267983400;     BAS[ATNO][  6].d[  2] =        -0.441936004980;
  BAS[ATNO][  6].a[  3] =         0.843211661300;     BAS[ATNO][  6].d[  3] =        -0.456402343221;
  BAS[ATNO][  6].a[  4] =        11.767103631000;     BAS[ATNO][  6].d[  4] =        -0.068388886017;
  BAS[ATNO][  6].a[  5] =         6.748513308300;     BAS[ATNO][  6].d[  5] =         0.272841820953;
  BAS[ATNO][  6].a[  6] =         1.750267983400;     BAS[ATNO][  6].d[  6] =        -0.563473499956;
  BAS[ATNO][  6].a[  7] =         0.843211661300;     BAS[ATNO][  6].d[  7] =        -0.581918247948;
  BAS[ATNO][  6].a[  8] =        11.767103631000;     BAS[ATNO][  6].d[  8] =        -0.027282860012;
  BAS[ATNO][  6].a[  9] =         6.748513308300;     BAS[ATNO][  6].d[  9] =         0.108846709460;
  BAS[ATNO][  6].a[ 10] =         1.750267983400;     BAS[ATNO][  6].d[ 10] =        -0.224790452299;
  BAS[ATNO][  6].a[ 11] =         0.843211661300;     BAS[ATNO][  6].d[ 11] =        -0.232148745536;
  BAS[ATNO][  6].a[ 12] =         0.382955447600;     BAS[ATNO][  6].d[ 12] =         1.275119089351;
  BAS[ATNO][  6].a[ 13] =         0.382955447600;     BAS[ATNO][  6].d[ 13] =         1.625791535519;
  BAS[ATNO][  6].a[ 14] =         0.382955447600;     BAS[ATNO][  6].d[ 14] =         0.648588468921;
  BAS[ATNO][  6].a[ 15] =         0.115000000000;     BAS[ATNO][  6].d[ 15] =        -0.762342588809;
  BAS[ATNO][  6].a[ 16] =         0.115000000000;     BAS[ATNO][  6].d[ 16] =        -0.971995587238;
  BAS[ATNO][  6].a[ 17] =         0.115000000000;     BAS[ATNO][  6].d[ 17] =        -0.387765046103;
  BAS[ATNO][  6].a[ 18] =         0.037000000000;     BAS[ATNO][  6].d[ 18] =         0.264700778855;
  BAS[ATNO][  6].a[ 19] =         0.037000000000;     BAS[ATNO][  6].d[ 19] =         0.337496543892;

  // Basis function   8 L = d
  InitBFNGauss(BAS[ATNO][  7]);
  BAS[ATNO][  7].l  = 2;
  BAS[ATNO][  7].ng = 20;
  BAS[ATNO][  7].a[  0] =        17.000000000000;     BAS[ATNO][  7].d[  0] =        -0.000391155365;
  BAS[ATNO][  7].a[  1] =        13.910581694000;     BAS[ATNO][  7].d[  1] =         0.000980496481;
  BAS[ATNO][  7].a[  2] =         5.248126528800;     BAS[ATNO][  7].d[  2] =        -0.005377415869;
  BAS[ATNO][  7].a[  3] =         1.226257592800;     BAS[ATNO][  7].d[  3] =         0.079863253923;
  BAS[ATNO][  7].a[  4] =         0.539302163500;     BAS[ATNO][  7].d[  4] =        -0.188106933449;
  BAS[ATNO][  7].a[  5] =         0.101307303800;     BAS[ATNO][  7].d[  5] =         0.452077352061;
  BAS[ATNO][  7].a[  6] =         0.037124139000;     BAS[ATNO][  7].d[  6] =        -0.527767917453;
  BAS[ATNO][  7].a[  7] =        19.857830136000;     BAS[ATNO][  7].d[  7] =        -0.000044387242;
  BAS[ATNO][  7].a[  8] =        10.061378139000;     BAS[ATNO][  7].d[  8] =         0.000145713469;
  BAS[ATNO][  7].a[  9] =         2.261954647700;     BAS[ATNO][  7].d[  9] =        -0.002513571122;
  BAS[ATNO][  7].a[ 10] =         0.970988450400;     BAS[ATNO][  7].d[ 10] =        -0.004460546224;
  BAS[ATNO][  7].a[ 11] =        19.857830136000;     BAS[ATNO][  7].d[ 11] =         0.005662331214;
  BAS[ATNO][  7].a[ 12] =        10.061378139000;     BAS[ATNO][  7].d[ 12] =        -0.018588177297;
  BAS[ATNO][  7].a[ 13] =         2.261954647700;     BAS[ATNO][  7].d[ 13] =         0.320647816354;
  BAS[ATNO][  7].a[ 14] =         0.970988450400;     BAS[ATNO][  7].d[ 14] =         0.569016883593;
  BAS[ATNO][  7].a[ 15] =        19.857830136000;     BAS[ATNO][  7].d[ 15] =         0.002718389985;
  BAS[ATNO][  7].a[ 16] =        10.061378139000;     BAS[ATNO][  7].d[ 16] =        -0.008923871300;
  BAS[ATNO][  7].a[ 17] =         2.261954647700;     BAS[ATNO][  7].d[ 17] =         0.153937623891;
  BAS[ATNO][  7].a[ 18] =         0.970988450400;     BAS[ATNO][  7].d[ 18] =         0.273175435934;
  BAS[ATNO][  7].a[ 19] =        19.857830136000;     BAS[ATNO][  7].d[ 19] =         0.003086825351;

  // Basis function   9 L = s
  InitBFNGauss(BAS[ATNO][  8]);
  BAS[ATNO][  8].l  = 0;
  BAS[ATNO][  8].ng = 20;
  BAS[ATNO][  8].a[  0] =        17.000000000000;     BAS[ATNO][  8].d[  0] =         0.239892624050;
  BAS[ATNO][  8].a[  1] =        13.910581694000;     BAS[ATNO][  8].d[  1] =        -0.492050880423;
  BAS[ATNO][  8].a[  2] =         5.248126528800;     BAS[ATNO][  8].d[  2] =         1.022557197148;
  BAS[ATNO][  8].a[  3] =         1.226257592800;     BAS[ATNO][  8].d[  3] =        -3.518374858008;
  BAS[ATNO][  8].a[  4] =         0.539302163500;     BAS[ATNO][  8].d[  4] =         3.588546240038;
  BAS[ATNO][  8].a[  5] =         0.101307303800;     BAS[ATNO][  8].d[  5] =        -1.551507054327;
  BAS[ATNO][  8].a[  6] =         0.037124139000;     BAS[ATNO][  8].d[  6] =         0.663050117835;
  BAS[ATNO][  8].a[  7] =        19.857830136000;     BAS[ATNO][  8].d[  7] =         0.007325421226;
  BAS[ATNO][  8].a[  8] =        10.061378139000;     BAS[ATNO][  8].d[  8] =        -0.012184278557;
  BAS[ATNO][  8].a[  9] =         2.261954647700;     BAS[ATNO][  8].d[  9] =         0.047251730828;
  BAS[ATNO][  8].a[ 10] =         0.970988450400;     BAS[ATNO][  8].d[ 10] =         0.035995213885;
  BAS[ATNO][  8].a[ 11] =        19.857830136000;     BAS[ATNO][  8].d[ 11] =         0.051529303318;
  BAS[ATNO][  8].a[ 12] =        10.061378139000;     BAS[ATNO][  8].d[ 12] =        -0.085708024992;
  BAS[ATNO][  8].a[ 13] =         2.261954647700;     BAS[ATNO][  8].d[ 13] =         0.332383448692;
  BAS[ATNO][  8].a[ 14] =         0.970988450400;     BAS[ATNO][  8].d[ 14] =         0.253201588974;
  BAS[ATNO][  8].a[ 15] =        19.857830136000;     BAS[ATNO][  8].d[ 15] =         0.006300214856;
  BAS[ATNO][  8].a[ 16] =        10.061378139000;     BAS[ATNO][  8].d[ 16] =        -0.010479066038;
  BAS[ATNO][  8].a[ 17] =         2.261954647700;     BAS[ATNO][  8].d[ 17] =         0.040638762928;
  BAS[ATNO][  8].a[ 18] =         0.970988450400;     BAS[ATNO][  8].d[ 18] =         0.030957616535;
  BAS[ATNO][  8].a[ 19] =        19.857830136000;     BAS[ATNO][  8].d[ 19] =         0.026022458927;

  // Basis function  10 L = s
  InitBFNGauss(BAS[ATNO][  9]);
  BAS[ATNO][  9].l  = 0;
  BAS[ATNO][  9].ng = 20;
  BAS[ATNO][  9].a[  0] =        17.000000000000;     BAS[ATNO][  9].d[  0] =        -1.717112337240;
  BAS[ATNO][  9].a[  1] =        13.910581694000;     BAS[ATNO][  9].d[  1] =         3.522020073230;
  BAS[ATNO][  9].a[  2] =         5.248126528800;     BAS[ATNO][  9].d[  2] =        -3.292358845195;
  BAS[ATNO][  9].a[  3] =         1.226257592800;     BAS[ATNO][  9].d[  3] =         2.121943130495;
  BAS[ATNO][  9].a[  4] =         0.539302163500;     BAS[ATNO][  9].d[  4] =        -1.263475048318;
  BAS[ATNO][  9].a[  5] =         0.101307303800;     BAS[ATNO][  9].d[  5] =         0.359861602778;
  BAS[ATNO][  9].a[  6] =         0.037124139000;     BAS[ATNO][  9].d[  6] =        -0.153795571724;
  BAS[ATNO][  9].a[  7] =        19.857830136000;     BAS[ATNO][  9].d[  7] =        -0.000007473832;
  BAS[ATNO][  9].a[  8] =        10.061378139000;     BAS[ATNO][  9].d[  8] =         0.000012431129;
  BAS[ATNO][  9].a[  9] =         2.261954647700;     BAS[ATNO][  9].d[  9] =        -0.000048209039;
  BAS[ATNO][  9].a[ 10] =         0.970988450400;     BAS[ATNO][  9].d[ 10] =        -0.000036724468;
  BAS[ATNO][  9].a[ 11] =        19.857830136000;     BAS[ATNO][  9].d[ 11] =        -0.000066930399;
  BAS[ATNO][  9].a[ 12] =        10.061378139000;     BAS[ATNO][  9].d[ 12] =         0.000111324468;
  BAS[ATNO][  9].a[ 13] =         2.261954647700;     BAS[ATNO][  9].d[ 13] =        -0.000431726325;
  BAS[ATNO][  9].a[ 14] =         0.970988450400;     BAS[ATNO][  9].d[ 14] =        -0.000328878565;
  BAS[ATNO][  9].a[ 15] =        19.857830136000;     BAS[ATNO][  9].d[ 15] =        -0.000013051995;
  BAS[ATNO][  9].a[ 16] =        10.061378139000;     BAS[ATNO][  9].d[ 16] =         0.000021709214;
  BAS[ATNO][  9].a[ 17] =         2.261954647700;     BAS[ATNO][  9].d[ 17] =        -0.000084190290;
  BAS[ATNO][  9].a[ 18] =         0.970988450400;     BAS[ATNO][  9].d[ 18] =        -0.000064134106;
  BAS[ATNO][  9].a[ 19] =        19.857830136000;     BAS[ATNO][  9].d[ 19] =        -0.000034346345;

  // Basis function  11 L = s
  InitBFNGauss(BAS[ATNO][ 10]);
  BAS[ATNO][ 10].l  = 0;
  BAS[ATNO][ 10].ng = 20;
  BAS[ATNO][ 10].a[  0] =        17.000000000000;     BAS[ATNO][ 10].d[  0] =        -1.910622424064;
  BAS[ATNO][ 10].a[  1] =        13.910581694000;     BAS[ATNO][ 10].d[  1] =         3.918934355065;
  BAS[ATNO][ 10].a[  2] =         5.248126528800;     BAS[ATNO][ 10].d[  2] =        -1.540488068607;
  BAS[ATNO][ 10].a[  3] =         1.226257592800;     BAS[ATNO][ 10].d[  3] =         0.698339980702;
  BAS[ATNO][ 10].a[  4] =         0.539302163500;     BAS[ATNO][ 10].d[  4] =        -0.397144594515;
  BAS[ATNO][ 10].a[  5] =         0.101307303800;     BAS[ATNO][ 10].d[  5] =         0.112001818969;
  BAS[ATNO][ 10].a[  6] =         0.037124139000;     BAS[ATNO][ 10].d[  6] =        -0.047986335067;
  BAS[ATNO][ 10].a[  7] =        19.857830136000;     BAS[ATNO][ 10].d[  7] =        -0.000000475178;
  BAS[ATNO][ 10].a[  8] =        10.061378139000;     BAS[ATNO][ 10].d[  8] =         0.000000790358;
  BAS[ATNO][ 10].a[  9] =         2.261954647700;     BAS[ATNO][ 10].d[  9] =        -0.000003065080;
  BAS[ATNO][ 10].a[ 10] =         0.970988450400;     BAS[ATNO][ 10].d[ 10] =        -0.000002334903;
  BAS[ATNO][ 10].a[ 11] =        19.857830136000;     BAS[ATNO][ 10].d[ 11] =        -0.000004232657;
  BAS[ATNO][ 10].a[ 12] =        10.061378139000;     BAS[ATNO][ 10].d[ 12] =         0.000007040123;
  BAS[ATNO][ 10].a[ 13] =         2.261954647700;     BAS[ATNO][ 10].d[ 13] =        -0.000027302232;
  BAS[ATNO][ 10].a[ 14] =         0.970988450400;     BAS[ATNO][ 10].d[ 14] =        -0.000020798173;
  BAS[ATNO][ 10].a[ 15] =        19.857830136000;     BAS[ATNO][ 10].d[ 15] =        -0.000000819355;
  BAS[ATNO][ 10].a[ 16] =        10.061378139000;     BAS[ATNO][ 10].d[ 16] =         0.000001362823;
  BAS[ATNO][ 10].a[ 17] =         2.261954647700;     BAS[ATNO][ 10].d[ 17] =        -0.000005285150;
  BAS[ATNO][ 10].a[ 18] =         0.970988450400;     BAS[ATNO][ 10].d[ 18] =        -0.000004026098;
  BAS[ATNO][ 10].a[ 19] =        19.857830136000;     BAS[ATNO][ 10].d[ 19] =        -0.000002171373;

-------------------------------------------
RADIAL EXPECTATION VALUES <R**-3> TO <R**3>
-------------------------------------------
   0 :     0.000000     1.325694     1.095895     1.005648     1.114229     1.360373
   1 :     1.447969     1.141106     1.010381     1.104788     1.362349     1.875485
   2 :     1.445888     1.139753     1.009654     1.105949     1.365816     1.884187
   3 :     1.445232     1.139326     1.009425     1.106315     1.366912     1.886944
   4 :     0.837481     0.737544     0.783476     1.537560     2.854899    31.926596
   5 :     0.847486     0.744803     0.788286     1.522819     2.788478    30.606896
   6 :     0.000000     0.177687     0.359359     3.367129    13.108100    58.128363
   7 :     0.000000     0.102929     0.249574     5.331811    32.972427   221.688727
   8 :     0.846526     0.744081     0.787820     1.524175     2.794458    30.743301
   9 :     0.844850     0.742891     0.787048     1.526425     2.804341    30.932131
  10 :     0.839470     0.739065     0.784556     1.533746     2.836635    31.551826
  11 :     0.025743     0.056224     0.209088     5.494316    33.422416   221.132668
  12 :     0.025054     0.055249     0.207518     5.524836    33.743926   223.906821
  13 :     0.024842     0.054948     0.207033     5.534300    33.843754   224.769049
  14 :     0.091695     0.130129     0.301119     4.426918    24.988956   168.373639
  15 :     0.092414     0.130951     0.302384     4.400258    24.699689   165.835842
  16 :     0.092636     0.131203     0.302774     4.392005    24.609968   165.047649
  17 :     0.132237     0.160219     0.330071     3.641167    14.454708   302.744872
  18 :     0.132796     0.160631     0.330363     3.640332    14.451613   302.710515
  19 :     0.140674     0.166579     0.334582     3.624401    14.370344   300.916395
  20 :     0.133437     0.161143     0.330729     3.639259    14.447545   302.653468
  21 :     0.135544     0.162831     0.331936     3.635657    14.433613   302.449737
  22 :     0.583941     0.507449     0.600809     2.386071     8.246530    40.200412
  23 :     0.585991     0.508954     0.601840     2.381050     8.210820    39.955353
  24 :     0.586638     0.509429     0.602166     2.379473     8.199617    39.878562
  25 :     0.909622     0.697589     0.698935     2.045799     5.578658    92.867994
  26 :     0.921383     0.697324     0.698805     2.044933     5.563073    93.588535
  27 :     0.922418     0.698001     0.699211     2.043756     5.557258    93.456752
  28 :     0.920918     0.698013     0.698987     2.047469     5.585415    94.078082
  29 :     0.925690     0.700140     0.700495     2.040038     5.538896    93.040789
  30 :     0.012579     0.773507     0.742532     1.997528     6.132498    29.052341
  31 :     0.000000     5.971805     2.154762     0.600241     0.639939     1.735195
  32 :     0.000000    59.361459     6.137443     0.228905     0.100386     0.178805
Making the total density                ... o.k.
o.k.
Initializing the integrals              ... done
Making exponents                        ... done
Making rho(0)                           ... done (         0.000455127)
Integral calculation                    ... Two index integrals                     ... done
Solving the equation system             ... done
atomic density will be written to file MOR10_ed09_atom45.adf

-------
TIMINGS
-------

Total SCF time: 0 days 0 hours 0 min 0 sec 

Total time                  ....       0.720 sec
Sum of individual times     ....       0.325 sec  ( 45.2%)

Fock matrix formation       ....       0.299 sec  ( 41.5%)
Diagonalization             ....       0.016 sec  (  2.3%)
Density matrix formation    ....       0.001 sec  (  0.1%)
Population analysis         ....       0.000 sec  (  0.0%)
Initial guess               ....       0.000 sec  (  0.1%)
Orbital Transformation      ....       0.000 sec  (  0.0%)
Orbital Orthonormalization  ....       0.000 sec  (  0.0%)
DIIS solution               ....       0.009 sec  (  1.3%)

-------------------------   --------------------
FINAL SINGLE POINT ENERGY      -109.685678772321
-------------------------   --------------------


                            ***************************************
                            *     ORCA property calculations      *
                            ***************************************

                                    ---------------------
                                    Active property flags
                                    ---------------------
   (+) Dipole Moment


------------------------------------------------------------------------------
                       ORCA ELECTRIC PROPERTIES CALCULATION
------------------------------------------------------------------------------

Dipole Moment Calculation                       ... on
Quadrupole Moment Calculation                   ... off
Polarizability Calculation                      ... off
GBWName                                         ... MOR10_ed09_atom45.gbw
Electron density file                           ... MOR10_ed09_atom45.scfp
The origin for moment calculation is the CENTER OF MASS  = ( 0.000000,  0.000000  0.000000)

-------------
DIPOLE MOMENT
-------------
                                X             Y             Z
Electronic contribution:      0.00000       0.00000       0.00000
Nuclear contribution   :      0.00000       0.00000       0.00000
                        -----------------------------------------
Total Dipole Moment    :      0.00000       0.00000       0.00000
                        -----------------------------------------
Magnitude (a.u.)       :      0.00000
Magnitude (Debye)      :      0.00000



--------------------
Rotational spectrum 
--------------------
 
Rotational constants in cm-1:     0.000000     0.000000     0.000000 
Rotational constants in MHz :     0.000000     0.000000     0.000000 

 Dipole components along the rotational axes: 
x,y,z [a.u.] :     0.000000     0.000000     0.000000 
x,y,z [Debye]:     0.000000     0.000000     0.000000 

 

Timings for individual modules:

Sum of individual times         ...        3.393 sec (=   0.057 min)
GTO integral calculation        ...        1.812 sec (=   0.030 min)  53.4 %
SCF iterations                  ...        1.581 sec (=   0.026 min)  46.6 %
                             ****ORCA TERMINATED NORMALLY****
TOTAL RUN TIME: 0 days 0 hours 0 minutes 4 seconds 630 msec
