
                                 *****************
                                 * O   R   C   A *
                                 *****************

           --- An Ab Initio, DFT and Semiempirical electronic structure package ---

                  #######################################################
                  #                        -***-                        #
                  #          Department of theory and spectroscopy      #
                  #               Directorship: Frank Neese             #
                  #        Max Planck Institute fuer Kohlenforschung    #
                  #                Kaiser Wilhelm Platz 1               #
                  #                 D-45470 Muelheim/Ruhr               #
                  #                      Germany                        #
                  #                                                     #
                  #                  All rights reserved                #
                  #                        -***-                        #
                  #######################################################


                         Program Version 4.2.0 -  RELEASE  -


 With contributions from (in alphabetic order):
   Daniel Aravena         : Magnetic Suceptibility
   Michael Atanasov       : Ab Initio Ligand Field Theory (pilot matlab implementation)
   Alexander A. Auer      : GIAO ZORA, VPT2
   Ute Becker             : Parallelization
   Giovanni Bistoni       : ED, misc. LED, open-shell LED, HFLED
   Martin Brehm           : Molecular dynamics
   Dmytro Bykov           : SCF Hessian
   Vijay G. Chilkuri      : MRCI spin determinant printing, contributions to CSF-ICE
   Dipayan Datta          : RHF DLPNO-CCSD density
   Achintya Kumar Dutta   : EOM-CC, STEOM-CC
   Dmitry Ganyushin       : Spin-Orbit,Spin-Spin,Magnetic field MRCI
   Miquel Garcia          : C-PCM Hessian, Gaussian charge scheme
   Yang Guo               : DLPNO-NEVPT2, CIM, IAO-localization
   Andreas Hansen         : Spin unrestricted coupled pair/coupled cluster methods
   Benjamin Helmich-Paris : CASSCF linear response (MC-RPA)
   Lee Huntington         : MR-EOM, pCC
   Robert Izsak           : Overlap fitted RIJCOSX, COSX-SCS-MP3, EOM
   Christian Kollmar      : KDIIS, OOCD, Brueckner-CCSD(T), CCSD density
   Simone Kossmann        : Meta GGA functionals, TD-DFT gradient, OOMP2, MP2 Hessian
   Martin Krupicka        : AUTO-CI
   Lucas Lang             : DCDCAS
   Dagmar Lenk            : GEPOL surface, SMD
   Dimitrios Liakos       : Extrapolation schemes; Compound Job, initial MDCI parallelization
   Dimitrios Manganas     : Further ROCIS development; embedding schemes
   Dimitrios Pantazis     : SARC Basis sets
   Taras Petrenko         : DFT Hessian,TD-DFT gradient, ASA, ECA, R-Raman, ABS, FL, XAS/XES, NRVS
   Peter Pinski           : DLPNO-MP2, DLPNO-MP2 Gradient
   Christoph Reimann      : Effective Core Potentials
   Marius Retegan         : Local ZFS, SOC
   Christoph Riplinger    : Optimizer, TS searches, QM/MM, DLPNO-CCSD(T), (RO)-DLPNO pert. Triples
   Tobias Risthaus        : Range-separated hybrids, TD-DFT gradient, RPA, STAB
   Michael Roemelt        : Original ROCIS implementation
   Masaaki Saitow         : Open-shell DLPNO-CCSD energy and density
   Barbara Sandhoefer     : DKH picture change effects
   Avijit Sen             : IP-ROCIS
   Kantharuban Sivalingam : CASSCF convergence, NEVPT2, FIC-MRCI
   Bernardo de Souza      : ESD, SOC TD-DFT
   Georgi Stoychev        : AutoAux, RI-MP2 NMR
   Willem Van den Heuvel  : Paramagnetic NMR
   Boris Wezisla          : Elementary symmetry handling
   Frank Wennmohs         : Technical directorship


 We gratefully acknowledge several colleagues who have allowed us to
 interface, adapt or use parts of their codes:
   Stefan Grimme, W. Hujo, H. Kruse,             : VdW corrections, initial TS optimization,
                  C. Bannwarth                     DFT functionals, gCP, sTDA/sTD-DF
   Ed Valeev, F. Pavosevic, A. Kumar             : LibInt (2-el integral package), F12 methods
   Garnet Chan, S. Sharma, J. Yang, R. Olivares  : DMRG
   Ulf Ekstrom                                   : XCFun DFT Library
   Mihaly Kallay                                 : mrcc  (arbitrary order and MRCC methods)
   Andreas Klamt, Michael Diedenhofen            : otool_cosmo (COSMO solvation model)
   Jiri Pittner, Ondrej Demel                    : Mk-CCSD
   Frank Weinhold                                : gennbo (NPA and NBO analysis)
   Christopher J. Cramer and Donald G. Truhlar   : smd solvation model
   Lars Goerigk                                  : TD-DFT with DH, B97 family of functionals
   V. Asgeirsson, H. Jonsson                     : NEB implementation
   FAccTs GmbH                                   : IRC, NEB, NEB-TS, Multilevel, MM, QM/MM, CI optimization
   S Lehtola, MJT Oliveira, MAL Marques          : LibXC Library


 Your calculation uses the libint2 library for the computation of 2-el integrals
 For citations please refer to: http://libint.valeyev.net

 Your ORCA version has been built with support for libXC version: 4.2.3
 For citations please refer to: https://tddft.org/programs/libxc/

 This ORCA versions uses:
   CBLAS   interface :  Fast vector & matrix operations
   LAPACKE interface :  Fast linear algebra routines
   SCALAPACK package :  Parallel linear algebra routines


Your calculation utilizes the DFT-NL dispersion correction.
Cite in your paper:
Vydrov, O. A.; Van Voorhis, T. J. Chem. Phys. 2010, 133, 244103
Hujo, W.; Grimme, S. J. Chem. Theory Comput. 2011, 7, 3866 
   

----- Orbital basis set information -----
Your calculation utilizes the basis: def2-TZVPPD
   F. Weigend and R. Ahlrichs, Phys. Chem. Chem. Phys. 7, 3297 (2005).
   D. Rappoport and F. Furche, J. Chem. Phys. 133 134105 (2010).

----- AuxJK basis set information -----
Your calculation utilizes the auxiliary basis: def2/JK
   H-Ba, Hf-Rn: F. Weigend, J. Comput. Chem. 29, 167 (2008).

================================================================================
                                        WARNINGS
                       Please study these warnings very carefully!
================================================================================


INFO   : the flag for use of LIBINT has been found!

================================================================================
                                       INPUT FILE
================================================================================
NAME = MOR23_phseh.in
|  1> #
|  2> # MOR23_phseh wB97X-V/Def2-TZVPPD
|  3> #
|  4> ! wb97x-v def2-tzvppd def2/jk grid4 nofinalgrid
|  5> 
|  6> *xyz 0 1
|  7> C        0.099641    0.015172    0.000002 
|  8> C        0.811159    1.219454    0.000004 
|  9> C        2.205438    1.200000    0.000001 
| 10> C        2.898295   -0.010923    0.000001 
| 11> C        2.184022   -1.209573    0.000001 
| 12> C        0.790170   -1.202154    0.000003 
| 13> Se      -1.821201   -0.043502   -0.000002 
| 14> H       -1.984560    1.419830   -0.000002 
| 15> H        0.283594    2.168662    0.000009 
| 16> H        2.749671    2.140448   -0.000003 
| 17> H        3.983980   -0.020380    0.000003 
| 18> H        2.711288   -2.159513   -0.000002 
| 19> H        0.244496   -2.141840    0.000007 
| 20> *
| 21> 
| 22> %maxcore 5000
| 23> 
| 24> %pal
| 25> nprocs = 24
| 26> end
| 27> 
| 28> 
| 29>                          ****END OF INPUT****
================================================================================

                       ****************************
                       * Single Point Calculation *
                       ****************************

---------------------------------
CARTESIAN COORDINATES (ANGSTROEM)
---------------------------------
  C      0.099641    0.015172    0.000002
  C      0.811159    1.219454    0.000004
  C      2.205438    1.200000    0.000001
  C      2.898295   -0.010923    0.000001
  C      2.184022   -1.209573    0.000001
  C      0.790170   -1.202154    0.000003
  Se    -1.821201   -0.043502   -0.000002
  H     -1.984560    1.419830   -0.000002
  H      0.283594    2.168662    0.000009
  H      2.749671    2.140448   -0.000003
  H      3.983980   -0.020380    0.000003
  H      2.711288   -2.159513   -0.000002
  H      0.244496   -2.141840    0.000007

----------------------------
CARTESIAN COORDINATES (A.U.)
----------------------------
  NO LB      ZA    FRAG     MASS         X           Y           Z
   0 C     6.0000    0    12.011    0.188294    0.028671    0.000004
   1 C     6.0000    0    12.011    1.532868    2.304434    0.000008
   2 C     6.0000    0    12.011    4.167674    2.267671    0.000002
   3 C     6.0000    0    12.011    5.476984   -0.020641    0.000002
   4 C     6.0000    0    12.011    4.127203   -2.285762    0.000002
   5 C     6.0000    0    12.011    1.493205   -2.271742    0.000006
   6 Se   34.0000    0    78.960   -3.441571   -0.082207   -0.000004
   7 H     1.0000    0     1.008   -3.750275    2.683090   -0.000004
   8 H     1.0000    0     1.008    0.535915    4.098177    0.000017
   9 H     1.0000    0     1.008    5.196125    4.044861   -0.000006
  10 H     1.0000    0     1.008    7.528631   -0.038513    0.000006
  11 H     1.0000    0     1.008    5.123592   -4.080888   -0.000004
  12 H     1.0000    0     1.008    0.462030   -4.047491    0.000013

--------------------------------
INTERNAL COORDINATES (ANGSTROEM)
--------------------------------
 C      0   0   0     0.000000000000     0.00000000     0.00000000
 C      1   0   0     1.398768386779     0.00000000     0.00000000
 C      2   1   0     1.394414711614   119.77620744     0.00000000
 C      3   2   1     1.395129146129   120.57638934     0.00000000
 C      4   3   2     1.395330692355   119.43236668     0.00000000
 C      5   4   3     1.393871744268   120.48566165     0.00000000
 Se     1   2   3     1.921737918462   122.32519984   180.00027818
 H      7   1   2     1.472422054000    94.62022631     0.00000000
 H      2   1   3     1.085965310917   120.35932807   180.00006886
 H      3   2   1     1.086568911302   119.25839146   179.99966238
 H      4   3   2     1.085726187433   120.27607831   180.00026539
 H      5   4   3     1.086460049134   120.17682735   179.99981699
 H      6   5   4     1.086632363262   119.83869653   180.00024439

---------------------------
INTERNAL COORDINATES (A.U.)
---------------------------
 C      0   0   0     0.000000000000     0.00000000     0.00000000
 C      1   0   0     2.643289175799     0.00000000     0.00000000
 C      2   1   0     2.635061922062   119.77620744     0.00000000
 C      3   2   1     2.636412007635   120.57638934     0.00000000
 C      4   3   2     2.636792874806   119.43236668     0.00000000
 C      5   4   3     2.634035862478   120.48566165     0.00000000
 Se     1   2   3     3.631558367066   122.32519984   180.00027818
 H      7   1   2     2.782474435605    94.62022631     0.00000000
 H      2   1   3     2.052177028571   120.35932807   180.00006886
 H      3   2   1     2.053317667995   119.25839146   179.99966238
 H      4   3   2     2.051725150675   120.27607831   180.00026539
 H      5   4   3     2.053111948311   120.17682735   179.99981699
 H      6   5   4     2.053437574821   119.83869653   180.00024439

---------------------
BASIS SET INFORMATION
---------------------
There are 3 groups of distinct atoms

 Group   1 Type C   : 12s6p3d1f contracted to 6s3p3d1f pattern {621111/411/111/1}
 Group   2 Type Se  : 18s14p9d1f contracted to 7s6p5d1f pattern {8421111/641111/51111/1}
 Group   3 Type H   : 5s3p1d contracted to 3s3p1d pattern {311/111/1}

Atom   0C    basis set group =>   1
Atom   1C    basis set group =>   1
Atom   2C    basis set group =>   1
Atom   3C    basis set group =>   1
Atom   4C    basis set group =>   1
Atom   5C    basis set group =>   1
Atom   6Se   basis set group =>   2
Atom   7H    basis set group =>   3
Atom   8H    basis set group =>   3
Atom   9H    basis set group =>   3
Atom  10H    basis set group =>   3
Atom  11H    basis set group =>   3
Atom  12H    basis set group =>   3
----------------------------------
AUXILIARY/JK BASIS SET INFORMATION
----------------------------------
There are 3 groups of distinct atoms

 Group   1 Type C   : 14s10p6d2f1g contracted to 10s8p5d1f1g pattern {5111111111/31111111/21111/2/1}
 Group   2 Type Se  : 20s14p13d10f7g3h contracted to 17s13p12d9f6g3h pattern {41111111111111111/2111111111111/211111111111/211111111/211111/111}
 Group   3 Type H   : 4s2p2d contracted to 2s2p2d pattern {31/11/11}

Atom   0C    basis set group =>   1
Atom   1C    basis set group =>   1
Atom   2C    basis set group =>   1
Atom   3C    basis set group =>   1
Atom   4C    basis set group =>   1
Atom   5C    basis set group =>   1
Atom   6Se   basis set group =>   2
Atom   7H    basis set group =>   3
Atom   8H    basis set group =>   3
Atom   9H    basis set group =>   3
Atom  10H    basis set group =>   3
Atom  11H    basis set group =>   3
Atom  12H    basis set group =>   3


           ************************************************************
           *        Program running with 24 parallel MPI-processes    *
           *              working on a common directory               *
           ************************************************************
------------------------------------------------------------------------------
                           ORCA GTO INTEGRAL CALCULATION
------------------------------------------------------------------------------

                         BASIS SET STATISTICS AND STARTUP INFO

 # of primitive gaussian shells          ...  228
 # of primitive gaussian functions       ...  538
 # of contracted shells                  ...  139
 # of contracted basis functions         ...  381
 Highest angular momentum                ...    3
 Maximum contraction depth               ...    8
 Integral package used                   ... LIBINT
 Integral threshhold            Thresh   ...  1.000e-10
 Primitive cut-off              TCut     ...  1.000e-11


------------------------------ INTEGRAL EVALUATION ----------------------------


 * One electron integrals 
 Pre-screening matrix                    ... done
 Shell pair data                         ... done (   0.002 sec)



           ************************************************************
           *        Program running with 24 parallel MPI-processes    *
           *              working on a common directory               *
           ************************************************************
-------------------------------------------------------------------------------
                                 ORCA SCF
-------------------------------------------------------------------------------

------------
SCF SETTINGS
------------
Hamiltonian:
 Density Functional     Method          .... DFT(GTOs)
 Exchange Functional    Exchange        .... WB97X-V
 Correlation Functional Correlation     .... WB97X-V
 Gradients option       PostSCFGGA      .... off
 Hybrid DFT is turned on
   Fraction HF Exchange ScalHFX         ....  0.167000
   Scaling of DF-GGA-X  ScalDFX         ....  0.000000
   Scaling of DF-GGA-C  ScalDFC         ....  1.000000
   Scaling of DF-LDA-C  ScalLDAC        ....  1.000000
   Perturbative correction              ....  0.000000
   Density functional embedding theory  .... OFF
 Long-range corrected/Screened/Range-Separated Hybrid DFT is turned on
   Amount of maximum screened exact exchange              ....  0.833000
   Range separation parameter mu (erf(mu*r12)/r12)        ....  0.300000
   NL short-range parameter             ....  6.000000
   NL long-range parameter              ....  0.010000


General Settings:
 Integral files         IntName         .... MOR23_phseh
 Hartree-Fock type      HFTyp           .... RHF
 Total Charge           Charge          ....    0
 Multiplicity           Mult            ....    1
 Number of Electrons    NEL             ....   76
 Basis Dimension        Dim             ....  381
 Nuclear Repulsion      ENuc            ....    439.5965001411 Eh

Convergence Acceleration:
 DIIS                   CNVDIIS         .... on
   Start iteration      DIISMaxIt       ....    12
   Startup error        DIISStart       ....  0.200000
   # of expansion vecs  DIISMaxEq       ....     5
   Bias factor          DIISBfac        ....   1.050
   Max. coefficient     DIISMaxC        ....  10.000
 Newton-Raphson         CNVNR           .... off
 SOSCF                  CNVSOSCF        .... on
   Start iteration      SOSCFMaxIt      ....   150
   Startup grad/error   SOSCFStart      ....  0.003300
 Level Shifting         CNVShift        .... on
   Level shift para.    LevelShift      ....    0.2500
   Turn off err/grad.   ShiftErr        ....    0.0010
 Zerner damping         CNVZerner       .... off
 Static damping         CNVDamp         .... on
   Fraction old density DampFac         ....    0.7000
   Max. Damping (<1)    DampMax         ....    0.9800
   Min. Damping (>=0)   DampMin         ....    0.0000
   Turn off err/grad.   DampErr         ....    0.1000
 Fernandez-Rico         CNVRico         .... off

SCF Procedure:
 Maximum # iterations   MaxIter         ....   125
 SCF integral mode      SCFMode         .... Direct
   Integral package                     .... LIBINT
 Reset frequency        DirectResetFreq ....    20
 Integral Threshold     Thresh          ....  1.000e-10 Eh
 Primitive CutOff       TCut            ....  1.000e-11 Eh

Convergence Tolerance:
 Convergence Check Mode ConvCheckMode   .... Total+1el-Energy
 Convergence forced     ConvForced      .... 0
 Energy Change          TolE            ....  1.000e-06 Eh
 1-El. energy change                    ....  1.000e-03 Eh
 Orbital Gradient       TolG            ....  5.000e-05
 Orbital Rotation angle TolX            ....  5.000e-05
 DIIS Error             TolErr          ....  1.000e-06


Diagonalization of the overlap matrix:
Smallest eigenvalue                        ... 6.009e-07
Time for diagonalization                   ...    0.024 sec
Threshold for overlap eigenvalues          ... 1.000e-08
Number of eigenvalues below threshold      ... 0
Time for construction of square roots      ...    0.019 sec
Total time needed                          ...    0.044 sec

-------------------
DFT GRID GENERATION
-------------------

General Integration Accuracy     IntAcc      ...  4.670
Radial Grid Type                 RadialGrid  ... Gauss-Chebyshev
Angular Grid (max. acc.)         AngularGrid ... Lebedev-302
Angular grid pruning method      GridPruning ... 3 (G Style)
Weight generation scheme         WeightScheme... Becke
Basis function cutoff            BFCut       ...    1.0000e-10
Integration weight cutoff        WCut        ...    1.0000e-14
Grids for H and He will be reduced by one unit

# of grid points (after initial pruning)     ...  67276 (   0.0 sec)
# of grid points (after weights+screening)   ...  62490 (   0.0 sec)
nearest neighbour list constructed           ...    0.0 sec
Grid point re-assignment to atoms done       ...    0.0 sec
Grid point division into batches done        ...    0.2 sec
Reduced shell lists constructed in    0.3 sec

Total number of grid points                  ...    62490
Total number of batches                      ...      983
Average number of points per batch           ...       63
Average number of grid points per atom       ...     4807
Average number of shells per batch           ...   104.07 (74.87%)
Average number of basis functions per batch  ...   298.17 (78.26%)
Average number of large shells per batch     ...    87.67 (84.24%)
Average number of large basis fcns per batch ...   249.52 (83.69%)
Maximum spatial batch extension              ...   3.87,  3.90, 15.36 au
Average spatial batch extension              ...   0.07,  0.08,  0.10 au

Time for grid setup =    0.311 sec

------------------------------
INITIAL GUESS: MODEL POTENTIAL
------------------------------
Loading Hartree-Fock densities                     ... done
Calculating cut-offs                               ... done
Setting up the integral package                    ... done
Initializing the effective Hamiltonian             ... done
Starting the Coulomb interaction                   ... done (   0.0 sec)
Reading the grid                                   ... done
Mapping shells                                     ... done
Starting the XC term evaluation                    ... done (   0.1 sec)
  promolecular density results
     # of electrons  =     75.996998702
     EX              =    -87.731845688
     EC              =     -3.893790053
     EX+EC           =    -91.625635741
Transforming the Hamiltonian                       ... done (   0.0 sec)
Diagonalizing the Hamiltonian                      ... done (   0.0 sec)
Back transforming the eigenvectors                 ... done (   0.0 sec)
Now organizing SCF variables                       ... done
                      ------------------
                      INITIAL GUESS DONE (   0.5 sec)
                      ------------------
--------------
SCF ITERATIONS
--------------
ITER       Energy         Delta-E        Max-DP      RMS-DP      [F,P]     Damp
               ***  Starting incremental Fock matrix formation  ***
  0  -2633.6279357777   0.000000000000 0.49011107  0.00615049  0.5453163 0.7000
  1  -2633.7356717588  -0.107735981127 0.23798470  0.00382538  0.2686128 0.7000
                               ***Turning on DIIS***
  2  -2633.7884073011  -0.052735542316 0.15741034  0.00227477  0.1255382 0.7000
  3  -2633.8198424046  -0.031435103423 0.30446026  0.00412096  0.0864320 0.0000
  4  -2633.8906903070  -0.070847902446 0.02025110  0.00038879  0.0074447 0.0000
  5  -2633.8911199120  -0.000429605001 0.00897943  0.00018336  0.0040802 0.0000
                      *** Initiating the SOSCF procedure ***
                           *** Shutting down DIIS ***
                      *** Re-Reading the Fockian *** 
                      *** Removing any level shift *** 
ITER      Energy       Delta-E        Grad      Rot      Max-DP    RMS-DP
  6  -2633.89121661  -0.0000966996  0.001621  0.001621  0.003717  0.000075
               *** Restarting incremental Fock matrix formation ***
  7  -2633.89124375  -0.0000271433  0.000719  0.001832  0.004931  0.000067
  8  -2633.89125152  -0.0000077680  0.000242  0.001460  0.007005  0.000088
  9  -2633.89125295  -0.0000014309  0.000158  0.000330  0.003750  0.000038
 10  -2633.89125349  -0.0000005389  0.000041  0.000097  0.007285  0.000067
 11  -2633.89125351  -0.0000000197  0.000039  0.000039  0.004703  0.000051
                 **** Energy Check signals convergence ****
              ***Rediagonalizing the Fockian in SOSCF/NRSCF***

               *****************************************************
               *                     SUCCESS                       *
               *           SCF CONVERGED AFTER  12 CYCLES          *
               *****************************************************


Setting up the DFT-NL grid :

General Integration Accuracy     IntAcc      ...  4.340
Radial Grid Type                 RadialGrid  ... Gauss-Chebyshev
Angular Grid (max. acc.)         AngularGrid ... Lebedev-110
Angular grid pruning method      GridPruning ... 3 (G Style)
Weight generation scheme         WeightScheme... Becke
Basis function cutoff            BFCut       ...    1.0000e-10
Integration weight cutoff        WCut        ...    1.0000e-14
Grids for H and He will be reduced by one unit

# of grid points (after initial pruning)     ...  17650 (   0.0 sec)
# of grid points (after weights+screening)   ...  16568 (   0.0 sec)
nearest neighbour list constructed           ...    0.0 sec
Grid point re-assignment to atoms done       ...    0.0 sec
Grid point division into batches done        ...    0.0 sec
Reduced shell lists constructed in    0.0 sec

Total number of grid points                  ...    16568
Total number of batches                      ...      265
Average number of points per batch           ...       62
Average number of grid points per atom       ...     1274
Average number of shells per batch           ...   104.85 (75.43%)
Average number of basis functions per batch  ...   302.69 (79.45%)
Average number of large shells per batch     ...    89.46 (85.33%)
Average number of large basis fcns per batch ...   256.08 (84.60%)
Maximum spatial batch extension              ...   3.79,  4.26, 18.55 au
Average spatial batch extension              ...   0.11,  0.10,  0.22 au

Final grid set up in    0.0 sec

-------------------------------------------------------------------------------
                         DFT-NL dispersion correction                          
-------------------------------------------------------------------------------

SC Energy -2633.891253521 
NL    Energy 0.299685291 
SC+NL Energy -2633.591568230 
NL done in    0.1 sec
-------------------------------------------------------------------------------

----------------
TOTAL SCF ENERGY
----------------

Total Energy       :        -2633.59156823 Eh          -71663.66988 eV

Components:
Nuclear Repulsion  :          439.59650014 Eh           11962.02891 eV
Electronic Energy  :        -3073.18806837 Eh          -83625.69879 eV
One Electron Energy:        -4529.22470336 Eh         -123246.46991 eV
Two Electron Energy:         1456.03663499 Eh           39620.77112 eV

Virial components:
Potential Energy   :        -5262.71043006 Eh         -143205.63124 eV
Kinetic Energy     :         2629.11886183 Eh           71541.96135 eV
Virial Ratio       :            2.00170122


DFT components:
N(Alpha)           :       38.000031929137 electrons
N(Beta)            :       38.000031929137 electrons
N(Total)           :       76.000063858275 electrons
E(X)               :      -88.186355060590 Eh       
E(C)               :       -3.908690094540 Eh       
NL Energy, E(C,NL) :        0.299685290632 Eh       
E(XC)              :      -91.795359864498 Eh       
DFET-embed. en.    :        0.000000000000 Eh       

---------------
SCF CONVERGENCE
---------------

  Last Energy change         ...   -8.1718e-09  Tolerance :   1.0000e-06
  Last MAX-Density change    ...    5.0754e-03  Tolerance :   1.0000e-05
  Last RMS-Density change    ...    5.6534e-05  Tolerance :   1.0000e-06
  Last Orbital Gradient      ...    4.2535e-06  Tolerance :   5.0000e-05
  Last Orbital Rotation      ...    1.9204e-05  Tolerance :   5.0000e-05

             **** THE GBW FILE WAS UPDATED (MOR23_phseh.gbw) ****
             **** DENSITY FILE WAS UPDATED (MOR23_phseh.scfp) ****
             **** ENERGY FILE WAS UPDATED (MOR23_phseh.en.tmp) ****
             **** THE GBW FILE WAS UPDATED (MOR23_phseh.gbw) ****
             **** DENSITY FILE WAS UPDATED (MOR23_phseh.scfp) ****
----------------
ORBITAL ENERGIES
----------------

  NO   OCC          E(Eh)            E(eV) 
   0   2.0000    -453.708708    -12346.0416 
   1   2.0000     -58.113228     -1581.3413 
   2   2.0000     -52.156569     -1419.2524 
   3   2.0000     -52.155170     -1419.2143 
   4   2.0000     -52.152785     -1419.1494 
   5   2.0000     -10.320619      -280.8383 
   6   2.0000     -10.288272      -279.9581 
   7   2.0000     -10.287712      -279.9429 
   8   2.0000     -10.287085      -279.9258 
   9   2.0000     -10.286901      -279.9208 
  10   2.0000     -10.282557      -279.8026 
  11   2.0000      -7.927374      -215.7148 
  12   2.0000      -5.873963      -159.8387 
  13   2.0000      -5.869276      -159.7111 
  14   2.0000      -5.861311      -159.4944 
  15   2.0000      -2.233640       -60.7804 
  16   2.0000      -2.233147       -60.7670 
  17   2.0000      -2.226279       -60.5801 
  18   2.0000      -2.222622       -60.4806 
  19   2.0000      -2.221642       -60.4540 
  20   2.0000      -1.006069       -27.3765 
  21   2.0000      -0.909290       -24.7430 
  22   2.0000      -0.890175       -24.2229 
  23   2.0000      -0.822800       -22.3895 
  24   2.0000      -0.740774       -20.1575 
  25   2.0000      -0.718358       -19.5475 
  26   2.0000      -0.639673       -17.4064 
  27   2.0000      -0.579867       -15.7790 
  28   2.0000      -0.573444       -15.6042 
  29   2.0000      -0.542549       -14.7635 
  30   2.0000      -0.520824       -14.1723 
  31   2.0000      -0.502392       -13.6708 
  32   2.0000      -0.476207       -12.9583 
  33   2.0000      -0.458173       -12.4675 
  34   2.0000      -0.425474       -11.5777 
  35   2.0000      -0.394626       -10.7383 
  36   2.0000      -0.358480        -9.7547 
  37   2.0000      -0.310671        -8.4538 
  38   0.0000       0.045387         1.2350 
  39   0.0000       0.050815         1.3827 
  40   0.0000       0.052803         1.4368 
  41   0.0000       0.054710         1.4887 
  42   0.0000       0.061007         1.6601 
  43   0.0000       0.073199         1.9919 
  44   0.0000       0.081555         2.2192 
  45   0.0000       0.088511         2.4085 
  46   0.0000       0.093802         2.5525 
  47   0.0000       0.109584         2.9819 
  48   0.0000       0.123638         3.3644 
  49   0.0000       0.125596         3.4176 
  50   0.0000       0.140497         3.8231 
  51   0.0000       0.156004         4.2451 
  52   0.0000       0.164016         4.4631 
  53   0.0000       0.174249         4.7416 
  54   0.0000       0.187366         5.0985 
  55   0.0000       0.199022         5.4157 
  56   0.0000       0.199033         5.4160 
  57   0.0000       0.211020         5.7422 
  58   0.0000       0.212285         5.7766 
  59   0.0000       0.219095         5.9619 
  60   0.0000       0.224521         6.1095 
  61   0.0000       0.234393         6.3781 
  62   0.0000       0.237736         6.4691 
  63   0.0000       0.250618         6.8197 
  64   0.0000       0.255837         6.9617 
  65   0.0000       0.261197         7.1075 
  66   0.0000       0.261479         7.1152 
  67   0.0000       0.272226         7.4077 
  68   0.0000       0.278538         7.5794 
  69   0.0000       0.285603         7.7717 
  70   0.0000       0.297559         8.0970 
  71   0.0000       0.301092         8.1931 
  72   0.0000       0.312323         8.4987 
  73   0.0000       0.314346         8.5538 
  74   0.0000       0.318254         8.6601 
  75   0.0000       0.324381         8.8269 
  76   0.0000       0.342333         9.3154 
  77   0.0000       0.344080         9.3629 
  78   0.0000       0.347077         9.4444 
  79   0.0000       0.361082         9.8255 
  80   0.0000       0.365313         9.9407 
  81   0.0000       0.370698        10.0872 
  82   0.0000       0.373134        10.1535 
  83   0.0000       0.377777        10.2798 
  84   0.0000       0.384253        10.4561 
  85   0.0000       0.390581        10.6282 
  86   0.0000       0.396136        10.7794 
  87   0.0000       0.414334        11.2746 
  88   0.0000       0.418452        11.3867 
  89   0.0000       0.420394        11.4395 
  90   0.0000       0.423033        11.5113 
  91   0.0000       0.429988        11.7006 
  92   0.0000       0.434332        11.8188 
  93   0.0000       0.446620        12.1531 
  94   0.0000       0.446814        12.1584 
  95   0.0000       0.447036        12.1645 
  96   0.0000       0.452624        12.3165 
  97   0.0000       0.456650        12.4261 
  98   0.0000       0.468279        12.7425 
  99   0.0000       0.474110        12.9012 
 100   0.0000       0.488905        13.3038 
 101   0.0000       0.491684        13.3794 
 102   0.0000       0.501289        13.6408 
 103   0.0000       0.503566        13.7027 
 104   0.0000       0.511755        13.9256 
 105   0.0000       0.516817        14.0633 
 106   0.0000       0.523708        14.2508 
 107   0.0000       0.545119        14.8334 
 108   0.0000       0.548880        14.9358 
 109   0.0000       0.552897        15.0451 
 110   0.0000       0.561246        15.2723 
 111   0.0000       0.561621        15.2825 
 112   0.0000       0.568489        15.4694 
 113   0.0000       0.585171        15.9233 
 114   0.0000       0.587783        15.9944 
 115   0.0000       0.599393        16.3103 
 116   0.0000       0.617977        16.8160 
 117   0.0000       0.629370        17.1260 
 118   0.0000       0.648309        17.6414 
 119   0.0000       0.651144        17.7185 
 120   0.0000       0.658098        17.9078 
 121   0.0000       0.666541        18.1375 
 122   0.0000       0.674920        18.3655 
 123   0.0000       0.698698        19.0125 
 124   0.0000       0.699526        19.0351 
 125   0.0000       0.717103        19.5134 
 126   0.0000       0.722220        19.6526 
 127   0.0000       0.727365        19.7926 
 128   0.0000       0.728279        19.8175 
 129   0.0000       0.737662        20.0728 
 130   0.0000       0.741277        20.1712 
 131   0.0000       0.747448        20.3391 
 132   0.0000       0.758947        20.6520 
 133   0.0000       0.763065        20.7641 
 134   0.0000       0.778160        21.1748 
 135   0.0000       0.781225        21.2582 
 136   0.0000       0.783587        21.3225 
 137   0.0000       0.797175        21.6922 
 138   0.0000       0.801419        21.8077 
 139   0.0000       0.806472        21.9452 
 140   0.0000       0.817801        22.2535 
 141   0.0000       0.826303        22.4848 
 142   0.0000       0.836200        22.7542 
 143   0.0000       0.841450        22.8970 
 144   0.0000       0.841781        22.9060 
 145   0.0000       0.843679        22.9577 
 146   0.0000       0.848825        23.0977 
 147   0.0000       0.872612        23.7450 
 148   0.0000       0.882897        24.0248 
 149   0.0000       0.889108        24.1939 
 150   0.0000       0.911251        24.7964 
 151   0.0000       0.919382        25.0177 
 152   0.0000       0.966778        26.3074 
 153   0.0000       0.986547        26.8453 
 154   0.0000       0.990263        26.9464 
 155   0.0000       0.992273        27.0011 
 156   0.0000       0.997001        27.1298 
 157   0.0000       1.003040        27.2941 
 158   0.0000       1.008020        27.4296 
 159   0.0000       1.039961        28.2988 
 160   0.0000       1.043813        28.4036 
 161   0.0000       1.059468        28.8296 
 162   0.0000       1.078840        29.3567 
 163   0.0000       1.096802        29.8455 
 164   0.0000       1.125986        30.6396 
 165   0.0000       1.131614        30.7928 
 166   0.0000       1.158764        31.5316 
 167   0.0000       1.164874        31.6978 
 168   0.0000       1.195972        32.5440 
 169   0.0000       1.215641        33.0793 
 170   0.0000       1.222468        33.2650 
 171   0.0000       1.249787        34.0084 
 172   0.0000       1.275445        34.7066 
 173   0.0000       1.298808        35.3424 
 174   0.0000       1.317965        35.8637 
 175   0.0000       1.325925        36.0803 
 176   0.0000       1.331396        36.2291 
 177   0.0000       1.334459        36.3125 
 178   0.0000       1.356183        36.9036 
 179   0.0000       1.359028        36.9810 
 180   0.0000       1.387785        37.7635 
 181   0.0000       1.404752        38.2253 
 182   0.0000       1.418534        38.6003 
 183   0.0000       1.423417        38.7331 
 184   0.0000       1.474700        40.1286 
 185   0.0000       1.484945        40.4074 
 186   0.0000       1.508803        41.0566 
 187   0.0000       1.526888        41.5487 
 188   0.0000       1.535704        41.7886 
 189   0.0000       1.542149        41.9640 
 190   0.0000       1.556873        42.3647 
 191   0.0000       1.572811        42.7984 
 192   0.0000       1.584853        43.1260 
 193   0.0000       1.587394        43.1952 
 194   0.0000       1.609889        43.8073 
 195   0.0000       1.611592        43.8536 
 196   0.0000       1.616430        43.9853 
 197   0.0000       1.636291        44.5257 
 198   0.0000       1.662790        45.2468 
 199   0.0000       1.682920        45.7946 
 200   0.0000       1.700725        46.2791 
 201   0.0000       1.702554        46.3288 
 202   0.0000       1.717753        46.7424 
 203   0.0000       1.733585        47.1732 
 204   0.0000       1.770283        48.1719 
 205   0.0000       1.798856        48.9494 
 206   0.0000       1.804555        49.1044 
 207   0.0000       1.829273        49.7771 
 208   0.0000       1.833944        49.9042 
 209   0.0000       1.837219        49.9933 
 210   0.0000       1.852401        50.4064 
 211   0.0000       1.865303        50.7575 
 212   0.0000       1.869706        50.8773 
 213   0.0000       1.886020        51.3212 
 214   0.0000       1.932036        52.5734 
 215   0.0000       1.934949        52.6526 
 216   0.0000       1.952893        53.1409 
 217   0.0000       1.978944        53.8498 
 218   0.0000       1.995009        54.2869 
 219   0.0000       2.005888        54.5830 
 220   0.0000       2.022871        55.0451 
 221   0.0000       2.034681        55.3665 
 222   0.0000       2.058666        56.0191 
 223   0.0000       2.076954        56.5168 
 224   0.0000       2.108683        57.3802 
 225   0.0000       2.163425        58.8698 
 226   0.0000       2.208830        60.1053 
 227   0.0000       2.220130        60.4128 
 228   0.0000       2.259343        61.4798 
 229   0.0000       2.266767        61.6819 
 230   0.0000       2.311282        62.8932 
 231   0.0000       2.312699        62.9317 
 232   0.0000       2.328623        63.3650 
 233   0.0000       2.393434        65.1287 
 234   0.0000       2.482547        67.5535 
 235   0.0000       2.485781        67.6415 
 236   0.0000       2.492339        67.8200 
 237   0.0000       2.513148        68.3862 
 238   0.0000       2.544723        69.2454 
 239   0.0000       2.605401        70.8966 
 240   0.0000       2.632148        71.6244 
 241   0.0000       2.659643        72.3726 
 242   0.0000       2.717343        73.9427 
 243   0.0000       2.785871        75.8074 
 244   0.0000       2.797210        76.1160 
 245   0.0000       2.806346        76.3645 
 246   0.0000       2.841444        77.3196 
 247   0.0000       2.847412        77.4820 
 248   0.0000       2.876836        78.2827 
 249   0.0000       2.889649        78.6313 
 250   0.0000       2.913848        79.2898 
 251   0.0000       2.935227        79.8716 
 252   0.0000       2.949125        80.2498 
 253   0.0000       2.985906        81.2506 
 254   0.0000       3.005177        81.7750 
 255   0.0000       3.045425        82.8702 
 256   0.0000       3.053753        83.0968 
 257   0.0000       3.130254        85.1785 
 258   0.0000       3.133983        85.2800 
 259   0.0000       3.164798        86.1185 
 260   0.0000       3.171484        86.3005 
 261   0.0000       3.179601        86.5213 
 262   0.0000       3.214057        87.4589 
 263   0.0000       3.227664        87.8292 
 264   0.0000       3.239150        88.1417 
 265   0.0000       3.258822        88.6771 
 266   0.0000       3.271062        89.0101 
 267   0.0000       3.271154        89.0126 
 268   0.0000       3.279889        89.2503 
 269   0.0000       3.287320        89.4525 
 270   0.0000       3.297282        89.7236 
 271   0.0000       3.310630        90.0868 
 272   0.0000       3.360229        91.4365 
 273   0.0000       3.364790        91.5606 
 274   0.0000       3.366243        91.6001 
 275   0.0000       3.418925        93.0337 
 276   0.0000       3.438772        93.5737 
 277   0.0000       3.449974        93.8786 
 278   0.0000       3.465203        94.2930 
 279   0.0000       3.471682        94.4693 
 280   0.0000       3.500817        95.2621 
 281   0.0000       3.503729        95.3413 
 282   0.0000       3.509088        95.4871 
 283   0.0000       3.510949        95.5378 
 284   0.0000       3.524106        95.8958 
 285   0.0000       3.541997        96.3826 
 286   0.0000       3.563638        96.9715 
 287   0.0000       3.573720        97.2459 
 288   0.0000       3.608369        98.1887 
 289   0.0000       3.614746        98.3622 
 290   0.0000       3.625814        98.6634 
 291   0.0000       3.629615        98.7668 
 292   0.0000       3.652476        99.3889 
 293   0.0000       3.678379       100.0938 
 294   0.0000       3.707695       100.8915 
 295   0.0000       3.721536       101.2681 
 296   0.0000       3.737330       101.6979 
 297   0.0000       3.778755       102.8251 
 298   0.0000       3.799694       103.3949 
 299   0.0000       3.820404       103.9585 
 300   0.0000       3.842605       104.5626 
 301   0.0000       3.863801       105.1394 
 302   0.0000       3.865548       105.1869 
 303   0.0000       3.868629       105.2707 
 304   0.0000       3.901189       106.1567 
 305   0.0000       3.902895       106.2032 
 306   0.0000       3.920008       106.6688 
 307   0.0000       3.931370       106.9780 
 308   0.0000       3.935446       107.0889 
 309   0.0000       3.971763       108.0772 
 310   0.0000       3.976316       108.2011 
 311   0.0000       4.012650       109.1898 
 312   0.0000       4.017867       109.3317 
 313   0.0000       4.028819       109.6297 
 314   0.0000       4.060174       110.4829 
 315   0.0000       4.060829       110.5008 
 316   0.0000       4.072570       110.8203 
 317   0.0000       4.127470       112.3142 
 318   0.0000       4.139083       112.6302 
 319   0.0000       4.177033       113.6628 
 320   0.0000       4.196495       114.1924 
 321   0.0000       4.211224       114.5932 
 322   0.0000       4.236675       115.2858 
 323   0.0000       4.278256       116.4173 
 324   0.0000       4.313932       117.3881 
 325   0.0000       4.318347       117.5082 
 326   0.0000       4.336907       118.0132 
 327   0.0000       4.366769       118.8258 
 328   0.0000       4.370086       118.9161 
 329   0.0000       4.375479       119.0628 
 330   0.0000       4.380413       119.1971 
 331   0.0000       4.400039       119.7311 
 332   0.0000       4.412176       120.0614 
 333   0.0000       4.429393       120.5299 
 334   0.0000       4.475575       121.7866 
 335   0.0000       4.486123       122.0736 
 336   0.0000       4.506583       122.6303 
 337   0.0000       4.517885       122.9379 
 338   0.0000       4.537595       123.4742 
 339   0.0000       4.631515       126.0299 
 340   0.0000       4.688325       127.5758 
 341   0.0000       4.697321       127.8206 
 342   0.0000       4.749000       129.2269 
 343   0.0000       4.768820       129.7662 
 344   0.0000       4.794304       130.4597 
 345   0.0000       4.804542       130.7382 
 346   0.0000       4.843710       131.8040 
 347   0.0000       4.875003       132.6556 
 348   0.0000       4.895069       133.2016 
 349   0.0000       4.898016       133.2818 
 350   0.0000       4.913813       133.7117 
 351   0.0000       4.920712       133.8994 
 352   0.0000       4.980654       135.5305 
 353   0.0000       5.007444       136.2595 
 354   0.0000       5.080858       138.2572 
 355   0.0000       5.102219       138.8384 
 356   0.0000       5.156132       140.3055 
 357   0.0000       5.222349       142.1073 
 358   0.0000       5.343068       145.3923 
 359   0.0000       5.378406       146.3539 
 360   0.0000       5.435159       147.8982 
 361   0.0000       5.447454       148.2328 
 362   0.0000       5.476450       149.0218 
 363   0.0000       5.554556       151.1472 
 364   0.0000       5.599433       152.3683 
 365   0.0000       5.606360       152.5568 
 366   0.0000       5.786074       157.4471 
 367   0.0000       5.799614       157.8155 
 368   0.0000       5.818290       158.3237 
 369   0.0000       5.908749       160.7852 
 370   0.0000       6.049966       164.6279 
 371   0.0000       6.157864       167.5640 
 372   0.0000       6.309608       171.6932 
 373   0.0000       6.748411       183.6336 
 374   0.0000       7.534860       205.0340 
 375   0.0000      22.987011       625.5084 
 376   0.0000      23.227005       632.0389 
 377   0.0000      23.317340       634.4971 
 378   0.0000      23.376804       636.1152 
 379   0.0000      23.448097       638.0551 
 380   0.0000      24.151686       657.2008 

                    ********************************
                    * MULLIKEN POPULATION ANALYSIS *
                    ********************************

-----------------------
MULLIKEN ATOMIC CHARGES
-----------------------
   0 C :    0.298583
   1 C :    0.213070
   2 C :   -0.061892
   3 C :   -0.067383
   4 C :   -0.011333
   5 C :   -0.090916
   6 Se:   -0.084871
   7 H :    0.009853
   8 H :   -0.108227
   9 H :   -0.006535
  10 H :   -0.004045
  11 H :   -0.006543
  12 H :   -0.079761
Sum of atomic charges:    0.0000000

--------------------------------
MULLIKEN REDUCED ORBITAL CHARGES
--------------------------------
  0 C s       :     3.328483  s :     3.328483
      pz      :     0.960014  p :     2.152016
      px      :     0.577041
      py      :     0.614961
      dz2     :    -0.009659  d :     0.212325
      dxz     :     0.046667
      dyz     :     0.041837
      dx2y2   :     0.025287
      dxy     :     0.108194
      f0      :     0.001812  f :     0.008594
      f+1     :     0.000722
      f-1     :     0.000566
      f+2     :     0.000669
      f-2     :     0.001090
      f+3     :     0.001103
      f-3     :     0.002632
  1 C s       :     3.204285  s :     3.204285
      pz      :     0.947104  p :     2.543453
      px      :     0.865655
      py      :     0.730694
      dz2     :     0.002295  d :     0.031572
      dxz     :     0.029129
      dyz     :     0.005860
      dx2y2   :     0.000491
      dxy     :    -0.006204
      f0      :     0.001483  f :     0.007621
      f+1     :     0.000603
      f-1     :     0.000669
      f+2     :     0.000893
      f-2     :     0.000540
      f+3     :     0.001014
      f-3     :     0.002420
  2 C s       :     3.390971  s :     3.390971
      pz      :     0.926741  p :     2.584253
      px      :     0.824854
      py      :     0.832658
      dz2     :     0.000640  d :     0.079150
      dxz     :     0.031290
      dyz     :     0.014261
      dx2y2   :     0.014617
      dxy     :     0.018341
      f0      :     0.001458  f :     0.007518
      f+1     :     0.000586
      f-1     :     0.000644
      f+2     :     0.000950
      f-2     :     0.000513
      f+3     :     0.000967
      f-3     :     0.002401
  3 C s       :     3.372273  s :     3.372273
      pz      :     0.951685  p :     2.632300
      px      :     0.885782
      py      :     0.794833
      dz2     :     0.001572  d :     0.055340
      dxz     :     0.007926
      dyz     :     0.035875
      dx2y2   :     0.028611
      dxy     :    -0.018643
      f0      :     0.001447  f :     0.007469
      f+1     :     0.000683
      f-1     :     0.000559
      f+2     :     0.000292
      f-2     :     0.001072
      f+3     :     0.000958
      f-3     :     0.002459
  4 C s       :     3.355707  s :     3.355707
      pz      :     0.924104  p :     2.575982
      px      :     0.842004
      py      :     0.809873
      dz2     :     0.000533  d :     0.072114
      dxz     :     0.029185
      dyz     :     0.012780
      dx2y2   :     0.008170
      dxy     :     0.021447
      f0      :     0.001459  f :     0.007530
      f+1     :     0.000582
      f-1     :     0.000645
      f+2     :     0.000930
      f-2     :     0.000536
      f+3     :     0.000964
      f-3     :     0.002414
  5 C s       :     3.275004  s :     3.275004
      pz      :     0.954047  p :     2.704481
      px      :     0.890085
      py      :     0.860349
      dz2     :    -0.000686  d :     0.103717
      dxz     :     0.035317
      dyz     :     0.009675
      dx2y2   :     0.042116
      dxy     :     0.017295
      f0      :     0.001497  f :     0.007714
      f+1     :     0.000613
      f-1     :     0.000674
      f+2     :     0.000925
      f-2     :     0.000517
      f+3     :     0.001020
      f-3     :     0.002469
  6 Ses       :     7.962835  s :     7.962835
      pz      :     5.879058  p :    16.013278
      px      :     5.059239
      py      :     5.074982
      dz2     :     2.012826  d :    10.095976
      dxz     :     2.021086
      dyz     :     2.001496
      dx2y2   :     2.048446
      dxy     :     2.012122
      f0      :     0.001290  f :     0.012782
      f+1     :     0.002045
      f-1     :     0.001982
      f+2     :     0.001291
      f-2     :     0.000071
      f+3     :     0.002258
      f-3     :     0.003845
  7 H s       :     0.943055  s :     0.943055
      pz      :     0.033067  p :     0.045359
      px      :     0.003296
      py      :     0.008996
      dz2     :     0.000177  d :     0.001733
      dxz     :     0.000017
      dyz     :     0.000667
      dx2y2   :     0.000388
      dxy     :     0.000484
  8 H s       :     1.078147  s :     1.078147
      pz      :     0.013839  p :     0.028024
      px      :     0.018462
      py      :    -0.004277
      dz2     :     0.000096  d :     0.002056
      dxz     :     0.000174
      dyz     :     0.000534
      dx2y2   :     0.000807
      dxy     :     0.000444
  9 H s       :     0.988781  s :     0.988781
      pz      :     0.016404  p :     0.015845
      px      :     0.000412
      py      :    -0.000972
      dz2     :     0.000077  d :     0.001909
      dxz     :     0.000179
      dyz     :     0.000498
      dx2y2   :     0.000745
      dxy     :     0.000411
 10 H s       :     0.983642  s :     0.983642
      pz      :     0.017773  p :     0.018511
      px      :    -0.002101
      py      :     0.002839
      dz2     :     0.000076  d :     0.001891
      dxz     :     0.000670
      dyz     :     0.000013
      dx2y2   :     0.000230
      dxy     :     0.000903
 11 H s       :     0.988884  s :     0.988884
      pz      :     0.016304  p :     0.015750
      px      :     0.001146
      py      :    -0.001700
      dz2     :     0.000077  d :     0.001909
      dxz     :     0.000168
      dyz     :     0.000507
      dx2y2   :     0.000724
      dxy     :     0.000433
 12 H s       :     1.069263  s :     1.069263
      pz      :     0.012612  p :     0.008491
      px      :    -0.000677
      py      :    -0.003444
      dz2     :     0.000093  d :     0.002007
      dxz     :     0.000185
      dyz     :     0.000521
      dx2y2   :     0.000793
      dxy     :     0.000414


                     *******************************
                     * LOEWDIN POPULATION ANALYSIS *
                     *******************************

----------------------
LOEWDIN ATOMIC CHARGES
----------------------
   0 C :   -0.567269
   1 C :   -0.045409
   2 C :    0.007908
   3 C :    0.004522
   4 C :    0.007473
   5 C :   -0.057704
   6 Se:    0.910363
   7 H :   -0.249965
   8 H :   -0.010364
   9 H :    0.003033
  10 H :   -0.000849
  11 H :    0.003161
  12 H :   -0.004900

-------------------------------
LOEWDIN REDUCED ORBITAL CHARGES
-------------------------------
  0 C s       :     2.701148  s :     2.701148
      pz      :     0.783651  p :     2.695336
      px      :     0.910084
      py      :     1.001601
      dz2     :     0.093463  d :     1.121889
      dxz     :     0.223049
      dyz     :     0.144280
      dx2y2   :     0.381770
      dxy     :     0.279327
      f0      :     0.003832  f :     0.048896
      f+1     :     0.003510
      f-1     :     0.004268
      f+2     :     0.004019
      f-2     :     0.007327
      f+3     :     0.008597
      f-3     :     0.017342
  1 C s       :     2.647169  s :     2.647169
      pz      :     0.748069  p :     2.621609
      px      :     0.950350
      py      :     0.923190
      dz2     :     0.066561  d :     0.732592
      dxz     :     0.118199
      dyz     :     0.062957
      dx2y2   :     0.221998
      dxy     :     0.262877
      f0      :     0.002610  f :     0.044038
      f+1     :     0.003924
      f-1     :     0.003579
      f+2     :     0.005897
      f-2     :     0.003686
      f+3     :     0.008984
      f-3     :     0.015359
  2 C s       :     2.648358  s :     2.648358
      pz      :     0.724936  p :     2.603364
      px      :     0.946347
      py      :     0.932081
      dz2     :     0.059670  d :     0.696711
      dxz     :     0.116178
      dyz     :     0.063412
      dx2y2   :     0.202164
      dxy     :     0.255287
      f0      :     0.002569  f :     0.043659
      f+1     :     0.003735
      f-1     :     0.003437
      f+2     :     0.006425
      f-2     :     0.003379
      f+3     :     0.008738
      f-3     :     0.015376
  3 C s       :     2.648477  s :     2.648477
      pz      :     0.740201  p :     2.617749
      px      :     0.921947
      py      :     0.955601
      dz2     :     0.059164  d :     0.685920
      dxz     :     0.034985
      dyz     :     0.134832
      dx2y2   :     0.281075
      dxy     :     0.175865
      f0      :     0.002556  f :     0.043331
      f+1     :     0.003332
      f-1     :     0.003871
      f+2     :     0.001991
      f-2     :     0.007281
      f+3     :     0.008767
      f-3     :     0.015533
  4 C s       :     2.648089  s :     2.648089
      pz      :     0.724418  p :     2.603353
      px      :     0.947427
      py      :     0.931507
      dz2     :     0.059765  d :     0.697372
      dxz     :     0.117677
      dyz     :     0.061649
      dx2y2   :     0.205819
      dxy     :     0.252463
      f0      :     0.002571  f :     0.043713
      f+1     :     0.003745
      f-1     :     0.003427
      f+2     :     0.006251
      f-2     :     0.003548
      f+3     :     0.008736
      f-3     :     0.015435
  5 C s       :     2.649747  s :     2.649747
      pz      :     0.747872  p :     2.627864
      px      :     0.954206
      py      :     0.925785
      dz2     :     0.065575  d :     0.736042
      dxz     :     0.120201
      dyz     :     0.064596
      dx2y2   :     0.220161
      dxy     :     0.265509
      f0      :     0.002632  f :     0.044051
      f+1     :     0.003920
      f-1     :     0.003593
      f+2     :     0.006065
      f-2     :     0.003526
      f+3     :     0.008945
      f-3     :     0.015371
  6 Ses       :     7.150347  s :     7.150347
      pz      :     5.573007  p :    15.613821
      px      :     4.974922
      py      :     5.065893
      dz2     :     2.041956  d :    10.294718
      dxz     :     2.064182
      dyz     :     2.001964
      dx2y2   :     2.115866
      dxy     :     2.070750
      f0      :     0.002041  f :     0.030751
      f+1     :     0.003925
      f-1     :     0.003225
      f+2     :     0.003075
      f-2     :     0.000035
      f+3     :     0.007561
      f-3     :     0.010888
  7 H s       :     0.830392  s :     0.830392
      pz      :     0.130537  p :     0.400810
      px      :     0.067140
      py      :     0.203132
      dz2     :     0.002174  d :     0.018763
      dxz     :     0.000069
      dyz     :     0.006077
      dx2y2   :     0.007052
      dxy     :     0.003390
  8 H s       :     0.702548  s :     0.702548
      pz      :     0.073826  p :     0.278668
      px      :     0.094007
      py      :     0.110835
      dz2     :     0.002720  d :     0.029148
      dxz     :     0.002071
      dyz     :     0.006578
      dx2y2   :     0.009127
      dxy     :     0.008651
  9 H s       :     0.707722  s :     0.707722
      pz      :     0.073303  p :     0.260531
      px      :     0.079422
      py      :     0.107805
      dz2     :     0.002691  d :     0.028714
      dxz     :     0.002075
      dyz     :     0.006114
      dx2y2   :     0.009102
      dxy     :     0.008732
 10 H s       :     0.709621  s :     0.709621
      pz      :     0.075953  p :     0.262375
      px      :     0.121575
      py      :     0.064847
      dz2     :     0.002690  d :     0.028854
      dxz     :     0.008413
      dyz     :     0.000024
      dx2y2   :     0.008527
      dxy     :     0.009201
 11 H s       :     0.707727  s :     0.707727
      pz      :     0.073123  p :     0.260399
      px      :     0.078539
      py      :     0.108737
      dz2     :     0.002692  d :     0.028712
      dxz     :     0.001949
      dyz     :     0.006235
      dx2y2   :     0.009080
      dxy     :     0.008755
 12 H s       :     0.703273  s :     0.703273
      pz      :     0.073387  p :     0.272603
      px      :     0.088344
      py      :     0.110872
      dz2     :     0.002728  d :     0.029024
      dxz     :     0.002219
      dyz     :     0.006415
      dx2y2   :     0.009080
      dxy     :     0.008582


                      *****************************
                      * MAYER POPULATION ANALYSIS *
                      *****************************

  NA   - Mulliken gross atomic population
  ZA   - Total nuclear charge
  QA   - Mulliken gross atomic charge
  VA   - Mayer's total valence
  BVA  - Mayer's bonded valence
  FA   - Mayer's free valence

  ATOM       NA         ZA         QA         VA         BVA        FA
  0 C      5.7014     6.0000     0.2986     2.7902     2.7902    -0.0000
  1 C      5.7869     6.0000     0.2131     3.2269     3.2269     0.0000
  2 C      6.0619     6.0000    -0.0619     3.4895     3.4895     0.0000
  3 C      6.0674     6.0000    -0.0674     3.3350     3.3350     0.0000
  4 C      6.0113     6.0000    -0.0113     3.4543     3.4543     0.0000
  5 C      6.0909     6.0000    -0.0909     3.6784     3.6784    -0.0000
  6 Se    34.0849    34.0000    -0.0849     2.1031     2.1031    -0.0000
  7 H      0.9901     1.0000     0.0099     1.0222     1.0222     0.0000
  8 H      1.1082     1.0000    -0.1082     0.9440     0.9440     0.0000
  9 H      1.0065     1.0000    -0.0065     0.9437     0.9437    -0.0000
 10 H      1.0040     1.0000    -0.0040     0.9439     0.9439     0.0000
 11 H      1.0065     1.0000    -0.0065     0.9477     0.9477     0.0000
 12 H      1.0798     1.0000    -0.0798     0.9272     0.9272    -0.0000

  Mayer bond orders larger than 0.100000
B(  0-C ,  1-C ) :   1.0098 B(  0-C ,  5-C ) :   1.1827 B(  0-C ,  6-Se) :   1.0920 
B(  0-C ,  8-H ) :  -0.2072 B(  0-C , 12-H ) :  -0.1927 B(  1-C ,  2-C ) :   1.2411 
B(  1-C ,  6-Se) :  -0.1181 B(  1-C ,  8-H ) :   1.1471 B(  2-C ,  3-C ) :   1.2445 
B(  2-C ,  9-H ) :   1.0977 B(  3-C ,  4-C ) :   1.2373 B(  3-C , 10-H ) :   1.0948 
B(  4-C ,  5-C ) :   1.2638 B(  4-C , 11-H ) :   1.1020 B(  5-C , 12-H ) :   1.1393 
B(  6-Se,  7-H ) :   1.0099 

-------
TIMINGS
-------

Total SCF time: 0 days 0 hours 1 min 5 sec 

Total time                  ....      65.160 sec
Sum of individual times     ....      64.729 sec  ( 99.3%)

Fock matrix formation       ....      63.723 sec  ( 97.8%)
  XC integration            ....       1.549 sec  (  2.4% of F)
    Basis function eval.    ....       0.246 sec  ( 15.9% of XC)
    Density eval.           ....       0.282 sec  ( 18.2% of XC)
    XC-Functional eval.     ....       0.056 sec  (  3.6% of XC)
    XC-Potential eval.      ....       0.446 sec  ( 28.8% of XC)
Diagonalization             ....       0.191 sec  (  0.3%)
Density matrix formation    ....       0.028 sec  (  0.0%)
Population analysis         ....       0.024 sec  (  0.0%)
Initial guess               ....       0.203 sec  (  0.3%)
Orbital Transformation      ....       0.000 sec  (  0.0%)
Orbital Orthonormalization  ....       0.000 sec  (  0.0%)
DIIS solution               ....       0.087 sec  (  0.1%)
SOSCF solution              ....       0.126 sec  (  0.2%)
Grid generation             ....       0.347 sec  (  0.5%)

-------------------------   --------------------
FINAL SINGLE POINT ENERGY     -2633.591568229926
-------------------------   --------------------


                            ***************************************
                            *     ORCA property calculations      *
                            ***************************************

                                    ---------------------
                                    Active property flags
                                    ---------------------
   (+) Dipole Moment


------------------------------------------------------------------------------
                       ORCA ELECTRIC PROPERTIES CALCULATION
------------------------------------------------------------------------------

Dipole Moment Calculation                       ... on
Quadrupole Moment Calculation                   ... off
Polarizability Calculation                      ... off
GBWName                                         ... MOR23_phseh.gbw
Electron density file                           ... MOR23_phseh.scfp
The origin for moment calculation is the CENTER OF MASS  = (-0.334289, -0.022529 -0.000000)

-------------
DIPOLE MOMENT
-------------
                                X             Y             Z
Electronic contribution:    -25.02683      -1.49853      -0.00003
Nuclear contribution   :     25.40592       1.71219       0.00003
                        -----------------------------------------
Total Dipole Moment    :      0.37909       0.21367       0.00000
                        -----------------------------------------
Magnitude (a.u.)       :      0.43516
Magnitude (Debye)      :      1.10608



--------------------
Rotational spectrum 
--------------------
 
Rotational constants in cm-1:     0.185431     0.032154     0.027403 
Rotational constants in MHz :  5559.086830   963.964760   821.511792 

 Dipole components along the rotational axes: 
x,y,z [a.u.] :     0.380703    -0.210779     0.000000 
x,y,z [Debye]:     0.967670    -0.535759     0.000001 

 

Timings for individual modules:

Sum of individual times         ...       66.415 sec (=   1.107 min)
GTO integral calculation        ...        0.864 sec (=   0.014 min)   1.3 %
SCF iterations                  ...       65.551 sec (=   1.093 min)  98.7 %
                             ****ORCA TERMINATED NORMALLY****
TOTAL RUN TIME: 0 days 0 hours 1 minutes 6 seconds 960 msec
