
                                 *****************
                                 * O   R   C   A *
                                 *****************

           --- An Ab Initio, DFT and Semiempirical electronic structure package ---

                  #######################################################
                  #                        -***-                        #
                  #          Department of theory and spectroscopy      #
                  #               Directorship: Frank Neese             #
                  #        Max Planck Institute fuer Kohlenforschung    #
                  #                Kaiser Wilhelm Platz 1               #
                  #                 D-45470 Muelheim/Ruhr               #
                  #                      Germany                        #
                  #                                                     #
                  #                  All rights reserved                #
                  #                        -***-                        #
                  #######################################################


                         Program Version 4.2.0 -  RELEASE  -


 With contributions from (in alphabetic order):
   Daniel Aravena         : Magnetic Suceptibility
   Michael Atanasov       : Ab Initio Ligand Field Theory (pilot matlab implementation)
   Alexander A. Auer      : GIAO ZORA, VPT2
   Ute Becker             : Parallelization
   Giovanni Bistoni       : ED, misc. LED, open-shell LED, HFLED
   Martin Brehm           : Molecular dynamics
   Dmytro Bykov           : SCF Hessian
   Vijay G. Chilkuri      : MRCI spin determinant printing, contributions to CSF-ICE
   Dipayan Datta          : RHF DLPNO-CCSD density
   Achintya Kumar Dutta   : EOM-CC, STEOM-CC
   Dmitry Ganyushin       : Spin-Orbit,Spin-Spin,Magnetic field MRCI
   Miquel Garcia          : C-PCM Hessian, Gaussian charge scheme
   Yang Guo               : DLPNO-NEVPT2, CIM, IAO-localization
   Andreas Hansen         : Spin unrestricted coupled pair/coupled cluster methods
   Benjamin Helmich-Paris : CASSCF linear response (MC-RPA)
   Lee Huntington         : MR-EOM, pCC
   Robert Izsak           : Overlap fitted RIJCOSX, COSX-SCS-MP3, EOM
   Christian Kollmar      : KDIIS, OOCD, Brueckner-CCSD(T), CCSD density
   Simone Kossmann        : Meta GGA functionals, TD-DFT gradient, OOMP2, MP2 Hessian
   Martin Krupicka        : AUTO-CI
   Lucas Lang             : DCDCAS
   Dagmar Lenk            : GEPOL surface, SMD
   Dimitrios Liakos       : Extrapolation schemes; Compound Job, initial MDCI parallelization
   Dimitrios Manganas     : Further ROCIS development; embedding schemes
   Dimitrios Pantazis     : SARC Basis sets
   Taras Petrenko         : DFT Hessian,TD-DFT gradient, ASA, ECA, R-Raman, ABS, FL, XAS/XES, NRVS
   Peter Pinski           : DLPNO-MP2, DLPNO-MP2 Gradient
   Christoph Reimann      : Effective Core Potentials
   Marius Retegan         : Local ZFS, SOC
   Christoph Riplinger    : Optimizer, TS searches, QM/MM, DLPNO-CCSD(T), (RO)-DLPNO pert. Triples
   Tobias Risthaus        : Range-separated hybrids, TD-DFT gradient, RPA, STAB
   Michael Roemelt        : Original ROCIS implementation
   Masaaki Saitow         : Open-shell DLPNO-CCSD energy and density
   Barbara Sandhoefer     : DKH picture change effects
   Avijit Sen             : IP-ROCIS
   Kantharuban Sivalingam : CASSCF convergence, NEVPT2, FIC-MRCI
   Bernardo de Souza      : ESD, SOC TD-DFT
   Georgi Stoychev        : AutoAux, RI-MP2 NMR
   Willem Van den Heuvel  : Paramagnetic NMR
   Boris Wezisla          : Elementary symmetry handling
   Frank Wennmohs         : Technical directorship


 We gratefully acknowledge several colleagues who have allowed us to
 interface, adapt or use parts of their codes:
   Stefan Grimme, W. Hujo, H. Kruse,             : VdW corrections, initial TS optimization,
                  C. Bannwarth                     DFT functionals, gCP, sTDA/sTD-DF
   Ed Valeev, F. Pavosevic, A. Kumar             : LibInt (2-el integral package), F12 methods
   Garnet Chan, S. Sharma, J. Yang, R. Olivares  : DMRG
   Ulf Ekstrom                                   : XCFun DFT Library
   Mihaly Kallay                                 : mrcc  (arbitrary order and MRCC methods)
   Andreas Klamt, Michael Diedenhofen            : otool_cosmo (COSMO solvation model)
   Jiri Pittner, Ondrej Demel                    : Mk-CCSD
   Frank Weinhold                                : gennbo (NPA and NBO analysis)
   Christopher J. Cramer and Donald G. Truhlar   : smd solvation model
   Lars Goerigk                                  : TD-DFT with DH, B97 family of functionals
   V. Asgeirsson, H. Jonsson                     : NEB implementation
   FAccTs GmbH                                   : IRC, NEB, NEB-TS, Multilevel, MM, QM/MM, CI optimization
   S Lehtola, MJT Oliveira, MAL Marques          : LibXC Library


 Your calculation uses the libint2 library for the computation of 2-el integrals
 For citations please refer to: http://libint.valeyev.net

 Your ORCA version has been built with support for libXC version: 4.2.3
 For citations please refer to: https://tddft.org/programs/libxc/

 This ORCA versions uses:
   CBLAS   interface :  Fast vector & matrix operations
   LAPACKE interface :  Fast linear algebra routines
   SCALAPACK package :  Parallel linear algebra routines


Your calculation utilizes the DFT-NL dispersion correction.
Cite in your paper:
Vydrov, O. A.; Van Voorhis, T. J. Chem. Phys. 2010, 133, 244103
Hujo, W.; Grimme, S. J. Chem. Theory Comput. 2011, 7, 3866 
   

----- Orbital basis set information -----
Your calculation utilizes the basis: def2-TZVPPD
   F. Weigend and R. Ahlrichs, Phys. Chem. Chem. Phys. 7, 3297 (2005).
   D. Rappoport and F. Furche, J. Chem. Phys. 133 134105 (2010).

----- AuxJK basis set information -----
Your calculation utilizes the auxiliary basis: def2/JK
   H-Ba, Hf-Rn: F. Weigend, J. Comput. Chem. 29, 167 (2008).

cite the ECPs for I  [Def2-ECP] as follows:
Ce-Yb(ecp-28): M. Dolg, H. Stoll, H.Preuss, J. Chem. Phys., 1989, 90, 1730-1734.
Y-Cd(ecp-28), Hf-Hg(ecp-46): D. Andrae,U. Haeussermann, M. Dolg, H. Stoll, H. Preuss, Theor. Chim. Acta, 1990, 77, 123-141.
In-Sb(ecp-28), Tl-Bi(ecp-46): B. Metz, H. Stoll, M. Dolg, J. Chem. Phys., 2000, 113, 2563-2569.
Te-Xe(ecp-28), Po-Rn(ecp-46): K. A. Peterson, D. Figgen, E. Goll, H. Stoll, M. Dolg, J. Chem. Phys., 2003, 119, 11113-11123.
Rb(ecp-28), Cs(ecp-46): T. Leininger, A. Nicklass, W. Kuechle, H. Stoll, M. Dolg, A. Bergner, Chem. Phys. Lett., 1996, 255, 274-280.
Sr(ecp-28), Ba(ecp-46): M. Kaupp, P. V. Schleyer, H. Stoll and H. Preuss, J. Chem. Phys., 1991, 94, 1360-1366.
La(ecp-46): M. Dolg, H. Stoll, A. Savin, H. Preuss, Theor. Chim. Acta, 1989, 75, 173-194.
Lu(ecp-28): X. Cao, M. Dolg, J. Chem. Phys., 2001, 115, 7348-7355.

ECP parameters for I  [Def2-ECP] have been obtained from:
TURBOMOLE (7.0.2)

================================================================================
                                        WARNINGS
                       Please study these warnings very carefully!
================================================================================


INFO   : the flag for use of LIBINT has been found!

================================================================================
                                       INPUT FILE
================================================================================
NAME = MOR20_i2.in
|  1> #
|  2> # MOR20_i2 wB97X-V/Def2-TZVPPD
|  3> #
|  4> ! wb97x-v def2-tzvppd def2/jk grid4 nofinalgrid
|  5> 
|  6> *xyz 0 1
|  7> I        0.000000    0.000000    1.341554 
|  8> I        0.000000    0.000000   -1.341554 
|  9> *
| 10> 
| 11> %maxcore 5000
| 12> 
| 13> %pal
| 14> nprocs = 24
| 15> end
| 16> 
| 17> 
| 18>                          ****END OF INPUT****
================================================================================

                       ****************************
                       * Single Point Calculation *
                       ****************************

---------------------------------
CARTESIAN COORDINATES (ANGSTROEM)
---------------------------------
  I      0.000000    0.000000    1.341554
  I      0.000000    0.000000   -1.341554

----------------------------
CARTESIAN COORDINATES (A.U.)
----------------------------
  NO LB      ZA    FRAG     MASS         X           Y           Z
   0 I    25.0000*   0   126.900    0.000000    0.000000    2.535170
   1 I    25.0000*   0   126.900    0.000000    0.000000   -2.535170
* core charge reduced due to ECP

--------------------------------
INTERNAL COORDINATES (ANGSTROEM)
--------------------------------
 I      0   0   0     0.000000000000     0.00000000     0.00000000
 I      1   0   0     2.683108000000     0.00000000     0.00000000

---------------------------
INTERNAL COORDINATES (A.U.)
---------------------------
 I      0   0   0     0.000000000000     0.00000000     0.00000000
 I      1   0   0     5.070339307733     0.00000000     0.00000000

---------------------
BASIS SET INFORMATION
---------------------
There are 1 groups of distinct atoms

 Group   1 Type I   : 12s11p9d2f contracted to 7s6p4d2f pattern {5211111/341111/6111/11}

Atom   0I    basis set group =>   1
Atom   1I    basis set group =>   1
----------------------------------
AUXILIARY/JK BASIS SET INFORMATION
----------------------------------
There are 1 groups of distinct atoms

 Group   1 Type I   : 13s12p11d8f6g3h contracted to 11s10p10d7f5g3h pattern {31111111111/3111111111/2111111111/2111111/21111/111}

Atom   0I    basis set group =>   1
Atom   1I    basis set group =>   1
-------------------------
ECP PARAMETER INFORMATION
-------------------------

 Group 1, Type I  ECP Def2-ECP (replacing 28 core electrons, lmax=3)

Atom   0I    ECP group =>   1
Atom   1I    ECP group =>   1



           ************************************************************
           *        Program running with 24 parallel MPI-processes    *
           *              working on a common directory               *
           ************************************************************
------------------------------------------------------------------------------
                           ORCA GTO INTEGRAL CALCULATION
------------------------------------------------------------------------------

                         BASIS SET STATISTICS AND STARTUP INFO

 # of primitive gaussian shells          ...   68
 # of primitive gaussian functions       ...  208
 # of contracted shells                  ...   38
 # of contracted basis functions         ...  118
 Highest angular momentum                ...    3
 Maximum contraction depth               ...    6
 Integral package used                   ... LIBINT
 Integral threshhold            Thresh   ...  1.000e-10
 Primitive cut-off              TCut     ...  1.000e-11


------------------------------ INTEGRAL EVALUATION ----------------------------


 * One electron integrals 

   ECP integrals                         ... done
 Pre-screening matrix                    ... done
 Shell pair data                         ... done (   0.000 sec)



           ************************************************************
           *        Program running with 24 parallel MPI-processes    *
           *              working on a common directory               *
           ************************************************************
-------------------------------------------------------------------------------
                                 ORCA SCF
-------------------------------------------------------------------------------

------------
SCF SETTINGS
------------
Hamiltonian:
 Density Functional     Method          .... DFT(GTOs)
 Exchange Functional    Exchange        .... WB97X-V
 Correlation Functional Correlation     .... WB97X-V
 Gradients option       PostSCFGGA      .... off
 Hybrid DFT is turned on
   Fraction HF Exchange ScalHFX         ....  0.167000
   Scaling of DF-GGA-X  ScalDFX         ....  0.000000
   Scaling of DF-GGA-C  ScalDFC         ....  1.000000
   Scaling of DF-LDA-C  ScalLDAC        ....  1.000000
   Perturbative correction              ....  0.000000
   Density functional embedding theory  .... OFF
 Long-range corrected/Screened/Range-Separated Hybrid DFT is turned on
   Amount of maximum screened exact exchange              ....  0.833000
   Range separation parameter mu (erf(mu*r12)/r12)        ....  0.300000
   NL short-range parameter             ....  6.000000
   NL long-range parameter              ....  0.010000


General Settings:
 Integral files         IntName         .... MOR20_i2
 Hartree-Fock type      HFTyp           .... RHF
 Total Charge           Charge          ....    0
 Multiplicity           Mult            ....    1
 Number of Electrons    NEL             ....   50
 Basis Dimension        Dim             ....  118
 Nuclear Repulsion      ENuc            ....    123.2659122136 Eh

Convergence Acceleration:
 DIIS                   CNVDIIS         .... on
   Start iteration      DIISMaxIt       ....    12
   Startup error        DIISStart       ....  0.200000
   # of expansion vecs  DIISMaxEq       ....     5
   Bias factor          DIISBfac        ....   1.050
   Max. coefficient     DIISMaxC        ....  10.000
 Newton-Raphson         CNVNR           .... off
 SOSCF                  CNVSOSCF        .... on
   Start iteration      SOSCFMaxIt      ....   150
   Startup grad/error   SOSCFStart      ....  0.003300
 Level Shifting         CNVShift        .... on
   Level shift para.    LevelShift      ....    0.2500
   Turn off err/grad.   ShiftErr        ....    0.0010
 Zerner damping         CNVZerner       .... off
 Static damping         CNVDamp         .... on
   Fraction old density DampFac         ....    0.7000
   Max. Damping (<1)    DampMax         ....    0.9800
   Min. Damping (>=0)   DampMin         ....    0.0000
   Turn off err/grad.   DampErr         ....    0.1000
 Fernandez-Rico         CNVRico         .... off

SCF Procedure:
 Maximum # iterations   MaxIter         ....   125
 SCF integral mode      SCFMode         .... Direct
   Integral package                     .... LIBINT
 Reset frequency        DirectResetFreq ....    20
 Integral Threshold     Thresh          ....  1.000e-10 Eh
 Primitive CutOff       TCut            ....  1.000e-11 Eh

Convergence Tolerance:
 Convergence Check Mode ConvCheckMode   .... Total+1el-Energy
 Convergence forced     ConvForced      .... 0
 Energy Change          TolE            ....  1.000e-06 Eh
 1-El. energy change                    ....  1.000e-03 Eh
 Orbital Gradient       TolG            ....  5.000e-05
 Orbital Rotation angle TolX            ....  5.000e-05
 DIIS Error             TolErr          ....  1.000e-06


Diagonalization of the overlap matrix:
Smallest eigenvalue                        ... 1.197e-03
Time for diagonalization                   ...    0.003 sec
Threshold for overlap eigenvalues          ... 1.000e-08
Number of eigenvalues below threshold      ... 0
Time for construction of square roots      ...    0.001 sec
Total time needed                          ...    0.004 sec

-------------------
DFT GRID GENERATION
-------------------

General Integration Accuracy     IntAcc      ...  4.670
Radial Grid Type                 RadialGrid  ... Gauss-Chebyshev
Angular Grid (max. acc.)         AngularGrid ... Lebedev-302
Angular grid pruning method      GridPruning ... 3 (G Style)
Weight generation scheme         WeightScheme... Becke
Basis function cutoff            BFCut       ...    1.0000e-10
Integration weight cutoff        WCut        ...    1.0000e-14
Grids for H and He will be reduced by one unit

# of grid points (after initial pruning)     ...  21484 (   0.0 sec)
# of grid points (after weights+screening)   ...  21456 (   0.0 sec)
nearest neighbour list constructed           ...    0.0 sec
Grid point re-assignment to atoms done       ...    0.0 sec
Grid point division into batches done        ...    0.2 sec
Reduced shell lists constructed in    0.2 sec

Total number of grid points                  ...    21456
Total number of batches                      ...      336
Average number of points per batch           ...       63
Average number of grid points per atom       ...    10728
Average number of shells per batch           ...     7.53 (19.82%)
Average number of basis functions per batch  ...    22.20 (18.81%)
Average number of large shells per batch     ...     5.87 (77.88%)
Average number of large basis fcns per batch ...    17.60 (79.28%)
Maximum spatial batch extension              ...  23.87, 23.87, 15.60 au
Average spatial batch extension              ...   0.75,  0.74,  0.58 au

Time for grid setup =    0.301 sec

------------------------------
INITIAL GUESS: MODEL POTENTIAL
------------------------------
Loading Hartree-Fock densities                     ... done
  calling /sw/apps/orca/orca_4_2_0_linux_x86-64_openmpi314/orca MOR20_i2_atom53.inp > MOR20_i2_atom53.out in order to generate an atomic fitting density for atom 0 (I  with ECP) on-the-fly... 
    atom 0 (I ), assumed electronic state with S=2: 1s2 2s2 2p6 3s2 3p6 4s2 3d10 4p6 5s2 4d10 5p5           ... done
Calculating cut-offs                               ... done
Setting up the integral package                    ... done
Initializing the effective Hamiltonian             ... done
Starting the Coulomb interaction                   ... done (   0.0 sec)
Reading the grid                                   ... done
Mapping shells                                     ... done
Starting the XC term evaluation                    ... done (   0.0 sec)
  promolecular density results
     # of electrons  =    106.000531411
     EX              =   -272.742126495
     EC              =     -7.477221280
     EX+EC           =   -280.219347775
Transforming the Hamiltonian                       ... done (   0.0 sec)
Diagonalizing the Hamiltonian                      ... done (   0.0 sec)
Back transforming the eigenvectors                 ... done (   0.0 sec)
Now organizing SCF variables                       ... done
                      ------------------
                      INITIAL GUESS DONE (   1.6 sec)
                      ------------------
--------------
SCF ITERATIONS
--------------
ITER       Energy         Delta-E        Max-DP      RMS-DP      [F,P]     Damp
               ***  Starting incremental Fock matrix formation  ***
  0   -569.3639823828   0.000000000000 5.44177593  0.12698381  1.8203354 0.7000
  1   -577.5257030459  -8.161720663067 2.27711864  0.06055195  0.9291086 0.7000
  2   -582.7417434273  -5.216040381384 1.49482221  0.04206543  0.5794912 0.7000
  3   -586.5206963059  -3.778952878671 1.02686978  0.02922348  0.3993314 0.7000
  4   -589.2026257853  -2.681929479409 0.71955506  0.02037375  0.2817321 0.7000
  5   -591.0970528162  -1.894427030844 0.50389835  0.01424604  0.2017738 0.7000
                               ***Turning on DIIS***
  6   -592.4331750736  -1.336122257448 0.35281531  0.00998529  0.1450726 0.7000
  7   -593.3743649108  -0.941189837207 0.24707306  0.00704396  0.1045021 0.7000
  8   -594.0366969133  -0.662332002450 0.57661882  0.01665558  0.0742766 0.0000
                      *** Initiating the SOSCF procedure ***
                           *** Shutting down DIIS ***
                      *** Re-Reading the Fockian *** 
                      *** Removing any level shift *** 
ITER      Energy       Delta-E        Grad      Rot      Max-DP    RMS-DP
  9   -595.59647042  -1.5597735110  0.002865  0.002865  0.016592  0.000438
               *** Restarting incremental Fock matrix formation ***
 10   -595.59668184  -0.0002114201  0.001200  0.002826  0.006193  0.000230
 11   -595.59672930  -0.0000474515  0.000343  0.001191  0.002471  0.000096
 12   -595.59673243  -0.0000031363  0.000395  0.000189  0.000248  0.000014
 13   -595.59673349  -0.0000010566  0.000060  0.000070  0.000210  0.000008
 14   -595.59673353  -0.0000000407  0.000016  0.000013  0.000065  0.000002
                 **** Energy Check signals convergence ****
              ***Rediagonalizing the Fockian in SOSCF/NRSCF***

               *****************************************************
               *                     SUCCESS                       *
               *           SCF CONVERGED AFTER  15 CYCLES          *
               *****************************************************


Setting up the DFT-NL grid :

General Integration Accuracy     IntAcc      ...  4.340
Radial Grid Type                 RadialGrid  ... Gauss-Chebyshev
Angular Grid (max. acc.)         AngularGrid ... Lebedev-110
Angular grid pruning method      GridPruning ... 3 (G Style)
Weight generation scheme         WeightScheme... Becke
Basis function cutoff            BFCut       ...    1.0000e-10
Integration weight cutoff        WCut        ...    1.0000e-14
Grids for H and He will be reduced by one unit

# of grid points (after initial pruning)     ...   6564 (   0.0 sec)
# of grid points (after weights+screening)   ...   6538 (   0.0 sec)
nearest neighbour list constructed           ...    0.0 sec
Grid point re-assignment to atoms done       ...    0.0 sec
Grid point division into batches done        ...    0.0 sec
Reduced shell lists constructed in    0.0 sec

Total number of grid points                  ...     6538
Total number of batches                      ...      104
Average number of points per batch           ...       62
Average number of grid points per atom       ...     3269
Average number of shells per batch           ...    12.83 (33.77%)
Average number of basis functions per batch  ...    40.17 (34.04%)
Average number of large shells per batch     ...    11.17 (87.01%)
Average number of large basis fcns per batch ...    33.50 (83.40%)
Maximum spatial batch extension              ...  18.95, 28.74, 18.80 au
Average spatial batch extension              ...   0.86,  1.07,  0.83 au

Final grid set up in    0.0 sec

-------------------------------------------------------------------------------
                         DFT-NL dispersion correction                          
-------------------------------------------------------------------------------

SC Energy -595.596733533 
NL    Energy 0.190258545 
SC+NL Energy -595.406474987 
NL done in    0.0 sec
-------------------------------------------------------------------------------

----------------
TOTAL SCF ENERGY
----------------

Total Energy       :         -595.40647499 Eh          -16201.83387 eV

Components:
Nuclear Repulsion  :          123.26591221 Eh            3354.23600 eV
Electronic Energy  :         -718.67238720 Eh          -19556.06987 eV
One Electron Energy:        -1281.44771183 Eh          -34869.96499 eV
Two Electron Energy:          562.77532463 Eh           15313.89513 eV

Virial components:
Potential Energy   :         -822.52540468 Eh          -22382.05414 eV
Kinetic Energy     :          227.11892969 Eh            6180.22027 eV
Virial Ratio       :            3.62156253


DFT components:
N(Alpha)           :       24.999997961625 electrons
N(Beta)            :       24.999997961625 electrons
N(Total)           :       49.999995923250 electrons
E(X)               :      -28.413439531559 Eh       
E(C)               :       -2.513648708878 Eh       
NL Energy, E(C,NL) :        0.190258545408 Eh       
E(XC)              :      -30.736829695029 Eh       
DFET-embed. en.    :        0.000000000000 Eh       

---------------
SCF CONVERGENCE
---------------

  Last Energy change         ...   -3.2985e-09  Tolerance :   1.0000e-06
  Last MAX-Density change    ...    8.1703e-06  Tolerance :   1.0000e-05
  Last RMS-Density change    ...    3.7454e-07  Tolerance :   1.0000e-06
  Last Orbital Gradient      ...    3.5598e-06  Tolerance :   5.0000e-05
  Last Orbital Rotation      ...    3.4280e-06  Tolerance :   5.0000e-05

             **** THE GBW FILE WAS UPDATED (MOR20_i2.gbw) ****
             **** DENSITY FILE WAS UPDATED (MOR20_i2.scfp) ****
             **** ENERGY FILE WAS UPDATED (MOR20_i2.en.tmp) ****
             **** THE GBW FILE WAS UPDATED (MOR20_i2.gbw) ****
             **** DENSITY FILE WAS UPDATED (MOR20_i2.scfp) ****
----------------
ORBITAL ENERGIES
----------------

  NO   OCC          E(Eh)            E(eV) 
   0   2.0000      -6.978413      -189.8923 
   1   2.0000      -6.978403      -189.8920 
   2   2.0000      -5.013110      -136.4137 
   3   2.0000      -5.012984      -136.4102 
   4   2.0000      -4.996199      -135.9535 
   5   2.0000      -4.996199      -135.9535 
   6   2.0000      -4.996186      -135.9531 
   7   2.0000      -4.996186      -135.9531 
   8   2.0000      -2.067497       -56.2595 
   9   2.0000      -2.062925       -56.1350 
  10   2.0000      -2.060884       -56.0795 
  11   2.0000      -2.060884       -56.0795 
  12   2.0000      -2.059423       -56.0397 
  13   2.0000      -2.059423       -56.0397 
  14   2.0000      -2.046229       -55.6807 
  15   2.0000      -2.046210       -55.6802 
  16   2.0000      -2.046135       -55.6782 
  17   2.0000      -2.046116       -55.6776 
  18   2.0000      -0.884520       -24.0690 
  19   2.0000      -0.788504       -21.4563 
  20   2.0000      -0.464973       -12.6526 
  21   2.0000      -0.425682       -11.5834 
  22   2.0000      -0.425682       -11.5834 
  23   2.0000      -0.355246        -9.6667 
  24   2.0000      -0.355246        -9.6667 
  25   0.0000      -0.065747        -1.7891 
  26   0.0000       0.043426         1.1817 
  27   0.0000       0.056701         1.5429 
  28   0.0000       0.056701         1.5429 
  29   0.0000       0.058391         1.5889 
  30   0.0000       0.070069         1.9067 
  31   0.0000       0.070069         1.9067 
  32   0.0000       0.073702         2.0055 
  33   0.0000       0.130724         3.5572 
  34   0.0000       0.130724         3.5572 
  35   0.0000       0.152024         4.1368 
  36   0.0000       0.152024         4.1368 
  37   0.0000       0.165073         4.4919 
  38   0.0000       0.191198         5.2028 
  39   0.0000       0.191198         5.2028 
  40   0.0000       0.195870         5.3299 
  41   0.0000       0.196895         5.3578 
  42   0.0000       0.227187         6.1821 
  43   0.0000       0.227187         6.1821 
  44   0.0000       0.304151         8.2764 
  45   0.0000       0.304151         8.2764 
  46   0.0000       0.333150         9.0655 
  47   0.0000       0.363587         9.8937 
  48   0.0000       0.363587         9.8937 
  49   0.0000       0.381245        10.3742 
  50   0.0000       0.381245        10.3742 
  51   0.0000       0.407900        11.0995 
  52   0.0000       0.407901        11.0996 
  53   0.0000       0.440207        11.9786 
  54   0.0000       0.455526        12.3955 
  55   0.0000       0.455527        12.3955 
  56   0.0000       0.475897        12.9498 
  57   0.0000       0.524361        14.2686 
  58   0.0000       0.524361        14.2686 
  59   0.0000       0.542945        14.7743 
  60   0.0000       0.632792        17.2191 
  61   0.0000       0.819110        22.2891 
  62   0.0000       0.869745        23.6670 
  63   0.0000       0.869745        23.6670 
  64   0.0000       0.907978        24.7073 
  65   0.0000       0.907983        24.7075 
  66   0.0000       0.931880        25.3577 
  67   0.0000       0.959982        26.1224 
  68   0.0000       0.959982        26.1224 
  69   0.0000       0.970892        26.4193 
  70   0.0000       0.970892        26.4193 
  71   0.0000       0.998377        27.1672 
  72   0.0000       0.998381        27.1673 
  73   0.0000       1.104595        30.0575 
  74   0.0000       1.104595        30.0575 
  75   0.0000       1.210969        32.9522 
  76   0.0000       1.274658        34.6852 
  77   0.0000       1.274658        34.6852 
  78   0.0000       1.316984        35.8370 
  79   0.0000       1.365979        37.1702 
  80   0.0000       1.365979        37.1702 
  81   0.0000       1.561821        42.4993 
  82   0.0000       1.566263        42.6202 
  83   0.0000       1.566269        42.6203 
  84   0.0000       1.607922        43.7538 
  85   0.0000       1.607934        43.7541 
  86   0.0000       1.609974        43.8096 
  87   0.0000       1.609974        43.8096 
  88   0.0000       1.643862        44.7318 
  89   0.0000       1.643862        44.7318 
  90   0.0000       1.752546        47.6892 
  91   0.0000       1.775163        48.3046 
  92   0.0000       3.063176        83.3533 
  93   0.0000       3.063176        83.3533 
  94   0.0000       3.094410        84.2032 
  95   0.0000       3.094595        84.2082 
  96   0.0000       3.119972        84.8988 
  97   0.0000       3.129853        85.1676 
  98   0.0000       3.129853        85.1676 
  99   0.0000       3.136412        85.3461 
 100   0.0000       3.136412        85.3461 
 101   0.0000       3.154148        85.8287 
 102   0.0000       3.154330        85.8337 
 103   0.0000       3.272246        89.0423 
 104   0.0000       3.272246        89.0423 
 105   0.0000       3.523554        95.8808 
 106   0.0000       4.323229       117.6410 
 107   0.0000       4.424786       120.4045 
 108   0.0000      34.657829       943.0875 
 109   0.0000      34.657829       943.0875 
 110   0.0000      34.713889       944.6129 
 111   0.0000      34.713889       944.6129 
 112   0.0000      34.754484       945.7176 
 113   0.0000      34.919201       950.1998 
 114   0.0000      42.847188      1165.9313 
 115   0.0000      42.954517      1168.8518 
 116   0.0000     118.324638      3219.7771 
 117   0.0000     118.352784      3220.5430 

                    ********************************
                    * MULLIKEN POPULATION ANALYSIS *
                    ********************************

-----------------------
MULLIKEN ATOMIC CHARGES
-----------------------
   0 I :    0.000001
   1 I :   -0.000001
Sum of atomic charges:   -0.0000000

--------------------------------
MULLIKEN REDUCED ORBITAL CHARGES
--------------------------------
  0 I s       :     3.986456  s :     3.986456
      pz      :     2.983252  p :    10.948056
      px      :     3.982402
      py      :     3.982402
      dz2     :     2.024992  d :    10.055050
      dxz     :     2.015036
      dyz     :     2.015036
      dx2y2   :     1.999994
      dxy     :     1.999994
      f0      :     0.005300  f :     0.010437
      f+1     :     0.002562
      f-1     :     0.002562
      f+2     :     0.000006
      f-2     :     0.000006
      f+3     :     0.000000
      f-3     :     0.000000
  1 I s       :     3.986456  s :     3.986456
      pz      :     2.983254  p :    10.948059
      px      :     3.982402
      py      :     3.982402
      dz2     :     2.024992  d :    10.055050
      dxz     :     2.015036
      dyz     :     2.015036
      dx2y2   :     1.999994
      dxy     :     1.999994
      f0      :     0.005300  f :     0.010437
      f+1     :     0.002562
      f-1     :     0.002562
      f+2     :     0.000006
      f-2     :     0.000006
      f+3     :     0.000000
      f-3     :     0.000000


                     *******************************
                     * LOEWDIN POPULATION ANALYSIS *
                     *******************************

----------------------
LOEWDIN ATOMIC CHARGES
----------------------
   0 I :    0.000000
   1 I :   -0.000000

-------------------------------
LOEWDIN REDUCED ORBITAL CHARGES
-------------------------------
  0 I s       :     3.745862  s :     3.745862
      pz      :     3.091538  p :    10.894804
      px      :     3.901633
      py      :     3.901633
      dz2     :     2.153256  d :    10.341852
      dxz     :     2.094304
      dyz     :     2.094304
      dx2y2   :     1.999994
      dxy     :     1.999994
      f0      :     0.009344  f :     0.017481
      f+1     :     0.004063
      f-1     :     0.004063
      f+2     :     0.000006
      f-2     :     0.000006
      f+3     :     0.000000
      f-3     :     0.000000
  1 I s       :     3.745862  s :     3.745862
      pz      :     3.091538  p :    10.894805
      px      :     3.901633
      py      :     3.901633
      dz2     :     2.153256  d :    10.341852
      dxz     :     2.094304
      dyz     :     2.094304
      dx2y2   :     1.999994
      dxy     :     1.999994
      f0      :     0.009344  f :     0.017481
      f+1     :     0.004063
      f-1     :     0.004063
      f+2     :     0.000006
      f-2     :     0.000006
      f+3     :     0.000000
      f-3     :     0.000000


                      *****************************
                      * MAYER POPULATION ANALYSIS *
                      *****************************

  NA   - Mulliken gross atomic population
  ZA   - Total nuclear charge
  QA   - Mulliken gross atomic charge
  VA   - Mayer's total valence
  BVA  - Mayer's bonded valence
  FA   - Mayer's free valence

  ATOM       NA         ZA         QA         VA         BVA        FA
  0 I     25.0000    25.0000     0.0000     0.9982     0.9982    -0.0000
  1 I     25.0000    25.0000    -0.0000     0.9982     0.9982    -0.0000

  Mayer bond orders larger than 0.100000
B(  0-I ,  1-I ) :   0.9982 

-------
TIMINGS
-------

Total SCF time: 0 days 0 hours 0 min 5 sec 

Total time                  ....       5.937 sec
Sum of individual times     ....       5.733 sec  ( 96.6%)

Fock matrix formation       ....       4.112 sec  ( 69.3%)
  XC integration            ....       0.234 sec  (  5.7% of F)
    Basis function eval.    ....       0.034 sec  ( 14.4% of XC)
    Density eval.           ....       0.018 sec  (  7.9% of XC)
    XC-Functional eval.     ....       0.020 sec  (  8.6% of XC)
    XC-Potential eval.      ....       0.033 sec  ( 14.2% of XC)
Diagonalization             ....       0.018 sec  (  0.3%)
Density matrix formation    ....       0.005 sec  (  0.1%)
Population analysis         ....       0.003 sec  (  0.0%)
Initial guess               ....       1.261 sec  ( 21.2%)
Orbital Transformation      ....       0.000 sec  (  0.0%)
Orbital Orthonormalization  ....       0.000 sec  (  0.0%)
DIIS solution               ....       0.005 sec  (  0.1%)
SOSCF solution              ....       0.006 sec  (  0.1%)
Grid generation             ....       0.323 sec  (  5.4%)

-------------------------   --------------------
FINAL SINGLE POINT ENERGY      -595.406474987456
-------------------------   --------------------


                            ***************************************
                            *     ORCA property calculations      *
                            ***************************************

                                    ---------------------
                                    Active property flags
                                    ---------------------
   (+) Dipole Moment


------------------------------------------------------------------------------
                       ORCA ELECTRIC PROPERTIES CALCULATION
------------------------------------------------------------------------------

Dipole Moment Calculation                       ... on
Quadrupole Moment Calculation                   ... off
Polarizability Calculation                      ... off
GBWName                                         ... MOR20_i2.gbw
Electron density file                           ... MOR20_i2.scfp
The origin for moment calculation is the CENTER OF MASS  = ( 0.000000,  0.000000  0.000000)

-------------
DIPOLE MOMENT
-------------
                                X             Y             Z
Electronic contribution:     -0.00000      -0.00000      -0.00000
Nuclear contribution   :      0.00000       0.00000       0.00000
                        -----------------------------------------
Total Dipole Moment    :     -0.00000      -0.00000      -0.00000
                        -----------------------------------------
Magnitude (a.u.)       :      0.00000
Magnitude (Debye)      :      0.00000



--------------------
Rotational spectrum 
--------------------
 
Rotational constants in cm-1:     0.000000     0.036905     0.036905 
Rotational constants in MHz :     0.000000  1106.393636  1106.393636 

 Dipole components along the rotational axes: 
x,y,z [a.u.] :    -0.000000    -0.000000    -0.000000 
x,y,z [Debye]:    -0.000000    -0.000000    -0.000000 

 

Timings for individual modules:

Sum of individual times         ...        7.319 sec (=   0.122 min)
GTO integral calculation        ...        0.944 sec (=   0.016 min)  12.9 %
SCF iterations                  ...        6.375 sec (=   0.106 min)  87.1 %
                             ****ORCA TERMINATED NORMALLY****
TOTAL RUN TIME: 0 days 0 hours 0 minutes 7 seconds 862 msec
