
                                 *****************
                                 * O   R   C   A *
                                 *****************

           --- An Ab Initio, DFT and Semiempirical electronic structure package ---

                  #######################################################
                  #                        -***-                        #
                  #          Department of theory and spectroscopy      #
                  #               Directorship: Frank Neese             #
                  #        Max Planck Institute fuer Kohlenforschung    #
                  #                Kaiser Wilhelm Platz 1               #
                  #                 D-45470 Muelheim/Ruhr               #
                  #                      Germany                        #
                  #                                                     #
                  #                  All rights reserved                #
                  #                        -***-                        #
                  #######################################################


                         Program Version 4.2.0 -  RELEASE  -


 With contributions from (in alphabetic order):
   Daniel Aravena         : Magnetic Suceptibility
   Michael Atanasov       : Ab Initio Ligand Field Theory (pilot matlab implementation)
   Alexander A. Auer      : GIAO ZORA, VPT2
   Ute Becker             : Parallelization
   Giovanni Bistoni       : ED, misc. LED, open-shell LED, HFLED
   Martin Brehm           : Molecular dynamics
   Dmytro Bykov           : SCF Hessian
   Vijay G. Chilkuri      : MRCI spin determinant printing, contributions to CSF-ICE
   Dipayan Datta          : RHF DLPNO-CCSD density
   Achintya Kumar Dutta   : EOM-CC, STEOM-CC
   Dmitry Ganyushin       : Spin-Orbit,Spin-Spin,Magnetic field MRCI
   Miquel Garcia          : C-PCM Hessian, Gaussian charge scheme
   Yang Guo               : DLPNO-NEVPT2, CIM, IAO-localization
   Andreas Hansen         : Spin unrestricted coupled pair/coupled cluster methods
   Benjamin Helmich-Paris : CASSCF linear response (MC-RPA)
   Lee Huntington         : MR-EOM, pCC
   Robert Izsak           : Overlap fitted RIJCOSX, COSX-SCS-MP3, EOM
   Christian Kollmar      : KDIIS, OOCD, Brueckner-CCSD(T), CCSD density
   Simone Kossmann        : Meta GGA functionals, TD-DFT gradient, OOMP2, MP2 Hessian
   Martin Krupicka        : AUTO-CI
   Lucas Lang             : DCDCAS
   Dagmar Lenk            : GEPOL surface, SMD
   Dimitrios Liakos       : Extrapolation schemes; Compound Job, initial MDCI parallelization
   Dimitrios Manganas     : Further ROCIS development; embedding schemes
   Dimitrios Pantazis     : SARC Basis sets
   Taras Petrenko         : DFT Hessian,TD-DFT gradient, ASA, ECA, R-Raman, ABS, FL, XAS/XES, NRVS
   Peter Pinski           : DLPNO-MP2, DLPNO-MP2 Gradient
   Christoph Reimann      : Effective Core Potentials
   Marius Retegan         : Local ZFS, SOC
   Christoph Riplinger    : Optimizer, TS searches, QM/MM, DLPNO-CCSD(T), (RO)-DLPNO pert. Triples
   Tobias Risthaus        : Range-separated hybrids, TD-DFT gradient, RPA, STAB
   Michael Roemelt        : Original ROCIS implementation
   Masaaki Saitow         : Open-shell DLPNO-CCSD energy and density
   Barbara Sandhoefer     : DKH picture change effects
   Avijit Sen             : IP-ROCIS
   Kantharuban Sivalingam : CASSCF convergence, NEVPT2, FIC-MRCI
   Bernardo de Souza      : ESD, SOC TD-DFT
   Georgi Stoychev        : AutoAux, RI-MP2 NMR
   Willem Van den Heuvel  : Paramagnetic NMR
   Boris Wezisla          : Elementary symmetry handling
   Frank Wennmohs         : Technical directorship


 We gratefully acknowledge several colleagues who have allowed us to
 interface, adapt or use parts of their codes:
   Stefan Grimme, W. Hujo, H. Kruse,             : VdW corrections, initial TS optimization,
                  C. Bannwarth                     DFT functionals, gCP, sTDA/sTD-DF
   Ed Valeev, F. Pavosevic, A. Kumar             : LibInt (2-el integral package), F12 methods
   Garnet Chan, S. Sharma, J. Yang, R. Olivares  : DMRG
   Ulf Ekstrom                                   : XCFun DFT Library
   Mihaly Kallay                                 : mrcc  (arbitrary order and MRCC methods)
   Andreas Klamt, Michael Diedenhofen            : otool_cosmo (COSMO solvation model)
   Jiri Pittner, Ondrej Demel                    : Mk-CCSD
   Frank Weinhold                                : gennbo (NPA and NBO analysis)
   Christopher J. Cramer and Donald G. Truhlar   : smd solvation model
   Lars Goerigk                                  : TD-DFT with DH, B97 family of functionals
   V. Asgeirsson, H. Jonsson                     : NEB implementation
   FAccTs GmbH                                   : IRC, NEB, NEB-TS, Multilevel, MM, QM/MM, CI optimization
   S Lehtola, MJT Oliveira, MAL Marques          : LibXC Library


 Your calculation uses the libint2 library for the computation of 2-el integrals
 For citations please refer to: http://libint.valeyev.net

 Your ORCA version has been built with support for libXC version: 4.2.3
 For citations please refer to: https://tddft.org/programs/libxc/

 This ORCA versions uses:
   CBLAS   interface :  Fast vector & matrix operations
   LAPACKE interface :  Fast linear algebra routines
   SCALAPACK package :  Parallel linear algebra routines


Your calculation utilizes the DFT-NL dispersion correction.
Cite in your paper:
Vydrov, O. A.; Van Voorhis, T. J. Chem. Phys. 2010, 133, 244103
Hujo, W.; Grimme, S. J. Chem. Theory Comput. 2011, 7, 3866 
   

----- Orbital basis set information -----
Your calculation utilizes the basis: def2-TZVPPD
   F. Weigend and R. Ahlrichs, Phys. Chem. Chem. Phys. 7, 3297 (2005).
   D. Rappoport and F. Furche, J. Chem. Phys. 133 134105 (2010).

----- AuxJK basis set information -----
Your calculation utilizes the auxiliary basis: def2/JK
   H-Ba, Hf-Rn: F. Weigend, J. Comput. Chem. 29, 167 (2008).

================================================================================
                                        WARNINGS
                       Please study these warnings very carefully!
================================================================================


INFO   : the flag for use of LIBINT has been found!

================================================================================
                                       INPUT FILE
================================================================================
NAME = MOR22_pcy3.in
|  1> #
|  2> # MOR22_pcy3 wB97X-V/Def2-TZVPPD
|  3> #
|  4> ! wb97x-v def2-tzvppd def2/jk grid4 nofinalgrid
|  5> 
|  6> *xyz 0 1
|  7> P       -0.216171   -0.083077   -1.104749 
|  8> C        0.505342    1.551445   -0.512411 
|  9> C        0.372168    1.952615    0.967298 
| 10> C        0.853698    3.397029    1.180070 
| 11> C        2.300662    3.578910    0.704200 
| 12> C        2.457928    3.151362   -0.760734 
| 13> C        1.965268    1.712769   -0.974950 
| 14> C        0.795470   -1.465851   -0.339173 
| 15> C        1.194026   -1.376002    1.141683 
| 16> C        1.830829   -2.691519    1.617818 
| 17> C        3.044522   -3.062049    0.755351 
| 18> C        2.669205   -3.127202   -0.731177 
| 19> C        2.022807   -1.816580   -1.203888 
| 20> C       -1.786787   -0.169467   -0.086099 
| 21> C       -2.713096    0.996882   -0.481425 
| 22> C       -4.042154    0.954203    0.285800 
| 23> C       -4.758728   -0.385405    0.080261 
| 24> C       -3.846658   -1.555269    0.467941 
| 25> C       -2.516136   -1.508613   -0.298163 
| 26> H       -0.086881    2.275758   -1.095374 
| 27> H        0.969845    1.279400    1.591405 
| 28> H       -0.665694    1.858440    1.303963 
| 29> H        0.763179    3.670246    2.238833 
| 30> H        0.199154    4.078898    0.617939 
| 31> H        2.616561    4.621342    0.833145 
| 32> H        2.964320    2.965719    1.331124 
| 33> H        1.874427    3.827995   -1.401227 
| 34> H        3.505668    3.240568   -1.073514 
| 35> H        2.061196    1.427054   -2.029468 
| 36> H        2.603163    1.029346   -0.398698 
| 37> H        0.103060   -2.317100   -0.439871 
| 38> H        1.082328   -3.494681    1.556078 
| 39> H        0.325749   -1.129652    1.763601 
| 40> H        1.922184   -0.564787    1.270256 
| 41> H        2.123181   -2.608981    2.672179 
| 42> H        3.467034   -4.019422    1.084011 
| 43> H        3.828662   -2.303820    0.895790 
| 44> H        3.555664   -3.350052   -1.337889 
| 45> H        1.959466   -3.952268   -0.888607 
| 46> H        1.724465   -1.892063   -2.255831 
| 47> H        2.762591   -1.008464   -1.141586 
| 48> H       -1.543753   -0.076214    0.982532 
| 49> H       -2.216101    1.957671   -0.306445 
| 50> H       -2.910289    0.936504   -1.561343 
| 51> H       -3.843829    1.098520    1.357699 
| 52> H       -4.683867    1.784681   -0.033466 
| 53> H       -5.041866   -0.483893   -0.977569 
| 54> H       -5.687452   -0.415984    0.663015 
| 55> H       -4.350272   -2.511559    0.279900 
| 56> H       -3.640750   -1.510603    1.547174 
| 57> H       -1.884435   -2.344750    0.021762 
| 58> H       -2.704341   -1.645246   -1.372687 
| 59> *
| 60> 
| 61> %maxcore 5000
| 62> 
| 63> %pal
| 64> nprocs = 24
| 65> end
| 66> 
| 67> 
| 68>                          ****END OF INPUT****
================================================================================

                       ****************************
                       * Single Point Calculation *
                       ****************************

---------------------------------
CARTESIAN COORDINATES (ANGSTROEM)
---------------------------------
  P     -0.216171   -0.083077   -1.104749
  C      0.505342    1.551445   -0.512411
  C      0.372168    1.952615    0.967298
  C      0.853698    3.397029    1.180070
  C      2.300662    3.578910    0.704200
  C      2.457928    3.151362   -0.760734
  C      1.965268    1.712769   -0.974950
  C      0.795470   -1.465851   -0.339173
  C      1.194026   -1.376002    1.141683
  C      1.830829   -2.691519    1.617818
  C      3.044522   -3.062049    0.755351
  C      2.669205   -3.127202   -0.731177
  C      2.022807   -1.816580   -1.203888
  C     -1.786787   -0.169467   -0.086099
  C     -2.713096    0.996882   -0.481425
  C     -4.042154    0.954203    0.285800
  C     -4.758728   -0.385405    0.080261
  C     -3.846658   -1.555269    0.467941
  C     -2.516136   -1.508613   -0.298163
  H     -0.086881    2.275758   -1.095374
  H      0.969845    1.279400    1.591405
  H     -0.665694    1.858440    1.303963
  H      0.763179    3.670246    2.238833
  H      0.199154    4.078898    0.617939
  H      2.616561    4.621342    0.833145
  H      2.964320    2.965719    1.331124
  H      1.874427    3.827995   -1.401227
  H      3.505668    3.240568   -1.073514
  H      2.061196    1.427054   -2.029468
  H      2.603163    1.029346   -0.398698
  H      0.103060   -2.317100   -0.439871
  H      1.082328   -3.494681    1.556078
  H      0.325749   -1.129652    1.763601
  H      1.922184   -0.564787    1.270256
  H      2.123181   -2.608981    2.672179
  H      3.467034   -4.019422    1.084011
  H      3.828662   -2.303820    0.895790
  H      3.555664   -3.350052   -1.337889
  H      1.959466   -3.952268   -0.888607
  H      1.724465   -1.892063   -2.255831
  H      2.762591   -1.008464   -1.141586
  H     -1.543753   -0.076214    0.982532
  H     -2.216101    1.957671   -0.306445
  H     -2.910289    0.936504   -1.561343
  H     -3.843829    1.098520    1.357699
  H     -4.683867    1.784681   -0.033466
  H     -5.041866   -0.483893   -0.977569
  H     -5.687452   -0.415984    0.663015
  H     -4.350272   -2.511559    0.279900
  H     -3.640750   -1.510603    1.547174
  H     -1.884435   -2.344750    0.021762
  H     -2.704341   -1.645246   -1.372687

----------------------------
CARTESIAN COORDINATES (A.U.)
----------------------------
  NO LB      ZA    FRAG     MASS         X           Y           Z
   0 P    15.0000    0    30.974   -0.408504   -0.156993   -2.087673
   1 C     6.0000    0    12.011    0.954958    2.931806   -0.968316
   2 C     6.0000    0    12.011    0.703296    3.689908    1.827928
   3 C     6.0000    0    12.011    1.613255    6.419454    2.230009
   4 C     6.0000    0    12.011    4.347621    6.763160    1.330745
   5 C     6.0000    0    12.011    4.644811    5.955211   -1.437579
   6 C     6.0000    0    12.011    3.713818    3.236664   -1.842388
   7 C     6.0000    0    12.011    1.503220   -2.770057   -0.640944
   8 C     6.0000    0    12.011    2.256382   -2.600267    2.157468
   9 C     6.0000    0    12.011    3.459765   -5.086234    3.057233
  10 C     6.0000    0    12.011    5.753313   -5.786434    1.427407
  11 C     6.0000    0    12.011    5.044066   -5.909555   -1.381724
  12 C     6.0000    0    12.011    3.822551   -3.432839   -2.275019
  13 C     6.0000    0    12.011   -3.376538   -0.320246   -0.162704
  14 C     6.0000    0    12.011   -5.127008    1.883834   -0.909761
  15 C     6.0000    0    12.011   -7.638564    1.803182    0.540084
  16 C     6.0000    0    12.011   -8.992693   -0.728310    0.151671
  17 C     6.0000    0    12.011   -7.269130   -2.939032    0.884280
  18 C     6.0000    0    12.011   -4.754808   -2.850865   -0.563446
  19 H     1.0000    0     1.008   -0.164181    4.300559   -2.069957
  20 H     1.0000    0     1.008    1.832741    2.417716    3.007320
  21 H     1.0000    0     1.008   -1.257979    3.511943    2.464133
  22 H     1.0000    0     1.008    1.442199    6.935760    4.230781
  23 H     1.0000    0     1.008    0.376347    7.708000    1.167735
  24 H     1.0000    0     1.008    4.944584    8.733071    1.574416
  25 H     1.0000    0     1.008    5.601753    5.604397    2.515460
  26 H     1.0000    0     1.008    3.542154    7.233862   -2.647935
  27 H     1.0000    0     1.008    6.624752    6.123786   -2.028647
  28 H     1.0000    0     1.008    3.895096    2.696741   -3.835139
  29 H     1.0000    0     1.008    4.919265    1.945182   -0.753430
  30 H     1.0000    0     1.008    0.194755   -4.378684   -0.831236
  31 H     1.0000    0     1.008    2.045304   -6.603990    2.940561
  32 H     1.0000    0     1.008    0.615576   -2.134733    3.332723
  33 H     1.0000    0     1.008    3.632401   -1.067293    2.400436
  34 H     1.0000    0     1.008    4.012231   -4.930260    5.049686
  35 H     1.0000    0     1.008    6.551745   -7.595607    2.048484
  36 H     1.0000    0     1.008    7.235123   -4.353589    1.692798
  37 H     1.0000    0     1.008    6.719231   -6.330681   -2.528244
  38 H     1.0000    0     1.008    3.702854   -7.468704   -1.679224
  39 H     1.0000    0     1.008    3.258767   -3.575481   -4.262903
  40 H     1.0000    0     1.008    5.220540   -1.905721   -2.157285
  41 H     1.0000    0     1.008   -2.917270   -0.144024    1.856716
  42 H     1.0000    0     1.008   -4.187824    3.699462   -0.579097
  43 H     1.0000    0     1.008   -5.499649    1.769736   -2.950511
  44 H     1.0000    0     1.008   -7.263784    2.075902    2.565679
  45 H     1.0000    0     1.008   -8.851226    3.372558   -0.063242
  46 H     1.0000    0     1.008   -9.527746   -0.914425   -1.847338
  47 H     1.0000    0     1.008  -10.747727   -0.786096    1.252917
  48 H     1.0000    0     1.008   -8.220823   -4.746159    0.528934
  49 H     1.0000    0     1.008   -6.880020   -2.854626    2.923735
  50 H     1.0000    0     1.008   -3.561066   -4.430935    0.041124
  51 H     1.0000    0     1.008   -5.110464   -3.109064   -2.594002

--------------------------------
INTERNAL COORDINATES (ANGSTROEM)
--------------------------------
 P      0   0   0     0.000000000000     0.00000000     0.00000000
 C      1   0   0     1.882314395604     0.00000000     0.00000000
 C      2   1   0     1.538899414470   119.72119917     0.00000000
 C      3   2   1     1.537359706861   110.54224345   187.90271050
 C      4   3   2     1.534026653079   111.34022547   303.12944262
 C      5   4   3     1.534132168822   111.09209763    55.45010547
 C      6   5   4     1.535627620846   111.18606755   305.11970931
 C      1   2   3     1.876589475547   107.74831227   291.61349850
 C      8   1   2     1.536181701711   119.34284242    43.42432402
 C      9   8   1     1.537142666223   110.85623767   171.60047680
 C     10   9   8     1.534337806755   111.11614679    56.66652151
 C     11  10   9     1.534559630214   111.18031980   304.70227017
 C     12  11  10     1.535908881024   111.39784021    55.01378001
 C      1   2   3     1.874018589571   100.96631091    37.38101117
 C     14   1   2     1.541006489136   109.23551510    63.83272633
 C     15  14   1     1.535203851295   111.78614874   178.03072118
 C     16  15  14     1.533060394003   111.21936745   303.70433197
 C     17  16  15     1.533215329233   110.77984765    55.32689297
 C     18  17  16     1.536027640909   111.46894013   304.62636633
 H      2   1   3     1.102362582396   101.43268305   242.80785162
 H      3   2   1     1.095420366801   109.90130216    67.38535767
 H      3   2   1     1.095157424252   110.80463083   309.58247271
 H      4   3   2     1.097187453728   109.97889262   180.50244040
 H      4   3   2     1.099711072172   108.98890834    63.68451768
 H      5   4   3     1.096851615238   110.35731052   178.16729922
 H      5   4   3     1.099763085951   109.04210891   295.18502512
 H      6   5   4     1.099334760998   109.29284751    65.45279277
 H      6   5   4     1.097063419514   110.33373898   182.72719868
 H      7   6   5     1.096742200671   110.49445782   178.69261539
 H      7   6   5     1.098200070779   108.87116330   295.86991240
 H      8   1   2     1.101905874068   101.14012505   160.62736672
 H     10   9   8     1.099606644598   109.00848575   296.15165973
 H      9   8   1     1.096072657242   110.76837092    48.98001725
 H      9   8   1     1.097640590320   109.16293816   291.36892457
 H     10   9   8     1.097250806183   110.09933291   179.21701566
 H     11  10   9     1.096857714963   110.30731179   181.97348710
 H     11  10   9     1.099777190508   109.00938215    65.02109313
 H     12  11  10     1.097073895471   110.28677897   177.54931573
 H     12  11  10     1.099657927438   109.17114460   294.66381131
 H     13  12  11     1.096033625169   110.55964705   182.23508160
 H     13  12  11     1.097366563786   109.09920168    65.09380628
 H     14   1   2     1.099879021223   109.81735138   304.90960842
 H     15  14   1     1.095781699494   110.48941078   300.51317752
 H     15  14   1     1.099433248932   108.55604069    57.12155100
 H     16  15  14     1.099603414107   109.10938938    64.28832693
 H     16  15  14     1.097005041743   109.87246080   181.12226014
 H     17  16  15     1.099486844891   109.12511408   295.12590869
 H     17  16  15     1.096843456439   110.42004200   177.91078953
 H     18  17  16     1.097031012678   110.40746576   182.31144688
 H     18  17  16     1.099607668357   109.18195438    65.14405948
 H     19  18  17     1.095683915094   109.30467008   178.71615068
 H     19  18  17     1.099405077890   109.59743795   295.46140480

---------------------------
INTERNAL COORDINATES (A.U.)
---------------------------
 P      0   0   0     0.000000000000     0.00000000     0.00000000
 C      1   0   0     3.557058705629     0.00000000     0.00000000
 C      2   1   0     2.908098441001   119.72119917     0.00000000
 C      3   2   1     2.905188815293   110.54224345   187.90271050
 C      4   3   2     2.898890256455   111.34022547   303.12944262
 C      5   4   3     2.899089652313   111.09209763    55.45010547
 C      6   5   4     2.901915647084   111.18606755   305.11970931
 C      1   2   3     3.546240174582   107.74831227   291.61349850
 C      8   1   2     2.902962708176   119.34284242    43.42432402
 C      9   8   1     2.904778667927   110.85623767   171.60047680
 C     10   9   8     2.899478251688   111.11614679    56.66652151
 C     11  10   9     2.899897437276   111.18031980   304.70227017
 C     12  11  10     2.902447151793   111.39784021    55.01378001
 C      1   2   3     3.541381904166   100.96631091    37.38101117
 C     14   1   2     2.912080235062   109.23551510    63.83272633
 C     15  14   1     2.901114838688   111.78614874   178.03072118
 C     16  15  14     2.897064291427   111.21936745   303.70433197
 C     17  16  15     2.897357076581   110.77984765    55.32689297
 C     18  17  16     2.902671575451   111.46894013   304.62636633
 H      2   1   3     2.083163381011   101.43268305   242.80785162
 H      3   2   1     2.070044494774   109.90130216    67.38535767
 H      3   2   1     2.069547605367   110.80463083   309.58247271
 H      4   3   2     2.073383805121   109.97889262   180.50244040
 H      4   3   2     2.078152752846   108.98890834    63.68451768
 H      5   4   3     2.072749162349   110.35731052   178.16729922
 H      5   4   3     2.078251044644   109.04210891   295.18502512
 H      6   5   4     2.077441627786   109.29284751    65.45279277
 H      6   5   4     2.073149414425   110.33373898   182.72719868
 H      7   6   5     2.072542398783   110.49445782   178.69261539
 H      7   6   5     2.075297374024   108.87116330   295.86991240
 H      8   1   2     2.082300327347   101.14012505   160.62736672
 H     10   9   8     2.077955413331   109.00848575   296.15165973
 H      9   8   1     2.071277145066   110.76837092    48.98001725
 H      9   8   1     2.074240109180   109.16293816   291.36892457
 H     10   9   8     2.073503523910   110.09933291   179.21701566
 H     11  10   9     2.072760689158   110.30731179   181.97348710
 H     11  10   9     2.078277698394   109.00938215    65.02109313
 H     12  11  10     2.073169211115   110.28677897   177.54931573
 H     12  11  10     2.078052323853   109.17114460   294.66381131
 H     13  12  11     2.071203385139   110.55964705   182.23508160
 H     13  12  11     2.073722274078   109.09920168    65.09380628
 H     14   1   2     2.078470130556   109.81735138   304.90960842
 H     15  14   1     2.070727314606   110.48941078   300.51317752
 H     15  14   1     2.077627743009   108.55604069    57.12155100
 H     16  15  14     2.077949308586   109.10938938    64.28832693
 H     16  15  14     2.073039096425   109.87246080   181.12226014
 H     17  16  15     2.077729024693   109.12511408   295.12590869
 H     17  16  15     2.072733744453   110.42004200   177.91078953
 H     18  17  16     2.073088174379   110.40746576   182.31144688
 H     18  17  16     2.077957347954   109.18195438    65.14405948
 H     19  18  17     2.070542528870   109.30467008   178.71615068
 H     19  18  17     2.077574507454   109.59743795   295.46140480

---------------------
BASIS SET INFORMATION
---------------------
There are 3 groups of distinct atoms

 Group   1 Type P   : 15s9p4d1f contracted to 6s5p4d1f pattern {732111/51111/1111/1}
 Group   2 Type C   : 12s6p3d1f contracted to 6s3p3d1f pattern {621111/411/111/1}
 Group   3 Type H   : 5s3p1d contracted to 3s3p1d pattern {311/111/1}

Atom   0P    basis set group =>   1
Atom   1C    basis set group =>   2
Atom   2C    basis set group =>   2
Atom   3C    basis set group =>   2
Atom   4C    basis set group =>   2
Atom   5C    basis set group =>   2
Atom   6C    basis set group =>   2
Atom   7C    basis set group =>   2
Atom   8C    basis set group =>   2
Atom   9C    basis set group =>   2
Atom  10C    basis set group =>   2
Atom  11C    basis set group =>   2
Atom  12C    basis set group =>   2
Atom  13C    basis set group =>   2
Atom  14C    basis set group =>   2
Atom  15C    basis set group =>   2
Atom  16C    basis set group =>   2
Atom  17C    basis set group =>   2
Atom  18C    basis set group =>   2
Atom  19H    basis set group =>   3
Atom  20H    basis set group =>   3
Atom  21H    basis set group =>   3
Atom  22H    basis set group =>   3
Atom  23H    basis set group =>   3
Atom  24H    basis set group =>   3
Atom  25H    basis set group =>   3
Atom  26H    basis set group =>   3
Atom  27H    basis set group =>   3
Atom  28H    basis set group =>   3
Atom  29H    basis set group =>   3
Atom  30H    basis set group =>   3
Atom  31H    basis set group =>   3
Atom  32H    basis set group =>   3
Atom  33H    basis set group =>   3
Atom  34H    basis set group =>   3
Atom  35H    basis set group =>   3
Atom  36H    basis set group =>   3
Atom  37H    basis set group =>   3
Atom  38H    basis set group =>   3
Atom  39H    basis set group =>   3
Atom  40H    basis set group =>   3
Atom  41H    basis set group =>   3
Atom  42H    basis set group =>   3
Atom  43H    basis set group =>   3
Atom  44H    basis set group =>   3
Atom  45H    basis set group =>   3
Atom  46H    basis set group =>   3
Atom  47H    basis set group =>   3
Atom  48H    basis set group =>   3
Atom  49H    basis set group =>   3
Atom  50H    basis set group =>   3
Atom  51H    basis set group =>   3
----------------------------------
AUXILIARY/JK BASIS SET INFORMATION
----------------------------------
There are 3 groups of distinct atoms

 Group   1 Type P   : 16s12p10d4f1g contracted to 13s11p9d4f1g pattern {4111111111111/21111111111/211111111/1111/1}
 Group   2 Type C   : 14s10p6d2f1g contracted to 10s8p5d1f1g pattern {5111111111/31111111/21111/2/1}
 Group   3 Type H   : 4s2p2d contracted to 2s2p2d pattern {31/11/11}

Atom   0P    basis set group =>   1
Atom   1C    basis set group =>   2
Atom   2C    basis set group =>   2
Atom   3C    basis set group =>   2
Atom   4C    basis set group =>   2
Atom   5C    basis set group =>   2
Atom   6C    basis set group =>   2
Atom   7C    basis set group =>   2
Atom   8C    basis set group =>   2
Atom   9C    basis set group =>   2
Atom  10C    basis set group =>   2
Atom  11C    basis set group =>   2
Atom  12C    basis set group =>   2
Atom  13C    basis set group =>   2
Atom  14C    basis set group =>   2
Atom  15C    basis set group =>   2
Atom  16C    basis set group =>   2
Atom  17C    basis set group =>   2
Atom  18C    basis set group =>   2
Atom  19H    basis set group =>   3
Atom  20H    basis set group =>   3
Atom  21H    basis set group =>   3
Atom  22H    basis set group =>   3
Atom  23H    basis set group =>   3
Atom  24H    basis set group =>   3
Atom  25H    basis set group =>   3
Atom  26H    basis set group =>   3
Atom  27H    basis set group =>   3
Atom  28H    basis set group =>   3
Atom  29H    basis set group =>   3
Atom  30H    basis set group =>   3
Atom  31H    basis set group =>   3
Atom  32H    basis set group =>   3
Atom  33H    basis set group =>   3
Atom  34H    basis set group =>   3
Atom  35H    basis set group =>   3
Atom  36H    basis set group =>   3
Atom  37H    basis set group =>   3
Atom  38H    basis set group =>   3
Atom  39H    basis set group =>   3
Atom  40H    basis set group =>   3
Atom  41H    basis set group =>   3
Atom  42H    basis set group =>   3
Atom  43H    basis set group =>   3
Atom  44H    basis set group =>   3
Atom  45H    basis set group =>   3
Atom  46H    basis set group =>   3
Atom  47H    basis set group =>   3
Atom  48H    basis set group =>   3
Atom  49H    basis set group =>   3
Atom  50H    basis set group =>   3
Atom  51H    basis set group =>   3


           ************************************************************
           *        Program running with 24 parallel MPI-processes    *
           *              working on a common directory               *
           ************************************************************
------------------------------------------------------------------------------
                           ORCA GTO INTEGRAL CALCULATION
------------------------------------------------------------------------------

                         BASIS SET STATISTICS AND STARTUP INFO

 # of primitive gaussian shells          ...  722
 # of primitive gaussian functions       ... 1632
 # of contracted shells                  ...  481
 # of contracted basis functions         ... 1275
 Highest angular momentum                ...    3
 Maximum contraction depth               ...    7
 Integral package used                   ... LIBINT
 Integral threshhold            Thresh   ...  1.000e-10
 Primitive cut-off              TCut     ...  1.000e-11


------------------------------ INTEGRAL EVALUATION ----------------------------


 * One electron integrals 
 Pre-screening matrix                    ... done
 Shell pair data                         ... done (   0.028 sec)



           ************************************************************
           *        Program running with 24 parallel MPI-processes    *
           *              working on a common directory               *
           ************************************************************
-------------------------------------------------------------------------------
                                 ORCA SCF
-------------------------------------------------------------------------------

------------
SCF SETTINGS
------------
Hamiltonian:
 Density Functional     Method          .... DFT(GTOs)
 Exchange Functional    Exchange        .... WB97X-V
 Correlation Functional Correlation     .... WB97X-V
 Gradients option       PostSCFGGA      .... off
 Hybrid DFT is turned on
   Fraction HF Exchange ScalHFX         ....  0.167000
   Scaling of DF-GGA-X  ScalDFX         ....  0.000000
   Scaling of DF-GGA-C  ScalDFC         ....  1.000000
   Scaling of DF-LDA-C  ScalLDAC        ....  1.000000
   Perturbative correction              ....  0.000000
   Density functional embedding theory  .... OFF
 Long-range corrected/Screened/Range-Separated Hybrid DFT is turned on
   Amount of maximum screened exact exchange              ....  0.833000
   Range separation parameter mu (erf(mu*r12)/r12)        ....  0.300000
   NL short-range parameter             ....  6.000000
   NL long-range parameter              ....  0.010000


General Settings:
 Integral files         IntName         .... MOR22_pcy3
 Hartree-Fock type      HFTyp           .... RHF
 Total Charge           Charge          ....    0
 Multiplicity           Mult            ....    1
 Number of Electrons    NEL             ....  156
 Basis Dimension        Dim             .... 1275
 Nuclear Repulsion      ENuc            ....   1736.7128645412 Eh

Convergence Acceleration:
 DIIS                   CNVDIIS         .... on
   Start iteration      DIISMaxIt       ....    12
   Startup error        DIISStart       ....  0.200000
   # of expansion vecs  DIISMaxEq       ....     5
   Bias factor          DIISBfac        ....   1.050
   Max. coefficient     DIISMaxC        ....  10.000
 Newton-Raphson         CNVNR           .... off
 SOSCF                  CNVSOSCF        .... on
   Start iteration      SOSCFMaxIt      ....   150
   Startup grad/error   SOSCFStart      ....  0.003300
 Level Shifting         CNVShift        .... on
   Level shift para.    LevelShift      ....    0.2500
   Turn off err/grad.   ShiftErr        ....    0.0010
 Zerner damping         CNVZerner       .... off
 Static damping         CNVDamp         .... on
   Fraction old density DampFac         ....    0.7000
   Max. Damping (<1)    DampMax         ....    0.9800
   Min. Damping (>=0)   DampMin         ....    0.0000
   Turn off err/grad.   DampErr         ....    0.1000
 Fernandez-Rico         CNVRico         .... off

SCF Procedure:
 Maximum # iterations   MaxIter         ....   125
 SCF integral mode      SCFMode         .... Direct
   Integral package                     .... LIBINT
 Reset frequency        DirectResetFreq ....    20
 Integral Threshold     Thresh          ....  1.000e-10 Eh
 Primitive CutOff       TCut            ....  1.000e-11 Eh

Convergence Tolerance:
 Convergence Check Mode ConvCheckMode   .... Total+1el-Energy
 Convergence forced     ConvForced      .... 0
 Energy Change          TolE            ....  1.000e-06 Eh
 1-El. energy change                    ....  1.000e-03 Eh
 Orbital Gradient       TolG            ....  5.000e-05
 Orbital Rotation angle TolX            ....  5.000e-05
 DIIS Error             TolErr          ....  1.000e-06


Diagonalization of the overlap matrix:
Smallest eigenvalue                        ... 6.764e-07
Time for diagonalization                   ...    0.254 sec
Threshold for overlap eigenvalues          ... 1.000e-08
Number of eigenvalues below threshold      ... 0
Time for construction of square roots      ...    0.205 sec
Total time needed                          ...    0.466 sec

-------------------
DFT GRID GENERATION
-------------------

General Integration Accuracy     IntAcc      ...  4.670
Radial Grid Type                 RadialGrid  ... Gauss-Chebyshev
Angular Grid (max. acc.)         AngularGrid ... Lebedev-302
Angular grid pruning method      GridPruning ... 3 (G Style)
Weight generation scheme         WeightScheme... Becke
Basis function cutoff            BFCut       ...    1.0000e-10
Integration weight cutoff        WCut        ...    1.0000e-14
Grids for H and He will be reduced by one unit

# of grid points (after initial pruning)     ... 230664 (   0.0 sec)
# of grid points (after weights+screening)   ... 195513 (   0.3 sec)
nearest neighbour list constructed           ...    0.0 sec
Grid point re-assignment to atoms done       ...    0.0 sec
Grid point division into batches done        ...    0.6 sec
Reduced shell lists constructed in    0.8 sec

Total number of grid points                  ...   195513
Total number of batches                      ...     3078
Average number of points per batch           ...       63
Average number of grid points per atom       ...     3760
Average number of shells per batch           ...   294.28 (61.18%)
Average number of basis functions per batch  ...   768.50 (60.27%)
Average number of large shells per batch     ...   219.50 (74.59%)
Average number of large basis fcns per batch ...   565.16 (73.54%)
Maximum spatial batch extension              ...   7.97,  7.37, 15.23 au
Average spatial batch extension              ...   0.05,  0.05,  0.06 au

Time for grid setup =    1.194 sec

------------------------------
INITIAL GUESS: MODEL POTENTIAL
------------------------------
Loading Hartree-Fock densities                     ... done
Calculating cut-offs                               ... done
Setting up the integral package                    ... done
Initializing the effective Hamiltonian             ... done
Starting the Coulomb interaction                   ... done (   0.3 sec)
Reading the grid                                   ... done
Mapping shells                                     ... done
Starting the XC term evaluation                    ... done (   1.0 sec)
  promolecular density results
     # of electrons  =    155.982338653
     EX              =    -83.837053150
     EC              =     -6.415620098
     EX+EC           =    -90.252673248
Transforming the Hamiltonian                       ... done (   0.1 sec)
Diagonalizing the Hamiltonian                      ... done (   0.2 sec)
Back transforming the eigenvectors                 ... done (   0.1 sec)
Now organizing SCF variables                       ... done
                      ------------------
                      INITIAL GUESS DONE (   3.0 sec)
                      ------------------
--------------
SCF ITERATIONS
--------------
ITER       Energy         Delta-E        Max-DP      RMS-DP      [F,P]     Damp
               ***  Starting incremental Fock matrix formation  ***
  0  -1047.6137850529   0.000000000000 1.01501536  0.00312864  0.3015864 0.7000
  1  -1047.6762713362  -0.062486283310 0.83027530  0.00250877  0.1843019 0.7000
                               ***Turning on DIIS***
  2  -1047.7136024855  -0.037331149213 0.59793799  0.00182215  0.1267893 0.7000
  3  -1047.7379297705  -0.024327285061 1.38204959  0.00435512  0.0873014 0.0000
                      *** Initiating the SOSCF procedure ***
                           *** Shutting down DIIS ***
                      *** Re-Reading the Fockian *** 
                      *** Removing any level shift *** 
ITER      Energy       Delta-E        Grad      Rot      Max-DP    RMS-DP
  4  -1047.79508240  -0.0571526254  0.002130  0.002130  0.186047  0.000406
               *** Restarting incremental Fock matrix formation ***
  5  -1047.79553955  -0.0004571520  0.001321  0.003390  0.191178  0.000439
  6  -1047.79565987  -0.0001203227  0.000480  0.002205  0.109318  0.000259
  7  -1047.79567347  -0.0000135998  0.000088  0.000141  0.010833  0.000060
  8  -1047.79567751  -0.0000040356  0.000101  0.000033  0.013000  0.000082
  9  -1047.79567761  -0.0000001056  0.000047  0.000038  0.023364  0.000083
                 **** Energy Check signals convergence ****
              ***Rediagonalizing the Fockian in SOSCF/NRSCF***

               *****************************************************
               *                     SUCCESS                       *
               *           SCF CONVERGED AFTER  10 CYCLES          *
               *****************************************************


Setting up the DFT-NL grid :

General Integration Accuracy     IntAcc      ...  4.340
Radial Grid Type                 RadialGrid  ... Gauss-Chebyshev
Angular Grid (max. acc.)         AngularGrid ... Lebedev-110
Angular grid pruning method      GridPruning ... 3 (G Style)
Weight generation scheme         WeightScheme... Becke
Basis function cutoff            BFCut       ...    1.0000e-10
Integration weight cutoff        WCut        ...    1.0000e-14
Grids for H and He will be reduced by one unit

# of grid points (after initial pruning)     ...  57816 (   0.0 sec)
# of grid points (after weights+screening)   ...  50258 (   0.1 sec)
nearest neighbour list constructed           ...    0.0 sec
Grid point re-assignment to atoms done       ...    0.0 sec
Grid point division into batches done        ...    0.0 sec
Reduced shell lists constructed in    0.1 sec

Total number of grid points                  ...    50258
Total number of batches                      ...      812
Average number of points per batch           ...       61
Average number of grid points per atom       ...      966
Average number of shells per batch           ...   304.31 (63.27%)
Average number of basis functions per batch  ...   800.94 (62.82%)
Average number of large shells per batch     ...   227.66 (74.81%)
Average number of large basis fcns per batch ...   589.37 (73.58%)
Maximum spatial batch extension              ...   6.57,  7.33, 15.81 au
Average spatial batch extension              ...   0.08,  0.08,  0.09 au

Final grid set up in    0.2 sec

-------------------------------------------------------------------------------
                         DFT-NL dispersion correction                          
-------------------------------------------------------------------------------

SC Energy -1047.795677576 
NL    Energy 0.564541593 
SC+NL Energy -1047.231135983 
NL done in    0.8 sec
-------------------------------------------------------------------------------

----------------
TOTAL SCF ENERGY
----------------

Total Energy       :        -1047.23113598 Eh          -28496.60795 eV

Components:
Nuclear Repulsion  :         1736.71286454 Eh           47258.35961 eV
Electronic Energy  :        -2783.94400052 Eh          -75754.96756 eV
One Electron Energy:        -4876.91571307 Eh         -132707.62328 eV
Two Electron Energy:         2092.97171254 Eh           56952.65572 eV

Virial components:
Potential Energy   :        -2090.21473673 Eh          -56877.63459 eV
Kinetic Energy     :         1042.98360075 Eh           28381.02664 eV
Virial Ratio       :            2.00407249


DFT components:
N(Alpha)           :       77.999503822345 electrons
N(Beta)            :       77.999503822345 electrons
N(Total)           :      155.999007644690 electrons
E(X)               :      -85.935490802030 Eh       
E(C)               :       -6.450137033922 Eh       
NL Energy, E(C,NL) :        0.564541592920 Eh       
E(XC)              :      -91.821086243032 Eh       
DFET-embed. en.    :        0.000000000000 Eh       

---------------
SCF CONVERGENCE
---------------

  Last Energy change         ...    3.5771e-08  Tolerance :   1.0000e-06
  Last MAX-Density change    ...    6.1187e-02  Tolerance :   1.0000e-05
  Last RMS-Density change    ...    1.1285e-04  Tolerance :   1.0000e-06
  Last Orbital Gradient      ...    1.2922e-05  Tolerance :   5.0000e-05
  Last Orbital Rotation      ...    2.9668e-05  Tolerance :   5.0000e-05

             **** THE GBW FILE WAS UPDATED (MOR22_pcy3.gbw) ****
             **** DENSITY FILE WAS UPDATED (MOR22_pcy3.scfp) ****
             **** ENERGY FILE WAS UPDATED (MOR22_pcy3.en.tmp) ****
             **** THE GBW FILE WAS UPDATED (MOR22_pcy3.gbw) ****
             **** DENSITY FILE WAS UPDATED (MOR22_pcy3.scfp) ****
----------------
ORBITAL ENERGIES
----------------

  NO   OCC          E(Eh)            E(eV) 
   0   2.0000     -77.046179     -2096.5331 
   1   2.0000     -10.273122      -279.5459 
   2   2.0000     -10.271970      -279.5145 
   3   2.0000     -10.271688      -279.5068 
   4   2.0000     -10.265854      -279.3481 
   5   2.0000     -10.265686      -279.3435 
   6   2.0000     -10.265064      -279.3266 
   7   2.0000     -10.264857      -279.3210 
   8   2.0000     -10.264275      -279.3051 
   9   2.0000     -10.264066      -279.2994 
  10   2.0000     -10.263631      -279.2876 
  11   2.0000     -10.263620      -279.2873 
  12   2.0000     -10.263573      -279.2860 
  13   2.0000     -10.263553      -279.2855 
  14   2.0000     -10.263395      -279.2812 
  15   2.0000     -10.263161      -279.2748 
  16   2.0000     -10.262423      -279.2547 
  17   2.0000     -10.262262      -279.2504 
  18   2.0000     -10.261897      -279.2404 
  19   2.0000      -6.627523      -180.3441 
  20   2.0000      -4.781274      -130.1051 
  21   2.0000      -4.781125      -130.1010 
  22   2.0000      -4.776141      -129.9654 
  23   2.0000      -0.975293       -26.5391 
  24   2.0000      -0.964913       -26.2566 
  25   2.0000      -0.964474       -26.2447 
  26   2.0000      -0.894824       -24.3494 
  27   2.0000      -0.875238       -23.8164 
  28   2.0000      -0.873502       -23.7692 
  29   2.0000      -0.870821       -23.6962 
  30   2.0000      -0.866278       -23.5726 
  31   2.0000      -0.865105       -23.5407 
  32   2.0000      -0.767514       -20.8851 
  33   2.0000      -0.740056       -20.1379 
  34   2.0000      -0.736981       -20.0543 
  35   2.0000      -0.728853       -19.8331 
  36   2.0000      -0.722095       -19.6492 
  37   2.0000      -0.721504       -19.6331 
  38   2.0000      -0.686766       -18.6879 
  39   2.0000      -0.676228       -18.4011 
  40   2.0000      -0.671053       -18.2603 
  41   2.0000      -0.645929       -17.5766 
  42   2.0000      -0.594028       -16.1643 
  43   2.0000      -0.589911       -16.0523 
  44   2.0000      -0.582514       -15.8510 
  45   2.0000      -0.559336       -15.2203 
  46   2.0000      -0.552752       -15.0412 
  47   2.0000      -0.551877       -15.0173 
  48   2.0000      -0.551464       -15.0061 
  49   2.0000      -0.548963       -14.9380 
  50   2.0000      -0.545820       -14.8525 
  51   2.0000      -0.541714       -14.7408 
  52   2.0000      -0.526734       -14.3332 
  53   2.0000      -0.519914       -14.1476 
  54   2.0000      -0.493311       -13.4237 
  55   2.0000      -0.488673       -13.2975 
  56   2.0000      -0.485459       -13.2100 
  57   2.0000      -0.483593       -13.1592 
  58   2.0000      -0.482579       -13.1317 
  59   2.0000      -0.478296       -13.0151 
  60   2.0000      -0.463818       -12.6211 
  61   2.0000      -0.458759       -12.4835 
  62   2.0000      -0.454522       -12.3682 
  63   2.0000      -0.447934       -12.1889 
  64   2.0000      -0.446730       -12.1561 
  65   2.0000      -0.444371       -12.0920 
  66   2.0000      -0.437964       -11.9176 
  67   2.0000      -0.436957       -11.8902 
  68   2.0000      -0.428843       -11.6694 
  69   2.0000      -0.422959       -11.5093 
  70   2.0000      -0.413501       -11.2519 
  71   2.0000      -0.409642       -11.1469 
  72   2.0000      -0.402415       -10.9503 
  73   2.0000      -0.400493       -10.8980 
  74   2.0000      -0.397637       -10.8203 
  75   2.0000      -0.363123        -9.8811 
  76   2.0000      -0.362825        -9.8730 
  77   2.0000      -0.304648        -8.2899 
  78   0.0000       0.055084         1.4989 
  79   0.0000       0.061220         1.6659 
  80   0.0000       0.063131         1.7179 
  81   0.0000       0.066584         1.8118 
  82   0.0000       0.075853         2.0641 
  83   0.0000       0.077516         2.1093 
  84   0.0000       0.081162         2.2085 
  85   0.0000       0.082775         2.2524 
  86   0.0000       0.088302         2.4028 
  87   0.0000       0.095046         2.5863 
  88   0.0000       0.098959         2.6928 
  89   0.0000       0.102184         2.7806 
  90   0.0000       0.103268         2.8101 
  91   0.0000       0.114144         3.1060 
  92   0.0000       0.114817         3.1243 
  93   0.0000       0.117075         3.1858 
  94   0.0000       0.124324         3.3830 
  95   0.0000       0.129753         3.5308 
  96   0.0000       0.130830         3.5601 
  97   0.0000       0.138942         3.7808 
  98   0.0000       0.143258         3.8982 
  99   0.0000       0.146090         3.9753 
 100   0.0000       0.148907         4.0520 
 101   0.0000       0.151074         4.1109 
 102   0.0000       0.152730         4.1560 
 103   0.0000       0.159836         4.3494 
 104   0.0000       0.161762         4.4018 
 105   0.0000       0.165481         4.5030 
 106   0.0000       0.173222         4.7136 
 107   0.0000       0.174255         4.7417 
 108   0.0000       0.181476         4.9382 
 109   0.0000       0.183999         5.0069 
 110   0.0000       0.184502         5.0206 
 111   0.0000       0.190098         5.1728 
 112   0.0000       0.192585         5.2405 
 113   0.0000       0.197186         5.3657 
 114   0.0000       0.199737         5.4351 
 115   0.0000       0.203021         5.5245 
 116   0.0000       0.207579         5.6485 
 117   0.0000       0.211756         5.7622 
 118   0.0000       0.216266         5.8849 
 119   0.0000       0.217059         5.9065 
 120   0.0000       0.222689         6.0597 
 121   0.0000       0.230006         6.2588 
 122   0.0000       0.231949         6.3117 
 123   0.0000       0.232641         6.3305 
 124   0.0000       0.236136         6.4256 
 125   0.0000       0.239139         6.5073 
 126   0.0000       0.240515         6.5447 
 127   0.0000       0.243151         6.6165 
 128   0.0000       0.245279         6.6744 
 129   0.0000       0.245729         6.6866 
 130   0.0000       0.247641         6.7387 
 131   0.0000       0.252113         6.8603 
 132   0.0000       0.252646         6.8749 
 133   0.0000       0.256180         6.9710 
 134   0.0000       0.259997         7.0749 
 135   0.0000       0.262207         7.1350 
 136   0.0000       0.263880         7.1805 
 137   0.0000       0.268222         7.2987 
 138   0.0000       0.269151         7.3240 
 139   0.0000       0.270699         7.3661 
 140   0.0000       0.273096         7.4313 
 141   0.0000       0.273533         7.4432 
 142   0.0000       0.278508         7.5786 
 143   0.0000       0.279150         7.5960 
 144   0.0000       0.281371         7.6565 
 145   0.0000       0.283162         7.7052 
 146   0.0000       0.284712         7.7474 
 147   0.0000       0.287415         7.8210 
 148   0.0000       0.288879         7.8608 
 149   0.0000       0.293196         7.9783 
 150   0.0000       0.294128         8.0036 
 151   0.0000       0.295618         8.0442 
 152   0.0000       0.300146         8.1674 
 153   0.0000       0.301946         8.2164 
 154   0.0000       0.303665         8.2631 
 155   0.0000       0.307097         8.3565 
 156   0.0000       0.309235         8.4147 
 157   0.0000       0.312010         8.4902 
 158   0.0000       0.314074         8.5464 
 159   0.0000       0.317521         8.6402 
 160   0.0000       0.319240         8.6870 
 161   0.0000       0.319834         8.7031 
 162   0.0000       0.322473         8.7749 
 163   0.0000       0.326778         8.8921 
 164   0.0000       0.328008         8.9255 
 165   0.0000       0.330895         9.0041 
 166   0.0000       0.332452         9.0465 
 167   0.0000       0.336467         9.1557 
 168   0.0000       0.341507         9.2929 
 169   0.0000       0.342608         9.3228 
 170   0.0000       0.345055         9.3894 
 171   0.0000       0.348094         9.4721 
 172   0.0000       0.348898         9.4940 
 173   0.0000       0.350070         9.5259 
 174   0.0000       0.355198         9.6654 
 175   0.0000       0.357408         9.7256 
 176   0.0000       0.359609         9.7855 
 177   0.0000       0.362053         9.8520 
 178   0.0000       0.362927         9.8757 
 179   0.0000       0.365992         9.9592 
 180   0.0000       0.367564        10.0019 
 181   0.0000       0.369346        10.0504 
 182   0.0000       0.371035        10.0964 
 183   0.0000       0.373727        10.1696 
 184   0.0000       0.377814        10.2809 
 185   0.0000       0.379784        10.3345 
 186   0.0000       0.381843        10.3905 
 187   0.0000       0.384441        10.4612 
 188   0.0000       0.386878        10.5275 
 189   0.0000       0.387804        10.5527 
 190   0.0000       0.388022        10.5586 
 191   0.0000       0.392191        10.6721 
 192   0.0000       0.393600        10.7104 
 193   0.0000       0.394563        10.7366 
 194   0.0000       0.395636        10.7658 
 195   0.0000       0.395967        10.7748 
 196   0.0000       0.399469        10.8701 
 197   0.0000       0.400392        10.8952 
 198   0.0000       0.404153        10.9976 
 199   0.0000       0.405182        11.0256 
 200   0.0000       0.406444        11.0599 
 201   0.0000       0.408406        11.1133 
 202   0.0000       0.413136        11.2420 
 203   0.0000       0.414441        11.2775 
 204   0.0000       0.420614        11.4455 
 205   0.0000       0.423653        11.5282 
 206   0.0000       0.426091        11.5945 
 207   0.0000       0.427804        11.6411 
 208   0.0000       0.429809        11.6957 
 209   0.0000       0.431328        11.7370 
 210   0.0000       0.432887        11.7795 
 211   0.0000       0.438299        11.9267 
 212   0.0000       0.438965        11.9449 
 213   0.0000       0.439148        11.9498 
 214   0.0000       0.442884        12.0515 
 215   0.0000       0.444496        12.0953 
 216   0.0000       0.448249        12.1975 
 217   0.0000       0.449933        12.2433 
 218   0.0000       0.452914        12.3244 
 219   0.0000       0.453787        12.3482 
 220   0.0000       0.456642        12.4259 
 221   0.0000       0.458121        12.4661 
 222   0.0000       0.459788        12.5115 
 223   0.0000       0.461712        12.5638 
 224   0.0000       0.463000        12.5989 
 225   0.0000       0.468663        12.7530 
 226   0.0000       0.470498        12.8029 
 227   0.0000       0.473092        12.8735 
 228   0.0000       0.474270        12.9055 
 229   0.0000       0.478112        13.0101 
 230   0.0000       0.479329        13.0432 
 231   0.0000       0.482519        13.1300 
 232   0.0000       0.485658        13.2154 
 233   0.0000       0.486579        13.2405 
 234   0.0000       0.488636        13.2965 
 235   0.0000       0.490594        13.3498 
 236   0.0000       0.494155        13.4466 
 237   0.0000       0.497319        13.5327 
 238   0.0000       0.497923        13.5492 
 239   0.0000       0.504152        13.7187 
 240   0.0000       0.505485        13.7550 
 241   0.0000       0.506317        13.7776 
 242   0.0000       0.509580        13.8664 
 243   0.0000       0.510702        13.8969 
 244   0.0000       0.512037        13.9332 
 245   0.0000       0.517756        14.0889 
 246   0.0000       0.519017        14.1232 
 247   0.0000       0.524065        14.2605 
 248   0.0000       0.524446        14.2709 
 249   0.0000       0.528448        14.3798 
 250   0.0000       0.533297        14.5117 
 251   0.0000       0.537120        14.6158 
 252   0.0000       0.540550        14.7091 
 253   0.0000       0.541839        14.7442 
 254   0.0000       0.545207        14.8358 
 255   0.0000       0.546735        14.8774 
 256   0.0000       0.549047        14.9403 
 257   0.0000       0.550588        14.9823 
 258   0.0000       0.556484        15.1427 
 259   0.0000       0.560668        15.2565 
 260   0.0000       0.562934        15.3182 
 261   0.0000       0.564443        15.3593 
 262   0.0000       0.566500        15.4152 
 263   0.0000       0.571217        15.5436 
 264   0.0000       0.572309        15.5733 
 265   0.0000       0.573844        15.6151 
 266   0.0000       0.577254        15.7079 
 267   0.0000       0.579632        15.7726 
 268   0.0000       0.581469        15.8226 
 269   0.0000       0.583395        15.8750 
 270   0.0000       0.583866        15.8878 
 271   0.0000       0.589782        16.0488 
 272   0.0000       0.591216        16.0878 
 273   0.0000       0.594887        16.1877 
 274   0.0000       0.596920        16.2430 
 275   0.0000       0.597918        16.2702 
 276   0.0000       0.599828        16.3222 
 277   0.0000       0.601018        16.3545 
 278   0.0000       0.607353        16.5269 
 279   0.0000       0.609698        16.5907 
 280   0.0000       0.612167        16.6579 
 281   0.0000       0.613856        16.7039 
 282   0.0000       0.614814        16.7299 
 283   0.0000       0.618732        16.8366 
 284   0.0000       0.622334        16.9346 
 285   0.0000       0.625265        17.0143 
 286   0.0000       0.626817        17.0566 
 287   0.0000       0.629838        17.1388 
 288   0.0000       0.632893        17.2219 
 289   0.0000       0.634992        17.2790 
 290   0.0000       0.638074        17.3629 
 291   0.0000       0.641283        17.4502 
 292   0.0000       0.643198        17.5023 
 293   0.0000       0.645493        17.5648 
 294   0.0000       0.650882        17.7114 
 295   0.0000       0.653090        17.7715 
 296   0.0000       0.655682        17.8420 
 297   0.0000       0.659916        17.9572 
 298   0.0000       0.662078        18.0160 
 299   0.0000       0.664900        18.0929 
 300   0.0000       0.670539        18.2463 
 301   0.0000       0.673899        18.3377 
 302   0.0000       0.674894        18.3648 
 303   0.0000       0.678872        18.4730 
 304   0.0000       0.680180        18.5086 
 305   0.0000       0.682436        18.5700 
 306   0.0000       0.684275        18.6201 
 307   0.0000       0.689559        18.7638 
 308   0.0000       0.691925        18.8282 
 309   0.0000       0.692874        18.8541 
 310   0.0000       0.696671        18.9574 
 311   0.0000       0.698937        19.0190 
 312   0.0000       0.702458        19.1149 
 313   0.0000       0.704074        19.1588 
 314   0.0000       0.707905        19.2631 
 315   0.0000       0.713807        19.4237 
 316   0.0000       0.714741        19.4491 
 317   0.0000       0.718103        19.5406 
 318   0.0000       0.720327        19.6011 
 319   0.0000       0.722706        19.6658 
 320   0.0000       0.724525        19.7153 
 321   0.0000       0.725972        19.7547 
 322   0.0000       0.729029        19.8379 
 323   0.0000       0.729996        19.8642 
 324   0.0000       0.731772        19.9125 
 325   0.0000       0.732476        19.9317 
 326   0.0000       0.736039        20.0286 
 327   0.0000       0.738731        20.1019 
 328   0.0000       0.741140        20.1674 
 329   0.0000       0.742142        20.1947 
 330   0.0000       0.745738        20.2926 
 331   0.0000       0.748133        20.3577 
 332   0.0000       0.750863        20.4320 
 333   0.0000       0.757065        20.6008 
 334   0.0000       0.758808        20.6482 
 335   0.0000       0.759794        20.6751 
 336   0.0000       0.761501        20.7215 
 337   0.0000       0.761800        20.7296 
 338   0.0000       0.764621        20.8064 
 339   0.0000       0.766780        20.8651 
 340   0.0000       0.770578        20.9685 
 341   0.0000       0.774314        21.0702 
 342   0.0000       0.776458        21.1285 
 343   0.0000       0.777927        21.1685 
 344   0.0000       0.778633        21.1877 
 345   0.0000       0.782356        21.2890 
 346   0.0000       0.785280        21.3685 
 347   0.0000       0.785788        21.3824 
 348   0.0000       0.789215        21.4756 
 349   0.0000       0.790013        21.4974 
 350   0.0000       0.795227        21.6392 
 351   0.0000       0.795889        21.6573 
 352   0.0000       0.799820        21.7642 
 353   0.0000       0.801776        21.8174 
 354   0.0000       0.805023        21.9058 
 355   0.0000       0.809759        22.0347 
 356   0.0000       0.812767        22.1165 
 357   0.0000       0.814001        22.1501 
 358   0.0000       0.817282        22.2394 
 359   0.0000       0.819286        22.2939 
 360   0.0000       0.822315        22.3763 
 361   0.0000       0.825125        22.4528 
 362   0.0000       0.826178        22.4815 
 363   0.0000       0.829896        22.5826 
 364   0.0000       0.830350        22.5950 
 365   0.0000       0.837128        22.7794 
 366   0.0000       0.839261        22.8375 
 367   0.0000       0.840947        22.8833 
 368   0.0000       0.846658        23.0387 
 369   0.0000       0.849602        23.1188 
 370   0.0000       0.853120        23.2146 
 371   0.0000       0.855887        23.2899 
 372   0.0000       0.856663        23.3110 
 373   0.0000       0.858398        23.3582 
 374   0.0000       0.860801        23.4236 
 375   0.0000       0.865709        23.5572 
 376   0.0000       0.866853        23.5883 
 377   0.0000       0.869657        23.6646 
 378   0.0000       0.875514        23.8239 
 379   0.0000       0.877357        23.8741 
 380   0.0000       0.878564        23.9069 
 381   0.0000       0.880787        23.9674 
 382   0.0000       0.885463        24.0947 
 383   0.0000       0.890993        24.2451 
 384   0.0000       0.893964        24.3260 
 385   0.0000       0.896272        24.3888 
 386   0.0000       0.898068        24.4377 
 387   0.0000       0.900847        24.5133 
 388   0.0000       0.904103        24.6019 
 389   0.0000       0.906218        24.6595 
 390   0.0000       0.909858        24.7585 
 391   0.0000       0.912073        24.8188 
 392   0.0000       0.917378        24.9631 
 393   0.0000       0.919725        25.0270 
 394   0.0000       0.926928        25.2230 
 395   0.0000       0.929385        25.2899 
 396   0.0000       0.932582        25.3769 
 397   0.0000       0.937523        25.5113 
 398   0.0000       0.942304        25.6414 
 399   0.0000       0.945135        25.7184 
 400   0.0000       0.947999        25.7964 
 401   0.0000       0.951635        25.8953 
 402   0.0000       0.955267        25.9941 
 403   0.0000       0.960339        26.1322 
 404   0.0000       0.961119        26.1534 
 405   0.0000       0.963635        26.2218 
 406   0.0000       0.965048        26.2603 
 407   0.0000       0.973193        26.4819 
 408   0.0000       0.976310        26.5668 
 409   0.0000       0.981912        26.7192 
 410   0.0000       0.984159        26.7803 
 411   0.0000       0.987304        26.8659 
 412   0.0000       0.992405        27.0047 
 413   0.0000       0.994021        27.0487 
 414   0.0000       0.998999        27.1841 
 415   0.0000       1.002307        27.2742 
 416   0.0000       1.005760        27.3681 
 417   0.0000       1.008997        27.4562 
 418   0.0000       1.013844        27.5881 
 419   0.0000       1.017172        27.6787 
 420   0.0000       1.021049        27.7842 
 421   0.0000       1.024600        27.8808 
 422   0.0000       1.029576        28.0162 
 423   0.0000       1.037915        28.2431 
 424   0.0000       1.040588        28.3158 
 425   0.0000       1.044975        28.4352 
 426   0.0000       1.047832        28.5130 
 427   0.0000       1.048923        28.5427 
 428   0.0000       1.058975        28.8162 
 429   0.0000       1.059478        28.8299 
 430   0.0000       1.062926        28.9237 
 431   0.0000       1.064220        28.9589 
 432   0.0000       1.067430        29.0462 
 433   0.0000       1.073488        29.2111 
 434   0.0000       1.082257        29.4497 
 435   0.0000       1.083550        29.4849 
 436   0.0000       1.085653        29.5421 
 437   0.0000       1.088286        29.6138 
 438   0.0000       1.095569        29.8119 
 439   0.0000       1.105133        30.0722 
 440   0.0000       1.105563        30.0839 
 441   0.0000       1.109128        30.1809 
 442   0.0000       1.112279        30.2666 
 443   0.0000       1.115350        30.3502 
 444   0.0000       1.120692        30.4956 
 445   0.0000       1.125054        30.6143 
 446   0.0000       1.132474        30.8162 
 447   0.0000       1.138236        30.9730 
 448   0.0000       1.141325        31.0570 
 449   0.0000       1.143952        31.1285 
 450   0.0000       1.154175        31.4067 
 451   0.0000       1.154958        31.4280 
 452   0.0000       1.161056        31.5939 
 453   0.0000       1.167022        31.7563 
 454   0.0000       1.175725        31.9931 
 455   0.0000       1.178695        32.0739 
 456   0.0000       1.183107        32.1940 
 457   0.0000       1.185551        32.2605 
 458   0.0000       1.192563        32.4513 
 459   0.0000       1.193614        32.4799 
 460   0.0000       1.205772        32.8107 
 461   0.0000       1.212244        32.9868 
 462   0.0000       1.215684        33.0805 
 463   0.0000       1.224333        33.3158 
 464   0.0000       1.227902        33.4129 
 465   0.0000       1.231503        33.5109 
 466   0.0000       1.239415        33.7262 
 467   0.0000       1.242606        33.8130 
 468   0.0000       1.254152        34.1272 
 469   0.0000       1.258579        34.2477 
 470   0.0000       1.260739        34.3064 
 471   0.0000       1.264235        34.4016 
 472   0.0000       1.269739        34.5514 
 473   0.0000       1.276956        34.7477 
 474   0.0000       1.279299        34.8115 
 475   0.0000       1.283983        34.9390 
 476   0.0000       1.287484        35.0342 
 477   0.0000       1.292135        35.1608 
 478   0.0000       1.295123        35.2421 
 479   0.0000       1.303847        35.4795 
 480   0.0000       1.312590        35.7174 
 481   0.0000       1.322093        35.9760 
 482   0.0000       1.325724        36.0748 
 483   0.0000       1.327674        36.1278 
 484   0.0000       1.334087        36.3023 
 485   0.0000       1.339084        36.4383 
 486   0.0000       1.342213        36.5235 
 487   0.0000       1.345554        36.6144 
 488   0.0000       1.351852        36.7858 
 489   0.0000       1.359361        36.9901 
 490   0.0000       1.365064        37.1453 
 491   0.0000       1.366837        37.1935 
 492   0.0000       1.372920        37.3591 
 493   0.0000       1.377248        37.4768 
 494   0.0000       1.381872        37.6027 
 495   0.0000       1.384090        37.6630 
 496   0.0000       1.385677        37.7062 
 497   0.0000       1.392895        37.9026 
 498   0.0000       1.394458        37.9451 
 499   0.0000       1.404248        38.2115 
 500   0.0000       1.405298        38.2401 
 501   0.0000       1.408299        38.3218 
 502   0.0000       1.411288        38.4031 
 503   0.0000       1.422999        38.7218 
 504   0.0000       1.424207        38.7546 
 505   0.0000       1.428209        38.8635 
 506   0.0000       1.429749        38.9055 
 507   0.0000       1.434652        39.0389 
 508   0.0000       1.440256        39.1914 
 509   0.0000       1.445864        39.3440 
 510   0.0000       1.448681        39.4206 
 511   0.0000       1.451651        39.5014 
 512   0.0000       1.454378        39.5756 
 513   0.0000       1.457743        39.6672 
 514   0.0000       1.460897        39.7530 
 515   0.0000       1.462624        39.8000 
 516   0.0000       1.469671        39.9918 
 517   0.0000       1.472417        40.0665 
 518   0.0000       1.478338        40.2276 
 519   0.0000       1.479374        40.2558 
 520   0.0000       1.480979        40.2995 
 521   0.0000       1.485830        40.4315 
 522   0.0000       1.492633        40.6166 
 523   0.0000       1.493651        40.6443 
 524   0.0000       1.496597        40.7245 
 525   0.0000       1.497440        40.7474 
 526   0.0000       1.504339        40.9351 
 527   0.0000       1.507043        41.0087 
 528   0.0000       1.512314        41.1521 
 529   0.0000       1.515680        41.2438 
 530   0.0000       1.517607        41.2962 
 531   0.0000       1.521116        41.3917 
 532   0.0000       1.526567        41.5400 
 533   0.0000       1.529851        41.6294 
 534   0.0000       1.535906        41.7941 
 535   0.0000       1.541664        41.9508 
 536   0.0000       1.544982        42.0411 
 537   0.0000       1.548369        42.1333 
 538   0.0000       1.553025        42.2600 
 539   0.0000       1.555323        42.3225 
 540   0.0000       1.560015        42.4502 
 541   0.0000       1.568183        42.6724 
 542   0.0000       1.569642        42.7121 
 543   0.0000       1.573859        42.8269 
 544   0.0000       1.577669        42.9306 
 545   0.0000       1.588248        43.2184 
 546   0.0000       1.589961        43.2650 
 547   0.0000       1.595797        43.4238 
 548   0.0000       1.600787        43.5596 
 549   0.0000       1.602556        43.6078 
 550   0.0000       1.604158        43.6514 
 551   0.0000       1.611158        43.8418 
 552   0.0000       1.617804        44.0227 
 553   0.0000       1.620155        44.0866 
 554   0.0000       1.623790        44.1856 
 555   0.0000       1.626744        44.2659 
 556   0.0000       1.630528        44.3689 
 557   0.0000       1.632287        44.4168 
 558   0.0000       1.638068        44.5741 
 559   0.0000       1.643594        44.7245 
 560   0.0000       1.649158        44.8759 
 561   0.0000       1.657940        45.1148 
 562   0.0000       1.667474        45.3743 
 563   0.0000       1.670963        45.4692 
 564   0.0000       1.673227        45.5308 
 565   0.0000       1.679978        45.7145 
 566   0.0000       1.682486        45.7828 
 567   0.0000       1.683859        45.8201 
 568   0.0000       1.691927        46.0397 
 569   0.0000       1.695385        46.1338 
 570   0.0000       1.700623        46.2763 
 571   0.0000       1.705610        46.4120 
 572   0.0000       1.709626        46.5213 
 573   0.0000       1.717401        46.7329 
 574   0.0000       1.719217        46.7823 
 575   0.0000       1.722975        46.8845 
 576   0.0000       1.726449        46.9791 
 577   0.0000       1.735227        47.2179 
 578   0.0000       1.739537        47.3352 
 579   0.0000       1.742366        47.4122 
 580   0.0000       1.743447        47.4416 
 581   0.0000       1.747282        47.5460 
 582   0.0000       1.749721        47.6123 
 583   0.0000       1.755664        47.7740 
 584   0.0000       1.757410        47.8215 
 585   0.0000       1.758819        47.8599 
 586   0.0000       1.765333        48.0371 
 587   0.0000       1.770106        48.1670 
 588   0.0000       1.772256        48.2255 
 589   0.0000       1.778115        48.3850 
 590   0.0000       1.781498        48.4770 
 591   0.0000       1.785182        48.5773 
 592   0.0000       1.791931        48.7609 
 593   0.0000       1.795293        48.8524 
 594   0.0000       1.804091        49.0918 
 595   0.0000       1.813117        49.3374 
 596   0.0000       1.813469        49.3470 
 597   0.0000       1.819331        49.5065 
 598   0.0000       1.820898        49.5492 
 599   0.0000       1.824926        49.6588 
 600   0.0000       1.830333        49.8059 
 601   0.0000       1.833106        49.8814 
 602   0.0000       1.836161        49.9645 
 603   0.0000       1.846167        50.2368 
 604   0.0000       1.850072        50.3430 
 605   0.0000       1.851500        50.3819 
 606   0.0000       1.859804        50.6079 
 607   0.0000       1.863072        50.6968 
 608   0.0000       1.870577        50.9010 
 609   0.0000       1.876923        51.0737 
 610   0.0000       1.880681        51.1759 
 611   0.0000       1.882683        51.2304 
 612   0.0000       1.888290        51.3830 
 613   0.0000       1.893425        51.5227 
 614   0.0000       1.899150        51.6785 
 615   0.0000       1.902624        51.7730 
 616   0.0000       1.905472        51.8505 
 617   0.0000       1.916912        52.1618 
 618   0.0000       1.921840        52.2959 
 619   0.0000       1.923133        52.3311 
 620   0.0000       1.926434        52.4209 
 621   0.0000       1.932894        52.5967 
 622   0.0000       1.938979        52.7623 
 623   0.0000       1.943527        52.8861 
 624   0.0000       1.949549        53.0499 
 625   0.0000       1.958574        53.2955 
 626   0.0000       1.958916        53.3048 
 627   0.0000       1.963249        53.4227 
 628   0.0000       1.970761        53.6271 
 629   0.0000       1.978991        53.8511 
 630   0.0000       1.982629        53.9501 
 631   0.0000       1.986760        54.0625 
 632   0.0000       2.001815        54.4722 
 633   0.0000       2.003331        54.5134 
 634   0.0000       2.008315        54.6490 
 635   0.0000       2.012406        54.7603 
 636   0.0000       2.027609        55.1740 
 637   0.0000       2.034266        55.3552 
 638   0.0000       2.039660        55.5020 
 639   0.0000       2.048988        55.7558 
 640   0.0000       2.053528        55.8793 
 641   0.0000       2.054800        55.9140 
 642   0.0000       2.066899        56.2432 
 643   0.0000       2.077933        56.5434 
 644   0.0000       2.091591        56.9151 
 645   0.0000       2.094935        57.0061 
 646   0.0000       2.105059        57.2816 
 647   0.0000       2.113070        57.4995 
 648   0.0000       2.119958        57.6870 
 649   0.0000       2.129052        57.9344 
 650   0.0000       2.135317        58.1049 
 651   0.0000       2.142991        58.3138 
 652   0.0000       2.149160        58.4816 
 653   0.0000       2.159043        58.7505 
 654   0.0000       2.162580        58.8468 
 655   0.0000       2.168135        58.9980 
 656   0.0000       2.172900        59.1276 
 657   0.0000       2.182532        59.3897 
 658   0.0000       2.184685        59.4483 
 659   0.0000       2.197031        59.7842 
 660   0.0000       2.198524        59.8249 
 661   0.0000       2.214325        60.2548 
 662   0.0000       2.221739        60.4566 
 663   0.0000       2.232461        60.7484 
 664   0.0000       2.240972        60.9799 
 665   0.0000       2.247106        61.1469 
 666   0.0000       2.257689        61.4349 
 667   0.0000       2.263802        61.6012 
 668   0.0000       2.266666        61.6791 
 669   0.0000       2.273380        61.8618 
 670   0.0000       2.280198        62.0473 
 671   0.0000       2.291795        62.3629 
 672   0.0000       2.300381        62.5965 
 673   0.0000       2.311137        62.8892 
 674   0.0000       2.322679        63.2033 
 675   0.0000       2.328743        63.3683 
 676   0.0000       2.336929        63.5911 
 677   0.0000       2.343228        63.7625 
 678   0.0000       2.357862        64.1607 
 679   0.0000       2.365239        64.3614 
 680   0.0000       2.371324        64.5270 
 681   0.0000       2.377380        64.6918 
 682   0.0000       2.391212        65.0682 
 683   0.0000       2.394025        65.1447 
 684   0.0000       2.398604        65.2693 
 685   0.0000       2.408948        65.5508 
 686   0.0000       2.416684        65.7613 
 687   0.0000       2.419906        65.8490 
 688   0.0000       2.431338        66.1601 
 689   0.0000       2.434222        66.2385 
 690   0.0000       2.440304        66.4040 
 691   0.0000       2.449360        66.6505 
 692   0.0000       2.481928        67.5367 
 693   0.0000       2.485792        67.6418 
 694   0.0000       2.492836        67.8335 
 695   0.0000       2.499875        68.0250 
 696   0.0000       2.503237        68.1165 
 697   0.0000       2.511526        68.3421 
 698   0.0000       2.524612        68.6982 
 699   0.0000       2.535985        69.0077 
 700   0.0000       2.545634        69.2702 
 701   0.0000       2.558047        69.6080 
 702   0.0000       2.561735        69.7083 
 703   0.0000       2.573606        70.0314 
 704   0.0000       2.583695        70.3059 
 705   0.0000       2.589096        70.4529 
 706   0.0000       2.596668        70.6589 
 707   0.0000       2.611260        71.0560 
 708   0.0000       2.630452        71.5782 
 709   0.0000       2.639246        71.8175 
 710   0.0000       2.677652        72.8626 
 711   0.0000       2.690211        73.2044 
 712   0.0000       2.693493        73.2937 
 713   0.0000       2.700786        73.4921 
 714   0.0000       2.709426        73.7272 
 715   0.0000       2.712149        73.8013 
 716   0.0000       2.725817        74.1732 
 717   0.0000       2.744398        74.6789 
 718   0.0000       2.752934        74.9112 
 719   0.0000       2.761481        75.1437 
 720   0.0000       2.771966        75.4290 
 721   0.0000       2.777178        75.5709 
 722   0.0000       2.781790        75.6964 
 723   0.0000       2.786223        75.8170 
 724   0.0000       2.791144        75.9509 
 725   0.0000       2.794912        76.0534 
 726   0.0000       2.797375        76.1204 
 727   0.0000       2.804449        76.3129 
 728   0.0000       2.808932        76.4349 
 729   0.0000       2.816644        76.6448 
 730   0.0000       2.831898        77.0599 
 731   0.0000       2.839329        77.2621 
 732   0.0000       2.849322        77.5340 
 733   0.0000       2.859230        77.8036 
 734   0.0000       2.865328        77.9695 
 735   0.0000       2.871025        78.1246 
 736   0.0000       2.882749        78.4436 
 737   0.0000       2.904730        79.0417 
 738   0.0000       2.906465        79.0889 
 739   0.0000       2.913005        79.2669 
 740   0.0000       2.916969        79.3748 
 741   0.0000       2.920581        79.4730 
 742   0.0000       2.928476        79.6879 
 743   0.0000       2.932695        79.8027 
 744   0.0000       2.946841        80.1876 
 745   0.0000       2.961403        80.5839 
 746   0.0000       2.964384        80.6650 
 747   0.0000       2.970380        80.8281 
 748   0.0000       2.979890        81.0869 
 749   0.0000       2.985301        81.2342 
 750   0.0000       2.995839        81.5209 
 751   0.0000       3.019926        82.1764 
 752   0.0000       3.026415        82.3530 
 753   0.0000       3.033289        82.5400 
 754   0.0000       3.043132        82.8078 
 755   0.0000       3.049628        82.9846 
 756   0.0000       3.063588        83.3645 
 757   0.0000       3.067864        83.4808 
 758   0.0000       3.074240        83.6543 
 759   0.0000       3.083259        83.8998 
 760   0.0000       3.085556        83.9622 
 761   0.0000       3.087777        84.0227 
 762   0.0000       3.091161        84.1148 
 763   0.0000       3.093082        84.1670 
 764   0.0000       3.101105        84.3854 
 765   0.0000       3.104706        84.4833 
 766   0.0000       3.107181        84.5507 
 767   0.0000       3.114064        84.7380 
 768   0.0000       3.117264        84.8251 
 769   0.0000       3.125174        85.0403 
 770   0.0000       3.130865        85.1952 
 771   0.0000       3.143875        85.5492 
 772   0.0000       3.148690        85.6802 
 773   0.0000       3.152532        85.7848 
 774   0.0000       3.157176        85.9111 
 775   0.0000       3.158243        85.9402 
 776   0.0000       3.162874        86.0662 
 777   0.0000       3.166999        86.1784 
 778   0.0000       3.174579        86.3847 
 779   0.0000       3.182593        86.6028 
 780   0.0000       3.189990        86.8040 
 781   0.0000       3.194756        86.9337 
 782   0.0000       3.197162        86.9992 
 783   0.0000       3.200740        87.0966 
 784   0.0000       3.206672        87.2580 
 785   0.0000       3.211009        87.3760 
 786   0.0000       3.214389        87.4680 
 787   0.0000       3.221525        87.6621 
 788   0.0000       3.225167        87.7613 
 789   0.0000       3.231445        87.9321 
 790   0.0000       3.236432        88.0678 
 791   0.0000       3.238882        88.1345 
 792   0.0000       3.245983        88.3277 
 793   0.0000       3.257389        88.6381 
 794   0.0000       3.263623        88.8077 
 795   0.0000       3.267772        88.9206 
 796   0.0000       3.276585        89.1604 
 797   0.0000       3.284455        89.3746 
 798   0.0000       3.294055        89.6358 
 799   0.0000       3.300790        89.8191 
 800   0.0000       3.311493        90.1103 
 801   0.0000       3.313734        90.1713 
 802   0.0000       3.318228        90.2936 
 803   0.0000       3.324463        90.4632 
 804   0.0000       3.326810        90.5271 
 805   0.0000       3.333082        90.6978 
 806   0.0000       3.337818        90.8266 
 807   0.0000       3.343185        90.9727 
 808   0.0000       3.346610        91.0659 
 809   0.0000       3.348279        91.1113 
 810   0.0000       3.358548        91.3907 
 811   0.0000       3.361609        91.4740 
 812   0.0000       3.364322        91.5479 
 813   0.0000       3.369651        91.6929 
 814   0.0000       3.375852        91.8616 
 815   0.0000       3.377006        91.8930 
 816   0.0000       3.383487        92.0694 
 817   0.0000       3.384520        92.0975 
 818   0.0000       3.389189        92.2245 
 819   0.0000       3.392548        92.3159 
 820   0.0000       3.396816        92.4321 
 821   0.0000       3.398877        92.4881 
 822   0.0000       3.403840        92.6232 
 823   0.0000       3.406107        92.6849 
 824   0.0000       3.408442        92.7484 
 825   0.0000       3.416046        92.9553 
 826   0.0000       3.419552        93.0507 
 827   0.0000       3.428502        93.2943 
 828   0.0000       3.431013        93.3626 
 829   0.0000       3.432936        93.4149 
 830   0.0000       3.438957        93.5788 
 831   0.0000       3.445906        93.7679 
 832   0.0000       3.452588        93.9497 
 833   0.0000       3.454694        94.0070 
 834   0.0000       3.459204        94.1297 
 835   0.0000       3.460629        94.1685 
 836   0.0000       3.468976        94.3956 
 837   0.0000       3.477715        94.6334 
 838   0.0000       3.480366        94.7056 
 839   0.0000       3.486699        94.8779 
 840   0.0000       3.491547        95.0098 
 841   0.0000       3.494915        95.1015 
 842   0.0000       3.504072        95.3507 
 843   0.0000       3.510451        95.5242 
 844   0.0000       3.511558        95.5544 
 845   0.0000       3.517649        95.7201 
 846   0.0000       3.520187        95.7892 
 847   0.0000       3.526030        95.9482 
 848   0.0000       3.530190        96.0613 
 849   0.0000       3.530739        96.0763 
 850   0.0000       3.535235        96.1986 
 851   0.0000       3.537692        96.2655 
 852   0.0000       3.540101        96.3310 
 853   0.0000       3.548317        96.5546 
 854   0.0000       3.552218        96.6608 
 855   0.0000       3.564140        96.9852 
 856   0.0000       3.566332        97.0448 
 857   0.0000       3.570192        97.1499 
 858   0.0000       3.571517        97.1859 
 859   0.0000       3.575330        97.2897 
 860   0.0000       3.583223        97.5045 
 861   0.0000       3.592201        97.7488 
 862   0.0000       3.597839        97.9022 
 863   0.0000       3.602127        98.0189 
[...]
      px      :     0.099265
      py      :     0.117879
      dz2     :     0.006771  d :     0.030240
      dxz     :     0.005044
      dyz     :     0.005892
      dx2y2   :     0.007120
      dxy     :     0.005414
 21 H s       :     0.670758  s :     0.670758
      pz      :     0.082760  p :     0.302578
      px      :     0.133920
      py      :     0.085898
      dz2     :     0.004013  d :     0.030035
      dxz     :     0.009081
      dyz     :     0.000759
      dx2y2   :     0.007353
      dxy     :     0.008830
 22 H s       :     0.694344  s :     0.694344
      pz      :     0.120013  p :     0.262412
      px      :     0.069810
      py      :     0.072589
      dz2     :     0.010163  d :     0.029590
      dxz     :     0.008939
      dyz     :     0.009121
      dx2y2   :     0.000894
      dxy     :     0.000473
 23 H s       :     0.681776  s :     0.681776
      pz      :     0.093753  p :     0.267167
      px      :     0.086228
      py      :     0.087187
      dz2     :     0.006292  d :     0.029748
      dxz     :     0.004884
      dyz     :     0.005097
      dx2y2   :     0.007394
      dxy     :     0.006082
 24 H s       :     0.695449  s :     0.695449
      pz      :     0.070412  p :     0.263339
      px      :     0.073865
      py      :     0.119063
      dz2     :     0.002990  d :     0.029590
      dxz     :     0.000696
      dyz     :     0.008690
      dx2y2   :     0.008251
      dxy     :     0.008963
 25 H s       :     0.683736  s :     0.683736
      pz      :     0.084551  p :     0.266049
      px      :     0.086097
      py      :     0.095401
      dz2     :     0.006723  d :     0.029725
      dxz     :     0.005694
      dyz     :     0.005012
      dx2y2   :     0.006976
      dxy     :     0.005319
 26 H s       :     0.682788  s :     0.682788
      pz      :     0.084560  p :     0.266862
      px      :     0.094596
      py      :     0.087707
      dz2     :     0.006867  d :     0.029763
      dxz     :     0.004904
      dyz     :     0.005918
      dx2y2   :     0.006821
      dxy     :     0.005253
 27 H s       :     0.694759  s :     0.694759
      pz      :     0.073679  p :     0.262596
      px      :     0.119333
      py      :     0.069584
      dz2     :     0.003859  d :     0.029591
      dxz     :     0.008990
      dyz     :     0.000615
      dx2y2   :     0.007333
      dxy     :     0.008794
 28 H s       :     0.683760  s :     0.683760
      pz      :     0.119926  p :     0.273913
      px      :     0.075091
      py      :     0.078896
      dz2     :     0.010350  d :     0.029792
      dxz     :     0.008817
      dyz     :     0.009090
      dx2y2   :     0.000956
      dxy     :     0.000580
 29 H s       :     0.667509  s :     0.667509
      pz      :     0.101576  p :     0.300355
      px      :     0.087134
      py      :     0.111645
      dz2     :     0.006541  d :     0.030146
      dxz     :     0.004981
      dyz     :     0.005260
      dx2y2   :     0.007315
      dxy     :     0.006048
 30 H s       :     0.658219  s :     0.658219
      pz      :     0.080323  p :     0.330649
      px      :     0.123997
      py      :     0.126329
      dz2     :     0.003124  d :     0.031817
      dxz     :     0.004096
      dyz     :     0.005763
      dx2y2   :     0.010420
      dxy     :     0.008413
 31 H s       :     0.682415  s :     0.682415
      pz      :     0.075953  p :     0.267163
      px      :     0.094682
      py      :     0.096528
      dz2     :     0.002891  d :     0.029747
      dxz     :     0.004620
      dyz     :     0.004760
      dx2y2   :     0.009499
      dxy     :     0.007976
 32 H s       :     0.677551  s :     0.677551
      pz      :     0.086504  p :     0.283876
      px      :     0.116992
      py      :     0.080380
      dz2     :     0.006585  d :     0.029906
      dxz     :     0.007764
      dyz     :     0.003132
      dx2y2   :     0.005649
      dxy     :     0.006775
 33 H s       :     0.665953  s :     0.665953
      pz      :     0.076373  p :     0.299842
      px      :     0.104188
      py      :     0.119282
      dz2     :     0.002976  d :     0.030249
      dxz     :     0.004562
      dyz     :     0.005015
      dx2y2   :     0.009686
      dxy     :     0.008009
 34 H s       :     0.694550  s :     0.694550
      pz      :     0.117979  p :     0.262602
      px      :     0.074260
      py      :     0.070363
      dz2     :     0.010484  d :     0.029576
      dxz     :     0.009038
      dyz     :     0.008485
      dx2y2   :     0.000504
      dxy     :     0.001065
 35 H s       :     0.695506  s :     0.695506
      pz      :     0.073533  p :     0.263489
      px      :     0.077688
      py      :     0.112268
      dz2     :     0.004023  d :     0.029598
      dxz     :     0.002245
      dyz     :     0.007277
      dx2y2   :     0.007656
      dxy     :     0.008396
 36 H s       :     0.683778  s :     0.683778
      pz      :     0.069071  p :     0.266165
      px      :     0.093286
      py      :     0.103808
      dz2     :     0.003052  d :     0.029725
      dxz     :     0.005067
      dyz     :     0.004359
      dx2y2   :     0.009506
      dxy     :     0.007742
 37 H s       :     0.694988  s :     0.694988
      pz      :     0.084792  p :     0.262941
      px      :     0.106041
      py      :     0.072108
      dz2     :     0.006508  d :     0.029590
      dxz     :     0.007684
      dyz     :     0.002842
      dx2y2   :     0.005594
      dxy     :     0.006962
 38 H s       :     0.683028  s :     0.683028
      pz      :     0.070428  p :     0.267227
      px      :     0.099911
      py      :     0.096887
      dz2     :     0.003087  d :     0.029744
      dxz     :     0.004304
      dyz     :     0.005148
      dx2y2   :     0.009473
      dxy     :     0.007732
 39 H s       :     0.687461  s :     0.687461
      pz      :     0.118865  p :     0.275926
      px      :     0.081941
      py      :     0.075120
      dz2     :     0.010718  d :     0.029873
      dxz     :     0.008991
      dyz     :     0.008509
      dx2y2   :     0.000526
      dxy     :     0.001128
 40 H s       :     0.671036  s :     0.671036
      pz      :     0.079319  p :     0.297803
      px      :     0.095744
      py      :     0.122741
      dz2     :     0.002890  d :     0.030026
      dxz     :     0.004597
      dyz     :     0.004928
      dx2y2   :     0.009537
      dxy     :     0.008075
 41 H s       :     0.661927  s :     0.661927
      pz      :     0.133133  p :     0.316200
      px      :     0.095549
      py      :     0.087518
      dz2     :     0.011341  d :     0.031447
      dxz     :     0.009863
      dyz     :     0.009002
      dx2y2   :     0.000408
      dxy     :     0.000833
 42 H s       :     0.673355  s :     0.673355
      pz      :     0.084443  p :     0.301507
      px      :     0.105726
      py      :     0.111339
      dz2     :     0.003321  d :     0.029997
      dxz     :     0.002245
      dyz     :     0.007122
      dx2y2   :     0.008977
      dxy     :     0.008332
 43 H s       :     0.674909  s :     0.674909
      pz      :     0.121757  p :     0.273742
      px      :     0.078424
      py      :     0.073561
      dz2     :     0.010725  d :     0.029875
      dxz     :     0.009403
      dyz     :     0.008926
      dx2y2   :     0.000237
      dxy     :     0.000583
 44 H s       :     0.682966  s :     0.682966
      pz      :     0.121099  p :     0.266210
      px      :     0.072816
      py      :     0.072296
      dz2     :     0.010421  d :     0.029737
      dxz     :     0.009234
      dyz     :     0.009021
      dx2y2   :     0.000362
      dxy     :     0.000699
 45 H s       :     0.694417  s :     0.694417
      pz      :     0.076906  p :     0.262821
      px      :     0.086867
      py      :     0.099047
      dz2     :     0.004140  d :     0.029604
      dxz     :     0.003866
      dyz     :     0.005349
      dx2y2   :     0.008671
      dxy     :     0.007578
 46 H s       :     0.683738  s :     0.683738
      pz      :     0.123148  p :     0.266098
      px      :     0.074724
      py      :     0.068225
      dz2     :     0.010089  d :     0.029728
      dxz     :     0.009587
      dyz     :     0.008581
      dx2y2   :     0.000500
      dxy     :     0.000971
 47 H s       :     0.695773  s :     0.695773
      pz      :     0.087963  p :     0.263042
      px      :     0.106534
      py      :     0.068544
      dz2     :     0.006439  d :     0.029584
      dxz     :     0.007819
      dyz     :     0.002245
      dx2y2   :     0.005883
      dxy     :     0.007200
 48 H s       :     0.694579  s :     0.694579
      pz      :     0.073858  p :     0.263098
      px      :     0.080002
      py      :     0.109237
      dz2     :     0.003361  d :     0.029612
      dxz     :     0.002282
      dyz     :     0.006890
      dx2y2   :     0.008720
      dxy     :     0.008358
 49 H s       :     0.683132  s :     0.683132
      pz      :     0.120333  p :     0.266116
      px      :     0.071743
      py      :     0.074040
      dz2     :     0.010627  d :     0.029742
      dxz     :     0.009354
      dyz     :     0.008905
      dx2y2   :     0.000236
      dxy     :     0.000620
 50 H s       :     0.679374  s :     0.679374
      pz      :     0.080176  p :     0.293614
      px      :     0.113445
      py      :     0.099992
      dz2     :     0.004217  d :     0.030037
      dxz     :     0.003825
      dyz     :     0.005570
      dx2y2   :     0.008800
      dxy     :     0.007625
 51 H s       :     0.675886  s :     0.675886
      pz      :     0.122975  p :     0.272515
      px      :     0.076891
      py      :     0.072649
      dz2     :     0.010489  d :     0.029804
      dxz     :     0.009303
      dyz     :     0.009069
      dx2y2   :     0.000322
      dxy     :     0.000620


                      *****************************
                      * MAYER POPULATION ANALYSIS *
                      *****************************

  NA   - Mulliken gross atomic population
  ZA   - Total nuclear charge
  QA   - Mulliken gross atomic charge
  VA   - Mayer's total valence
  BVA  - Mayer's bonded valence
  FA   - Mayer's free valence

  ATOM       NA         ZA         QA         VA         BVA        FA
  0 P     16.0813    15.0000    -1.0813     2.3335     2.3335    -0.0000
  1 C      5.5445     6.0000     0.4555     4.7371     4.7371    -0.0000
  2 C      5.7974     6.0000     0.2026     4.1175     4.1175    -0.0000
  3 C      6.3819     6.0000    -0.3819     4.4267     4.4267     0.0000
  4 C      6.0766     6.0000    -0.0766     4.2571     4.2571    -0.0000
  5 C      6.2826     6.0000    -0.2826     4.3726     4.3726    -0.0000
  6 C      6.2396     6.0000    -0.2396     4.6890     4.6890    -0.0000
  7 C      5.3000     6.0000     0.7000     4.6402     4.6402    -0.0000
  8 C      6.0142     6.0000    -0.0142     4.5893     4.5893    -0.0000
  9 C      6.2221     6.0000    -0.2221     4.2985     4.2985     0.0000
 10 C      6.1493     6.0000    -0.1493     4.2991     4.2991    -0.0000
 11 C      6.2803     6.0000    -0.2803     4.3627     4.3627    -0.0000
 12 C      6.2260     6.0000    -0.2260     4.2376     4.2376    -0.0000
 13 C      5.6576     6.0000     0.3424     4.8893     4.8893    -0.0000
 14 C      6.1461     6.0000    -0.1461     4.1736     4.1736     0.0000
 15 C      6.1094     6.0000    -0.1094     4.2279     4.2279    -0.0000
 16 C      6.2843     6.0000    -0.2843     4.4480     4.4480    -0.0000
 17 C      6.0315     6.0000    -0.0315     4.0873     4.0873    -0.0000
 18 C      6.1654     6.0000    -0.1654     4.0156     4.0156     0.0000
 19 H      0.6765     1.0000     0.3235     0.4849     0.4849     0.0000
 20 H      0.9729     1.0000     0.0271     0.8484     0.8484     0.0000
 21 H      1.2361     1.0000    -0.2361     1.0306     1.0306    -0.0000
 22 H      0.9679     1.0000     0.0321     1.0831     1.0831     0.0000
 23 H      0.8802     1.0000     0.1198     0.9689     0.9689     0.0000
 24 H      0.9447     1.0000     0.0553     1.0712     1.0712    -0.0000
 25 H      0.9115     1.0000     0.0885     0.9853     0.9853    -0.0000
 26 H      0.8865     1.0000     0.1135     0.9779     0.9779    -0.0000
 27 H      0.9716     1.0000     0.0284     1.1022     1.1022    -0.0000
 28 H      0.9346     1.0000     0.0654     0.9308     0.9308    -0.0000
 29 H      0.9520     1.0000     0.0480     0.9016     0.9016    -0.0000
 30 H      0.8263     1.0000     0.1737     0.6833     0.6833    -0.0000
 31 H      0.9050     1.0000     0.0950     0.9822     0.9822     0.0000
 32 H      1.1415     1.0000    -0.1415     1.0589     1.0589     0.0000
 33 H      0.9215     1.0000     0.0785     0.7985     0.7985    -0.0000
 34 H      0.9721     1.0000     0.0279     1.0855     1.0855     0.0000
 35 H      0.9388     1.0000     0.0612     1.0693     1.0693     0.0000
 36 H      0.9114     1.0000     0.0886     0.9940     0.9940    -0.0000
 37 H      0.9764     1.0000     0.0236     1.0950     1.0950    -0.0000
 38 H      0.8831     1.0000     0.1169     0.9758     0.9758     0.0000
 39 H      0.9742     1.0000     0.0258     0.9305     0.9305    -0.0000
 40 H      0.9431     1.0000     0.0569     0.9682     0.9682    -0.0000
 41 H      0.7942     1.0000     0.2058     0.4674     0.4674    -0.0000
 42 H      1.1388     1.0000    -0.1388     1.1157     1.1157     0.0000
 43 H      0.7457     1.0000     0.2543     0.7922     0.7922     0.0000
 44 H      0.9307     1.0000     0.0693     0.9927     0.9927     0.0000
 45 H      0.9494     1.0000     0.0506     1.0361     1.0361    -0.0000
 46 H      0.8881     1.0000     0.1119     0.9740     0.9740    -0.0000
 47 H      0.9579     1.0000     0.0421     1.0925     1.0925    -0.0000
 48 H      0.9509     1.0000     0.0491     1.0506     1.0506    -0.0000
 49 H      0.9259     1.0000     0.0741     0.9818     0.9818    -0.0000
 50 H      1.1997     1.0000    -0.1997     1.2009     1.2009     0.0000
 51 H      0.8006     1.0000     0.1994     0.8657     0.8657     0.0000

  Mayer bond orders larger than 0.100000
B(  0-P ,  1-C ) :   0.7529 B(  0-P ,  6-C ) :   0.2722 B(  0-P ,  7-C ) :   0.6212 
B(  0-P ,  8-C ) :   0.2055 B(  0-P , 13-C ) :   0.6971 B(  0-P , 14-C ) :   0.2207 
B(  0-P , 39-H ) :  -0.1146 B(  1-C ,  2-C ) :   1.0332 B(  1-C ,  3-C ) :   0.2842 
B(  1-C ,  5-C ) :   0.3407 B(  1-C ,  6-C ) :   1.2291 B(  1-C ,  7-C ) :   0.1855 
B(  1-C , 19-H ) :   0.8666 B(  2-C ,  3-C ) :   1.0241 B(  2-C ,  6-C ) :   0.1529 
B(  2-C , 19-H ) :  -0.1057 B(  2-C , 20-H ) :   0.9520 B(  2-C , 21-H ) :   0.9938 
B(  3-C ,  4-C ) :   1.0147 B(  3-C ,  5-C ) :   0.2025 B(  3-C , 21-H ) :   0.1246 
B(  3-C , 22-H ) :   0.9335 B(  3-C , 23-H ) :   0.9726 B(  4-C ,  5-C ) :   1.0204 
B(  4-C , 24-H ) :   0.9960 B(  4-C , 25-H ) :   0.9763 B(  5-C ,  6-C ) :   0.9656 
B(  5-C , 26-H ) :   0.9794 B(  5-C , 27-H ) :   0.9490 B(  6-C , 28-H ) :   0.9011 
B(  6-C , 29-H ) :   1.0418 B(  7-C ,  8-C ) :   1.2003 B(  7-C ,  9-C ) :   0.2616 
B(  7-C , 11-C ) :   0.2588 B(  7-C , 12-C ) :   1.1468 B(  7-C , 13-C ) :   0.1711 
B(  7-C , 30-H ) :   0.8620 B(  8-C ,  9-C ) :   0.9746 B(  8-C , 10-C ) :   0.1165 
B(  8-C , 32-H ) :   0.9950 B(  8-C , 33-H ) :   0.9745 B(  9-C , 10-C ) :   1.0235 
B(  9-C , 11-C ) :   0.1707 B(  9-C , 31-H ) :   0.9663 B(  9-C , 34-H ) :   0.9389 
B( 10-C , 11-C ) :   1.0330 B( 10-C , 35-H ) :   0.9999 B( 10-C , 36-H ) :   0.9860 
B( 11-C , 12-C ) :   0.9162 B( 11-C , 37-H ) :   0.9794 B( 11-C , 38-H ) :   0.9797 
B( 12-C , 39-H ) :   0.9832 B( 12-C , 40-H ) :   1.0146 B( 13-C , 14-C ) :   1.1462 
B( 13-C , 15-C ) :   0.2766 B( 13-C , 17-C ) :   0.1937 B( 13-C , 18-C ) :   1.1272 
B( 13-C , 41-H ) :   0.9412 B( 14-C , 15-C ) :   0.8450 B( 14-C , 16-C ) :   0.2004 
B( 14-C , 41-H ) :  -0.1356 B( 14-C , 42-H ) :   1.0192 B( 14-C , 43-H ) :   0.8695 
B( 15-C , 16-C ) :   1.0206 B( 15-C , 42-H ) :   0.1271 B( 15-C , 44-H ) :   0.9772 
B( 15-C , 45-H ) :   0.9986 B( 16-C , 17-C ) :   0.9981 B( 16-C , 18-C ) :   0.2196 
B( 16-C , 46-H ) :   0.9858 B( 16-C , 47-H ) :   0.9999 B( 17-C , 18-C ) :   0.8224 
B( 17-C , 48-H ) :   0.9956 B( 17-C , 49-H ) :   0.9587 B( 18-C , 41-H ) :  -0.1260 
B( 18-C , 50-H ) :   1.0308 B( 18-C , 51-H ) :   0.8727 

-------
TIMINGS
-------

Total SCF time: 0 days 0 hours 37 min 48 sec 

Total time                  ....    2268.105 sec
Sum of individual times     ....    2264.928 sec  ( 99.9%)

Fock matrix formation       ....    2256.696 sec  ( 99.5%)
  XC integration            ....      13.389 sec  (  0.6% of F)
    Basis function eval.    ....       2.122 sec  ( 15.8% of XC)
    Density eval.           ....       5.022 sec  ( 37.5% of XC)
    XC-Functional eval.     ....       0.132 sec  (  1.0% of XC)
    XC-Potential eval.      ....       4.144 sec  ( 30.9% of XC)
Diagonalization             ....       1.493 sec  (  0.1%)
Density matrix formation    ....       0.174 sec  (  0.0%)
Population analysis         ....       0.398 sec  (  0.0%)
Initial guess               ....       1.798 sec  (  0.1%)
Orbital Transformation      ....       0.000 sec  (  0.0%)
Orbital Orthonormalization  ....       0.000 sec  (  0.0%)
DIIS solution               ....       1.042 sec  (  0.0%)
SOSCF solution              ....       1.925 sec  (  0.1%)
Grid generation             ....       1.402 sec  (  0.1%)

-------------------------   --------------------
FINAL SINGLE POINT ENERGY     -1047.231135983015
-------------------------   --------------------


                            ***************************************
                            *     ORCA property calculations      *
                            ***************************************

                                    ---------------------
                                    Active property flags
                                    ---------------------
   (+) Dipole Moment


------------------------------------------------------------------------------
                       ORCA ELECTRIC PROPERTIES CALCULATION
------------------------------------------------------------------------------

Dipole Moment Calculation                       ... on
Quadrupole Moment Calculation                   ... off
Polarizability Calculation                      ... off
GBWName                                         ... MOR22_pcy3.gbw
Electron density file                           ... MOR22_pcy3.scfp
The origin for moment calculation is the CENTER OF MASS  = (-0.009096, -0.003360 -0.045198)

-------------
DIPOLE MOMENT
-------------
                                X             Y             Z
Electronic contribution:     -1.36757      -0.48100      -6.51790
Nuclear contribution   :      1.41899       0.52417       7.05083
                        -----------------------------------------
Total Dipole Moment    :      0.05142       0.04316       0.53293
                        -----------------------------------------
Magnitude (a.u.)       :      0.53714
Magnitude (Debye)      :      1.36531



--------------------
Rotational spectrum 
--------------------
 
Rotational constants in cm-1:     0.011612     0.009073     0.005947 
Rotational constants in MHz :   348.132374   272.016111   178.294122 

 Dipole components along the rotational axes: 
x,y,z [a.u.] :     0.052423    -0.043198     0.532830 
x,y,z [Debye]:     0.133249    -0.109801     1.354345 

 

Timings for individual modules:

Sum of individual times         ...     2270.597 sec (=  37.843 min)
GTO integral calculation        ...        2.065 sec (=   0.034 min)   0.1 %
SCF iterations                  ...     2268.532 sec (=  37.809 min)  99.9 %
                             ****ORCA TERMINATED NORMALLY****
TOTAL RUN TIME: 0 days 0 hours 37 minutes 51 seconds 521 msec
