
                                 *****************
                                 * O   R   C   A *
                                 *****************

           --- An Ab Initio, DFT and Semiempirical electronic structure package ---

                  #######################################################
                  #                        -***-                        #
                  #          Department of theory and spectroscopy      #
                  #               Directorship: Frank Neese             #
                  #        Max Planck Institute fuer Kohlenforschung    #
                  #                Kaiser Wilhelm Platz 1               #
                  #                 D-45470 Muelheim/Ruhr               #
                  #                      Germany                        #
                  #                                                     #
                  #                  All rights reserved                #
                  #                        -***-                        #
                  #######################################################


                         Program Version 4.2.0 -  RELEASE  -


 With contributions from (in alphabetic order):
   Daniel Aravena         : Magnetic Suceptibility
   Michael Atanasov       : Ab Initio Ligand Field Theory (pilot matlab implementation)
   Alexander A. Auer      : GIAO ZORA, VPT2
   Ute Becker             : Parallelization
   Giovanni Bistoni       : ED, misc. LED, open-shell LED, HFLED
   Martin Brehm           : Molecular dynamics
   Dmytro Bykov           : SCF Hessian
   Vijay G. Chilkuri      : MRCI spin determinant printing, contributions to CSF-ICE
   Dipayan Datta          : RHF DLPNO-CCSD density
   Achintya Kumar Dutta   : EOM-CC, STEOM-CC
   Dmitry Ganyushin       : Spin-Orbit,Spin-Spin,Magnetic field MRCI
   Miquel Garcia          : C-PCM Hessian, Gaussian charge scheme
   Yang Guo               : DLPNO-NEVPT2, CIM, IAO-localization
   Andreas Hansen         : Spin unrestricted coupled pair/coupled cluster methods
   Benjamin Helmich-Paris : CASSCF linear response (MC-RPA)
   Lee Huntington         : MR-EOM, pCC
   Robert Izsak           : Overlap fitted RIJCOSX, COSX-SCS-MP3, EOM
   Christian Kollmar      : KDIIS, OOCD, Brueckner-CCSD(T), CCSD density
   Simone Kossmann        : Meta GGA functionals, TD-DFT gradient, OOMP2, MP2 Hessian
   Martin Krupicka        : AUTO-CI
   Lucas Lang             : DCDCAS
   Dagmar Lenk            : GEPOL surface, SMD
   Dimitrios Liakos       : Extrapolation schemes; Compound Job, initial MDCI parallelization
   Dimitrios Manganas     : Further ROCIS development; embedding schemes
   Dimitrios Pantazis     : SARC Basis sets
   Taras Petrenko         : DFT Hessian,TD-DFT gradient, ASA, ECA, R-Raman, ABS, FL, XAS/XES, NRVS
   Peter Pinski           : DLPNO-MP2, DLPNO-MP2 Gradient
   Christoph Reimann      : Effective Core Potentials
   Marius Retegan         : Local ZFS, SOC
   Christoph Riplinger    : Optimizer, TS searches, QM/MM, DLPNO-CCSD(T), (RO)-DLPNO pert. Triples
   Tobias Risthaus        : Range-separated hybrids, TD-DFT gradient, RPA, STAB
   Michael Roemelt        : Original ROCIS implementation
   Masaaki Saitow         : Open-shell DLPNO-CCSD energy and density
   Barbara Sandhoefer     : DKH picture change effects
   Avijit Sen             : IP-ROCIS
   Kantharuban Sivalingam : CASSCF convergence, NEVPT2, FIC-MRCI
   Bernardo de Souza      : ESD, SOC TD-DFT
   Georgi Stoychev        : AutoAux, RI-MP2 NMR
   Willem Van den Heuvel  : Paramagnetic NMR
   Boris Wezisla          : Elementary symmetry handling
   Frank Wennmohs         : Technical directorship


 We gratefully acknowledge several colleagues who have allowed us to
 interface, adapt or use parts of their codes:
   Stefan Grimme, W. Hujo, H. Kruse,             : VdW corrections, initial TS optimization,
                  C. Bannwarth                     DFT functionals, gCP, sTDA/sTD-DF
   Ed Valeev, F. Pavosevic, A. Kumar             : LibInt (2-el integral package), F12 methods
   Garnet Chan, S. Sharma, J. Yang, R. Olivares  : DMRG
   Ulf Ekstrom                                   : XCFun DFT Library
   Mihaly Kallay                                 : mrcc  (arbitrary order and MRCC methods)
   Andreas Klamt, Michael Diedenhofen            : otool_cosmo (COSMO solvation model)
   Jiri Pittner, Ondrej Demel                    : Mk-CCSD
   Frank Weinhold                                : gennbo (NPA and NBO analysis)
   Christopher J. Cramer and Donald G. Truhlar   : smd solvation model
   Lars Goerigk                                  : TD-DFT with DH, B97 family of functionals
   V. Asgeirsson, H. Jonsson                     : NEB implementation
   FAccTs GmbH                                   : IRC, NEB, NEB-TS, Multilevel, MM, QM/MM, CI optimization
   S Lehtola, MJT Oliveira, MAL Marques          : LibXC Library


 Your calculation uses the libint2 library for the computation of 2-el integrals
 For citations please refer to: http://libint.valeyev.net

 Your ORCA version has been built with support for libXC version: 4.2.3
 For citations please refer to: https://tddft.org/programs/libxc/

 This ORCA versions uses:
   CBLAS   interface :  Fast vector & matrix operations
   LAPACKE interface :  Fast linear algebra routines
   SCALAPACK package :  Parallel linear algebra routines


Your calculation utilizes the DFT-NL dispersion correction.
Cite in your paper:
Vydrov, O. A.; Van Voorhis, T. J. Chem. Phys. 2010, 133, 244103
Hujo, W.; Grimme, S. J. Chem. Theory Comput. 2011, 7, 3866 
   

----- Orbital basis set information -----
Your calculation utilizes the basis: def2-TZVPPD
   F. Weigend and R. Ahlrichs, Phys. Chem. Chem. Phys. 7, 3297 (2005).
   D. Rappoport and F. Furche, J. Chem. Phys. 133 134105 (2010).

----- AuxJK basis set information -----
Your calculation utilizes the auxiliary basis: def2/JK
   H-Ba, Hf-Rn: F. Weigend, J. Comput. Chem. 29, 167 (2008).

cite the ECPs for Pd [Def2-ECP], I  [Def2-ECP] as follows:
Ce-Yb(ecp-28): M. Dolg, H. Stoll, H.Preuss, J. Chem. Phys., 1989, 90, 1730-1734.
Y-Cd(ecp-28), Hf-Hg(ecp-46): D. Andrae,U. Haeussermann, M. Dolg, H. Stoll, H. Preuss, Theor. Chim. Acta, 1990, 77, 123-141.
In-Sb(ecp-28), Tl-Bi(ecp-46): B. Metz, H. Stoll, M. Dolg, J. Chem. Phys., 2000, 113, 2563-2569.
Te-Xe(ecp-28), Po-Rn(ecp-46): K. A. Peterson, D. Figgen, E. Goll, H. Stoll, M. Dolg, J. Chem. Phys., 2003, 119, 11113-11123.
Rb(ecp-28), Cs(ecp-46): T. Leininger, A. Nicklass, W. Kuechle, H. Stoll, M. Dolg, A. Bergner, Chem. Phys. Lett., 1996, 255, 274-280.
Sr(ecp-28), Ba(ecp-46): M. Kaupp, P. V. Schleyer, H. Stoll and H. Preuss, J. Chem. Phys., 1991, 94, 1360-1366.
La(ecp-46): M. Dolg, H. Stoll, A. Savin, H. Preuss, Theor. Chim. Acta, 1989, 75, 173-194.
Lu(ecp-28): X. Cao, M. Dolg, J. Chem. Phys., 2001, 115, 7348-7355.

ECP parameters for Pd [Def2-ECP], I  [Def2-ECP] have been obtained from:
TURBOMOLE (7.0.2)

================================================================================
                                        WARNINGS
                       Please study these warnings very carefully!
================================================================================


INFO   : the flag for use of LIBINT has been found!

================================================================================
                                       INPUT FILE
================================================================================
NAME = MOR29_pr11.in
|  1> #
|  2> # MOR29_pr11 wB97X-V/Def2-TZVPPD
|  3> #
|  4> ! wb97x-v def2-tzvppd def2/jk grid4 nofinalgrid
|  5> 
|  6> *xyz 0 1
|  7> C       -1.039290   -2.639432    0.178033 
|  8> C       -2.178017   -3.305635   -0.258724 
|  9> C       -3.296391   -2.550827   -0.605540 
| 10> C       -3.231094   -1.166811   -0.503382 
| 11> H       -0.140242   -3.178187    0.457229 
| 12> H       -2.180740   -4.388297   -0.324253 
| 13> H       -4.206388   -3.031472   -0.950846 
| 14> H       -4.092575   -0.563880   -0.765153 
| 15> N       -0.970920   -1.306381    0.272680 
| 16> C       -2.050199   -0.559703   -0.062217 
| 17> C       -1.896627    0.903347    0.053727 
| 18> N       -0.715899    1.344389    0.547476 
| 19> C       -0.493208    2.660516    0.650101 
| 20> C       -2.657172    3.172580   -0.229603 
| 21> C       -1.435330    3.611046    0.276469 
| 22> H        0.481431    2.944320    1.031789 
| 23> H       -1.207232    4.666962    0.373432 
| 24> C       -2.888209    1.807210   -0.342538 
| 25> H       -3.826394    1.449184   -0.749672 
| 26> H       -3.416704    3.882938   -0.540755 
| 27> Pd       0.796966   -0.183618    0.920224 
| 28> C        2.296006    1.038742    1.594093 
| 29> H        1.829551    1.776866    2.255021 
| 30> H        2.734263    1.506656    0.710942 
| 31> H        3.050202    0.480142    2.149825 
| 32> C        2.162541   -1.690695    1.159536 
| 33> H        3.086547   -1.399047    0.660601 
| 34> H        1.744149   -2.568037    0.656862 
| 35> H        2.334771   -1.896294    2.218292 
| 36> I        1.451603    0.093477   -1.772045 
| 37> C        0.284011   -0.444486    2.913651 
| 38> H       -0.123661   -1.453796    3.016265 
| 39> H       -0.476481    0.304111    3.153737 
| 40> H        1.159721   -0.321172    3.551993 
| 41> *
| 42> 
| 43> %maxcore 5000
| 44> 
| 45> %pal
| 46> nprocs = 24
| 47> end
| 48> 
| 49> 
| 50>                          ****END OF INPUT****
================================================================================

                       ****************************
                       * Single Point Calculation *
                       ****************************

---------------------------------
CARTESIAN COORDINATES (ANGSTROEM)
---------------------------------
  C     -1.039290   -2.639432    0.178033
  C     -2.178017   -3.305635   -0.258724
  C     -3.296391   -2.550827   -0.605540
  C     -3.231094   -1.166811   -0.503382
  H     -0.140242   -3.178187    0.457229
  H     -2.180740   -4.388297   -0.324253
  H     -4.206388   -3.031472   -0.950846
  H     -4.092575   -0.563880   -0.765153
  N     -0.970920   -1.306381    0.272680
  C     -2.050199   -0.559703   -0.062217
  C     -1.896627    0.903347    0.053727
  N     -0.715899    1.344389    0.547476
  C     -0.493208    2.660516    0.650101
  C     -2.657172    3.172580   -0.229603
  C     -1.435330    3.611046    0.276469
  H      0.481431    2.944320    1.031789
  H     -1.207232    4.666962    0.373432
  C     -2.888209    1.807210   -0.342538
  H     -3.826394    1.449184   -0.749672
  H     -3.416704    3.882938   -0.540755
  Pd     0.796966   -0.183618    0.920224
  C      2.296006    1.038742    1.594093
  H      1.829551    1.776866    2.255021
  H      2.734263    1.506656    0.710942
  H      3.050202    0.480142    2.149825
  C      2.162541   -1.690695    1.159536
  H      3.086547   -1.399047    0.660601
  H      1.744149   -2.568037    0.656862
  H      2.334771   -1.896294    2.218292
  I      1.451603    0.093477   -1.772045
  C      0.284011   -0.444486    2.913651
  H     -0.123661   -1.453796    3.016265
  H     -0.476481    0.304111    3.153737
  H      1.159721   -0.321172    3.551993

----------------------------
CARTESIAN COORDINATES (A.U.)
----------------------------
  NO LB      ZA    FRAG     MASS         X           Y           Z
   0 C     6.0000    0    12.011   -1.963973   -4.987804    0.336434
   1 C     6.0000    0    12.011   -4.115856   -6.246745   -0.488918
   2 C     6.0000    0    12.011   -6.229276   -4.820364   -1.144305
   3 C     6.0000    0    12.011   -6.105883   -2.204953   -0.951254
   4 H     1.0000    0     1.008   -0.265019   -6.005903    0.864038
   5 H     1.0000    0     1.008   -4.121001   -8.292680   -0.612749
   6 H     1.0000    0     1.008   -7.948921   -5.728652   -1.796839
   7 H     1.0000    0     1.008   -7.733846   -1.065579   -1.445930
   8 N     7.0000    0    14.007   -1.834773   -2.468702    0.515291
   9 C     6.0000    0    12.011   -3.874315   -1.057685   -0.117573
  10 C     6.0000    0    12.011   -3.584106    1.707078    0.101529
  11 N     7.0000    0    14.007   -1.352853    2.540527    1.034580
  12 C     6.0000    0    12.011   -0.932028    5.027647    1.228513
  13 C     6.0000    0    12.011   -5.021327    5.995307   -0.433887
  14 C     6.0000    0    12.011   -2.712381    6.823888    0.522451
  15 H     1.0000    0     1.008    0.909773    5.563958    1.949799
  16 H     1.0000    0     1.008   -2.281338    8.819280    0.705684
  17 C     6.0000    0    12.011   -5.457924    3.415132   -0.647303
  18 H     1.0000    0     1.008   -7.230837    2.738561   -1.416675
  19 H     1.0000    0     1.008   -6.456635    7.337689   -1.021879
  20 Pd   18.0000*   0   106.400    1.506047   -0.346988    1.738971
  21 C     6.0000    0    12.011    4.338823    1.962938    3.012399
  22 H     1.0000    0     1.008    3.457350    3.357790    4.261372
  23 H     1.0000    0     1.008    5.167008    2.847167    1.343486
  24 H     1.0000    0     1.008    5.764046    0.907337    4.062580
  25 C     6.0000    0    12.011    4.086610   -3.194951    2.191205
  26 H     1.0000    0     1.008    5.832729   -2.643816    1.248355
  27 H     1.0000    0     1.008    3.295964   -4.852887    1.241289
  28 H     1.0000    0     1.008    4.412078   -3.583476    4.191964
  29 I    25.0000*   0   126.900    2.743132    0.176646   -3.348680
  30 C     6.0000    0    12.011    0.536703   -0.839957    5.506002
  31 H     1.0000    0     1.008   -0.233685   -2.747276    5.699915
  32 H     1.0000    0     1.008   -0.900419    0.574687    5.959699
  33 H     1.0000    0     1.008    2.191555   -0.606927    6.712294
* core charge reduced due to ECP

--------------------------------
INTERNAL COORDINATES (ANGSTROEM)
--------------------------------
 C      0   0   0     0.000000000000     0.00000000     0.00000000
 C      1   0   0     1.389705830306     0.00000000     0.00000000
 C      2   1   0     1.393117675789   118.44448162     0.00000000
 C      3   2   1     1.389316466263   118.92792810     0.05916770
 H      1   2   3     1.084663386837   121.46415666   180.20842894
 H      2   1   3     1.084646703224   119.97032286   179.91547136
 H      3   2   1     1.085518488866   120.81502284   180.04090038
 H      4   3   2     1.083604799068   119.94451291   180.23859788
 N      1   2   3     1.338154505321   122.79604946   359.66649001
 C      9   1   2     1.354447192080   119.40469273     0.28057599
 C     10   9   1     1.475649915400   116.37321805   180.62123412
 N     11  10   9     1.353670835450   116.26117034   356.75580447
 C     12  11  10     1.338773114547   119.56094190   178.36476360
 C     13  12  11     2.391407297180    91.82154270     0.33278804
 C     13  12  11     1.389497036776   122.62337423     0.46576057
 H     13  12  11     1.084505242072   115.70454357   181.36799837
 H     15  13  12     1.084614733456   119.95702003   180.30734640
 C     14  13  12     1.389376711513    88.27785414   359.75311469
 H     18  14  13     1.083573626874   119.94847000   181.01490311
 H     14  13  12     1.085501227218   151.48938411   180.72399266
 Pd    12  11  10     2.182316881614   116.03024856     4.95678126
 C     21  12  11     2.048263733107    98.37756521   179.07231697
 H     22  21  12     1.095095031303   106.80230978    41.78024171
 H     22  21  12     1.091314985807   106.47156584   282.25304466
 H     22  21  12     1.090726190315   111.59517464   161.30211664
 C     21  12  11     2.047766197079   175.99432652    31.93596921
 H     26  21  22     1.089854016905   108.35691892   309.55325171
 H     26  21  22     1.094286069044   106.34397680   192.30149991
 H     26  21  22     1.092198878061   110.91510338    71.78789321
 I     21  12  11     2.784536516039    85.88022312    84.64449556
 C     21  12  11     2.074831595522    94.63156578   266.26163143
 H     31  21  12     1.093358481323   107.36250332   113.53064485
 H     31  21  12     1.093794696398   107.26120474   354.62995155
 H     31  21  12     1.090667160806   110.46263830   233.97833980

---------------------------
INTERNAL COORDINATES (A.U.)
---------------------------
 C      0   0   0     0.000000000000     0.00000000     0.00000000
 C      1   0   0     2.626163425992     0.00000000     0.00000000
 C      2   1   0     2.632610879566   118.44448162     0.00000000
 C      3   2   1     2.625427634584   118.92792810     0.05916770
 H      1   2   3     2.049716748614   121.46415666   180.20842894
 H      2   1   3     2.049685221153   119.97032286   179.91547136
 H      3   2   1     2.051332657265   120.81502284   180.04090038
 H      4   3   2     2.047716307641   119.94451291   180.23859788
 N      1   2   3     2.528745539929   122.79604946   359.66649001
 C      9   1   2     2.559534255890   119.40469273     0.28057599
 C     10   9   1     2.788574209650   116.37321805   180.62123412
 N     11  10   9     2.558067154478   116.26117034   356.75580447
 C     12  11  10     2.529914541951   119.56094190   178.36476360
 C     13  12  11     4.519104866332    91.82154270     0.33278804
 C     13  12  11     2.625768863401   122.62337423     0.46576057
 H     13  12  11     2.049417898317   115.70454357   181.36799837
 H     15  13  12     2.049624807047   119.95702003   180.30734640
 C     14  13  12     2.625541481607    88.27785414   359.75311469
 H     18  14  13     2.047657400732   119.94847000   181.01490311
 H     14  13  12     2.051300037478   151.48938411   180.72399266
 Pd    12  11  10     4.123981243684   116.03024856     4.95678126
 C     21  12  11     3.870657505615    98.37756521   179.07231697
 H     22  21  12     2.069429699781   106.80230978    41.78024171
 H     22  21  12     2.062286449019   106.47156584   282.25304466
 H     22  21  12     2.061173786791   111.59517464   161.30211664
 C     21  12  11     3.869717298780   175.99432652    31.93596921
 H     26  21  22     2.059525617905   108.35691892   309.55325171
 H     26  21  22     2.067900982659   106.34397680   192.30149991
 H     26  21  22     2.063956763311   110.91510338    71.78789321
 I     21  12  11     5.262011425217    85.88022312    84.64449556
 C     21  12  11     3.920863489544    94.63156578   266.26163143
 H     31  21  12     2.066148095900   107.36250332   113.53064485
 H     31  21  12     2.066972422928   107.26120474   354.62995155
 H     31  21  12     2.061062237184   110.46263830   233.97833980

---------------------
BASIS SET INFORMATION
---------------------
There are 5 groups of distinct atoms

 Group   1 Type C   : 12s6p3d1f contracted to 6s3p3d1f pattern {621111/411/111/1}
 Group   2 Type H   : 5s3p1d contracted to 3s3p1d pattern {311/111/1}
 Group   3 Type N   : 12s6p3d1f contracted to 6s3p3d1f pattern {621111/411/111/1}
 Group   4 Type Pd  : 7s7p6d2f1g contracted to 6s4p3d2f1g pattern {211111/4111/411/11/1}
 Group   5 Type I   : 12s11p9d2f contracted to 7s6p4d2f pattern {5211111/341111/6111/11}

Atom   0C    basis set group =>   1
Atom   1C    basis set group =>   1
Atom   2C    basis set group =>   1
Atom   3C    basis set group =>   1
Atom   4H    basis set group =>   2
Atom   5H    basis set group =>   2
Atom   6H    basis set group =>   2
Atom   7H    basis set group =>   2
Atom   8N    basis set group =>   3
Atom   9C    basis set group =>   1
Atom  10C    basis set group =>   1
Atom  11N    basis set group =>   3
Atom  12C    basis set group =>   1
Atom  13C    basis set group =>   1
Atom  14C    basis set group =>   1
Atom  15H    basis set group =>   2
Atom  16H    basis set group =>   2
Atom  17C    basis set group =>   1
Atom  18H    basis set group =>   2
Atom  19H    basis set group =>   2
Atom  20Pd   basis set group =>   4
Atom  21C    basis set group =>   1
Atom  22H    basis set group =>   2
Atom  23H    basis set group =>   2
Atom  24H    basis set group =>   2
Atom  25C    basis set group =>   1
Atom  26H    basis set group =>   2
Atom  27H    basis set group =>   2
Atom  28H    basis set group =>   2
Atom  29I    basis set group =>   5
Atom  30C    basis set group =>   1
Atom  31H    basis set group =>   2
Atom  32H    basis set group =>   2
Atom  33H    basis set group =>   2
----------------------------------
AUXILIARY/JK BASIS SET INFORMATION
----------------------------------
There are 5 groups of distinct atoms

 Group   1 Type C   : 14s10p6d2f1g contracted to 10s8p5d1f1g pattern {5111111111/31111111/21111/2/1}
 Group   2 Type H   : 4s2p2d contracted to 2s2p2d pattern {31/11/11}
 Group   3 Type N   : 14s10p6d2f1g contracted to 10s8p4d2f1g pattern {5111111111/31111111/3111/11/1}
 Group   4 Type Pd  : 13s12p10d9f6g3h2i contracted to 11s10p9d8f6g3h2i pattern {31111111111/3111111111/211111111/21111111/111111/111/11}
 Group   5 Type I   : 13s12p11d8f6g3h contracted to 11s10p10d7f5g3h pattern {31111111111/3111111111/2111111111/2111111/21111/111}

Atom   0C    basis set group =>   1
Atom   1C    basis set group =>   1
Atom   2C    basis set group =>   1
Atom   3C    basis set group =>   1
Atom   4H    basis set group =>   2
Atom   5H    basis set group =>   2
Atom   6H    basis set group =>   2
Atom   7H    basis set group =>   2
Atom   8N    basis set group =>   3
Atom   9C    basis set group =>   1
Atom  10C    basis set group =>   1
Atom  11N    basis set group =>   3
Atom  12C    basis set group =>   1
Atom  13C    basis set group =>   1
Atom  14C    basis set group =>   1
Atom  15H    basis set group =>   2
Atom  16H    basis set group =>   2
Atom  17C    basis set group =>   1
Atom  18H    basis set group =>   2
Atom  19H    basis set group =>   2
Atom  20Pd   basis set group =>   4
Atom  21C    basis set group =>   1
Atom  22H    basis set group =>   2
Atom  23H    basis set group =>   2
Atom  24H    basis set group =>   2
Atom  25C    basis set group =>   1
Atom  26H    basis set group =>   2
Atom  27H    basis set group =>   2
Atom  28H    basis set group =>   2
Atom  29I    basis set group =>   5
Atom  30C    basis set group =>   1
Atom  31H    basis set group =>   2
Atom  32H    basis set group =>   2
Atom  33H    basis set group =>   2
-------------------------
ECP PARAMETER INFORMATION
-------------------------

 Group 1, Type Pd ECP Def2-ECP (replacing 28 core electrons, lmax=3)
 Group 2, Type I  ECP Def2-ECP (replacing 28 core electrons, lmax=3)

Atom  20Pd   ECP group =>   1
Atom  29I    ECP group =>   2



           ************************************************************
           *        Program running with 24 parallel MPI-processes    *
           *              working on a common directory               *
           ************************************************************
------------------------------------------------------------------------------
                           ORCA GTO INTEGRAL CALCULATION
------------------------------------------------------------------------------

                         BASIS SET STATISTICS AND STARTUP INFO

 # of primitive gaussian shells          ...  540
 # of primitive gaussian functions       ... 1288
 # of contracted shells                  ...  349
 # of contracted basis functions         ...  959
 Highest angular momentum                ...    4
 Maximum contraction depth               ...    6
 Integral package used                   ... LIBINT
 Integral threshhold            Thresh   ...  1.000e-10
 Primitive cut-off              TCut     ...  1.000e-11


------------------------------ INTEGRAL EVALUATION ----------------------------


 * One electron integrals 

   ECP integrals                         ... done
 Pre-screening matrix                    ... done
 Shell pair data                         ... done (   0.014 sec)



           ************************************************************
           *        Program running with 24 parallel MPI-processes    *
           *              working on a common directory               *
           ************************************************************
-------------------------------------------------------------------------------
                                 ORCA SCF
-------------------------------------------------------------------------------

------------
SCF SETTINGS
------------
Hamiltonian:
 Density Functional     Method          .... DFT(GTOs)
 Exchange Functional    Exchange        .... WB97X-V
 Correlation Functional Correlation     .... WB97X-V
 Gradients option       PostSCFGGA      .... off
 Hybrid DFT is turned on
   Fraction HF Exchange ScalHFX         ....  0.167000
   Scaling of DF-GGA-X  ScalDFX         ....  0.000000
   Scaling of DF-GGA-C  ScalDFC         ....  1.000000
   Scaling of DF-LDA-C  ScalLDAC        ....  1.000000
   Perturbative correction              ....  0.000000
   Density functional embedding theory  .... OFF
 Long-range corrected/Screened/Range-Separated Hybrid DFT is turned on
   Amount of maximum screened exact exchange              ....  0.833000
   Range separation parameter mu (erf(mu*r12)/r12)        ....  0.300000
   NL short-range parameter             ....  6.000000
   NL long-range parameter              ....  0.010000


General Settings:
 Integral files         IntName         .... MOR29_pr11
 Hartree-Fock type      HFTyp           .... RHF
 Total Charge           Charge          ....    0
 Multiplicity           Mult            ....    1
 Number of Electrons    NEL             ....  152
 Basis Dimension        Dim             ....  959
 Nuclear Repulsion      ENuc            ....   1690.8617730577 Eh

Convergence Acceleration:
 DIIS                   CNVDIIS         .... on
   Start iteration      DIISMaxIt       ....    12
   Startup error        DIISStart       ....  0.200000
   # of expansion vecs  DIISMaxEq       ....     5
   Bias factor          DIISBfac        ....   1.050
   Max. coefficient     DIISMaxC        ....  10.000
 Newton-Raphson         CNVNR           .... off
 SOSCF                  CNVSOSCF        .... off
 Level Shifting         CNVShift        .... on
   Level shift para.    LevelShift      ....    0.2500
   Turn off err/grad.   ShiftErr        ....    0.0010
 Zerner damping         CNVZerner       .... off
 Static damping         CNVDamp         .... on
   Fraction old density DampFac         ....    0.7000
   Max. Damping (<1)    DampMax         ....    0.9800
   Min. Damping (>=0)   DampMin         ....    0.0000
   Turn off err/grad.   DampErr         ....    0.1000
 Fernandez-Rico         CNVRico         .... off

SCF Procedure:
 Maximum # iterations   MaxIter         ....   125
 SCF integral mode      SCFMode         .... Direct
   Integral package                     .... LIBINT
 Reset frequency        DirectResetFreq ....    20
 Integral Threshold     Thresh          ....  1.000e-10 Eh
 Primitive CutOff       TCut            ....  1.000e-11 Eh

Convergence Tolerance:
 Convergence Check Mode ConvCheckMode   .... Total+1el-Energy
 Convergence forced     ConvForced      .... 0
 Energy Change          TolE            ....  1.000e-06 Eh
 1-El. energy change                    ....  1.000e-03 Eh
 DIIS Error             TolErr          ....  1.000e-06


Diagonalization of the overlap matrix:
Smallest eigenvalue                        ... 1.498e-07
Time for diagonalization                   ...    0.168 sec
Threshold for overlap eigenvalues          ... 1.000e-08
Number of eigenvalues below threshold      ... 0
Time for construction of square roots      ...    0.113 sec
Total time needed                          ...    0.284 sec

-------------------
DFT GRID GENERATION
-------------------

General Integration Accuracy     IntAcc      ...  4.670
Radial Grid Type                 RadialGrid  ... Gauss-Chebyshev
Angular Grid (max. acc.)         AngularGrid ... Lebedev-302
Angular grid pruning method      GridPruning ... 3 (G Style)
Weight generation scheme         WeightScheme... Becke
Basis function cutoff            BFCut       ...    1.0000e-10
Integration weight cutoff        WCut        ...    1.0000e-14
Grids for H and He will be reduced by one unit

# of grid points (after initial pruning)     ... 172302 (   0.0 sec)
# of grid points (after weights+screening)   ... 150815 (   0.1 sec)
nearest neighbour list constructed           ...    0.0 sec
Grid point re-assignment to atoms done       ...    0.0 sec
Grid point division into batches done        ...    0.5 sec
Reduced shell lists constructed in    0.7 sec

Total number of grid points                  ...   150815
Total number of batches                      ...     2375
Average number of points per batch           ...       63
Average number of grid points per atom       ...     4436
Average number of shells per batch           ...   192.56 (55.17%)
Average number of basis functions per batch  ...   517.28 (53.94%)
Average number of large shells per batch     ...   141.18 (73.32%)
Average number of large basis fcns per batch ...   382.50 (73.94%)
Maximum spatial batch extension              ...  15.50, 20.34, 20.40 au
Average spatial batch extension              ...   0.07,  0.08,  0.07 au

Time for grid setup =    0.882 sec

------------------------------
INITIAL GUESS: MODEL POTENTIAL
------------------------------
Loading Hartree-Fock densities                     ... done
  calling /sw/apps/orca/orca_4_2_0_linux_x86-64_openmpi314/orca MOR29_pr11_atom46.inp > MOR29_pr11_atom46.out in order to generate an atomic fitting density for atom 20 (Pd with ECP) on-the-fly... 
    atom 20 (Pd), assumed electronic state with S=3: 1s2 2s2 2p6 3s2 3p6 4s2 3d10 4p6 5s2 4d8           ... done
  calling /sw/apps/orca/orca_4_2_0_linux_x86-64_openmpi314/orca MOR29_pr11_atom53.inp > MOR29_pr11_atom53.out in order to generate an atomic fitting density for atom 29 (I  with ECP) on-the-fly... 
    atom 29 (I ), assumed electronic state with S=2: 1s2 2s2 2p6 3s2 3p6 4s2 3d10 4p6 5s2 4d10 5p5           ... done
Calculating cut-offs                               ... done
Setting up the integral package                    ... done
Initializing the effective Hamiltonian             ... done
Starting the Coulomb interaction                   ... done (   0.1 sec)
Reading the grid                                   ... done
Mapping shells                                     ... done
Starting the XC term evaluation                    ... done (   0.5 sec)
  promolecular density results
     # of electrons  =    207.985699172
     EX              =   -301.574055722
     EC              =    -11.375501978
     EX+EC           =   -312.949557700
Transforming the Hamiltonian                       ... done (   0.1 sec)
Diagonalizing the Hamiltonian                      ... done (   0.2 sec)
Back transforming the eigenvectors                 ... done (   0.0 sec)
Now organizing SCF variables                       ... done
                      ------------------
                      INITIAL GUESS DONE (   4.0 sec)
                      ------------------
--------------
SCF ITERATIONS
--------------
ITER       Energy         Delta-E        Max-DP      RMS-DP      [F,P]     Damp
               ***  Starting incremental Fock matrix formation  ***
  0   -772.0357204534   0.000000000000176.36354584  0.58017270  6.9719513 0.7000
  1   -943.4111744924-171.375454038961116.93784792  0.35679655  2.6731427 0.7000
  2   -972.9672366118 -29.55606211946198.27736726  0.29650630  0.7939074 0.7000
  3   -993.0927861208 -20.12554950894872.35240845  0.21933697  0.6231888 0.7000
  4  -1007.2019475010 -14.10916138027653.16536001  0.16206088  0.4690194 0.7000
  5  -1017.2093069988 -10.00735949777937.68439079  0.11572060  0.3400026 0.7000
  6  -1024.3168605678  -7.10755356903126.49079653  0.08155053  0.2415147 0.7000
                               ***Turning on DIIS***
  7  -1029.3505552708  -5.03369470300118.66943300  0.05734906  0.1827352 0.7000
  8  -1032.9053301547  -3.55477488388213.41872979  0.04075621  0.1401498 0.7000
  9  -1035.4106097515  -2.50527959672231.66704995  0.09551521  0.0983490 0.0000
 10  -1041.3182057647  -5.907596013263 0.39928460  0.00121981  0.0121939 0.0000
 11  -1041.3207543311  -0.002548566344 0.33621085  0.00088559  0.0083058 0.0000
 12  -1041.3219115959  -0.001157264846 0.09449859  0.00038852  0.0049413 0.0000
 13  -1041.3223977356  -0.000486139726 0.18026372  0.00075807  0.0029888 0.0000
 14  -1041.3225439936  -0.000146257983 0.14470126  0.00048144  0.0015296 0.0000
 15  -1041.3225958285  -0.000051834902 0.13703478  0.00051574  0.0008863 0.0000
 16  -1041.3226157639  -0.000019935389 0.12943361  0.00049577  0.0002781 0.0000
 17  -1041.3226173177  -0.000001553777 0.10557069  0.00037300  0.0001607 0.0000
 18  -1041.3226176119  -0.000000294232 0.47386926  0.00234190  0.0000734 0.0000
 19  -1041.3226176505  -0.000000038558 0.56864103  0.00260049  0.0000789 0.0000
               *** Restarting incremental Fock matrix formation ***
                                   *** Resetting DIIS ***
 20  -1041.3226176983  -0.000000047840 0.35252260  0.00133007  0.0000642 0.0000
 21  -1041.3226177152  -0.000000016935 0.11634516  0.00038066  0.0001317 0.0000
                 **** Energy Check signals convergence ****

               *****************************************************
               *                     SUCCESS                       *
               *           SCF CONVERGED AFTER  22 CYCLES          *
               *****************************************************


Setting up the DFT-NL grid :

General Integration Accuracy     IntAcc      ...  4.340
Radial Grid Type                 RadialGrid  ... Gauss-Chebyshev
Angular Grid (max. acc.)         AngularGrid ... Lebedev-110
Angular grid pruning method      GridPruning ... 3 (G Style)
Weight generation scheme         WeightScheme... Becke
Basis function cutoff            BFCut       ...    1.0000e-10
Integration weight cutoff        WCut        ...    1.0000e-14
Grids for H and He will be reduced by one unit

# of grid points (after initial pruning)     ...  44956 (   0.0 sec)
# of grid points (after weights+screening)   ...  40192 (   0.0 sec)
nearest neighbour list constructed           ...    0.0 sec
Grid point re-assignment to atoms done       ...    0.0 sec
Grid point division into batches done        ...    0.0 sec
Reduced shell lists constructed in    0.1 sec

Total number of grid points                  ...    40192
Total number of batches                      ...      645
Average number of points per batch           ...       62
Average number of grid points per atom       ...     1182
Average number of shells per batch           ...   197.96 (56.72%)
Average number of basis functions per batch  ...   535.82 (55.87%)
Average number of large shells per batch     ...   146.18 (73.84%)
Average number of large basis fcns per batch ...   397.96 (74.27%)
Maximum spatial batch extension              ...  15.05, 19.65, 18.80 au
Average spatial batch extension              ...   0.10,  0.10,  0.11 au

Final grid set up in    0.1 sec

-------------------------------------------------------------------------------
                         DFT-NL dispersion correction                          
-------------------------------------------------------------------------------

SC Energy -1041.322617766 
NL    Energy 0.549077654 
SC+NL Energy -1040.773540111 
NL done in    0.5 sec
-------------------------------------------------------------------------------

----------------
TOTAL SCF ENERGY
----------------

Total Energy       :        -1040.77354011 Eh          -28320.88783 eV

Components:
Nuclear Repulsion  :         1690.86177306 Eh           46010.68798 eV
Electronic Energy  :        -2731.63531317 Eh          -74331.57582 eV
One Electron Energy:        -4940.18949493 Eh         -134429.39042 eV
Two Electron Energy:         2208.55418176 Eh           60097.81460 eV

Virial components:
Potential Energy   :        -1814.47571314 Eh          -49374.39430 eV
Kinetic Energy     :          773.70217303 Eh           21053.50647 eV
Virial Ratio       :            2.34518627


DFT components:
N(Alpha)           :       76.000093596210 electrons
N(Beta)            :       76.000093596210 electrons
N(Total)           :      152.000187192420 electrons
E(X)               :      -79.705896163897 Eh       
E(C)               :       -6.579637588576 Eh       
NL Energy, E(C,NL) :        0.549077654498 Eh       
E(XC)              :      -85.736456097974 Eh       
DFET-embed. en.    :        0.000000000000 Eh       

---------------
SCF CONVERGENCE
---------------

  Last Energy change         ...   -5.0532e-08  Tolerance :   1.0000e-06
  Last MAX-Density change    ...    2.2164e-01  Tolerance :   1.0000e-05
  Last RMS-Density change    ...    6.5686e-04  Tolerance :   1.0000e-06
  Last DIIS Error            ...    7.6920e-06  Tolerance :   1.0000e-06

             **** THE GBW FILE WAS UPDATED (MOR29_pr11.gbw) ****
             **** DENSITY FILE WAS UPDATED (MOR29_pr11.scfp) ****
             **** ENERGY FILE WAS UPDATED (MOR29_pr11.en.tmp) ****
             **** THE GBW FILE WAS UPDATED (MOR29_pr11.gbw) ****
             **** DENSITY FILE WAS UPDATED (MOR29_pr11.scfp) ****
----------------
ORBITAL ENERGIES
----------------

  NO   OCC          E(Eh)            E(eV) 
   0   2.0000     -14.470690      -393.7675 
   1   2.0000     -14.469913      -393.7463 
   2   2.0000     -10.362713      -281.9838 
   3   2.0000     -10.361873      -281.9609 
   4   2.0000     -10.345845      -281.5248 
   5   2.0000     -10.344568      -281.4900 
   6   2.0000     -10.329635      -281.0837 
   7   2.0000     -10.328650      -281.0569 
   8   2.0000     -10.322091      -280.8784 
   9   2.0000     -10.321308      -280.8571 
  10   2.0000     -10.317118      -280.7431 
  11   2.0000     -10.315935      -280.7109 
  12   2.0000     -10.259347      -279.1710 
  13   2.0000     -10.255740      -279.0729 
  14   2.0000     -10.254194      -279.0308 
  15   2.0000      -6.848698      -186.3625 
  16   2.0000      -4.875131      -132.6591 
  17   2.0000      -4.870782      -132.5407 
  18   2.0000      -4.870693      -132.5383 
  19   2.0000      -3.620814       -98.5274 
  20   2.0000      -2.303576       -62.6835 
  21   2.0000      -2.299855       -62.5822 
  22   2.0000      -2.299623       -62.5759 
  23   2.0000      -1.928789       -52.4850 
  24   2.0000      -1.927455       -52.4487 
  25   2.0000      -1.927378       -52.4466 
  26   2.0000      -1.923682       -52.3461 
  27   2.0000      -1.923661       -52.3455 
  28   2.0000      -1.139214       -30.9996 
  29   2.0000      -1.113090       -30.2887 
  30   2.0000      -0.981132       -26.6980 
  31   2.0000      -0.972409       -26.4606 
  32   2.0000      -0.968910       -26.3654 
  33   2.0000      -0.911867       -24.8132 
  34   2.0000      -0.821918       -22.3655 
  35   2.0000      -0.813177       -22.1277 
  36   2.0000      -0.811776       -22.0895 
  37   2.0000      -0.785888       -21.3851 
  38   2.0000      -0.784652       -21.3515 
  39   2.0000      -0.773084       -21.0367 
  40   2.0000      -0.764427       -20.8011 
  41   2.0000      -0.721420       -19.6308 
  42   2.0000      -0.701773       -19.0962 
  43   2.0000      -0.657727       -17.8977 
  44   2.0000      -0.653673       -17.7874 
  45   2.0000      -0.633419       -17.2362 
  46   2.0000      -0.614431       -16.7195 
  47   2.0000      -0.593251       -16.1432 
  48   2.0000      -0.585897       -15.9431 
  49   2.0000      -0.580604       -15.7990 
  50   2.0000      -0.569430       -15.4950 
  51   2.0000      -0.560231       -15.2447 
  52   2.0000      -0.550446       -14.9784 
  53   2.0000      -0.533484       -14.5168 
  54   2.0000      -0.525399       -14.2968 
  55   2.0000      -0.520908       -14.1746 
  56   2.0000      -0.517301       -14.0765 
  57   2.0000      -0.504551       -13.7295 
  58   2.0000      -0.484922       -13.1954 
  59   2.0000      -0.480456       -13.0739 
  60   2.0000      -0.476435       -12.9645 
  61   2.0000      -0.475667       -12.9436 
  62   2.0000      -0.462249       -12.5784 
  63   2.0000      -0.441875       -12.0240 
  64   2.0000      -0.436455       -11.8765 
  65   2.0000      -0.426933       -11.6174 
  66   2.0000      -0.423968       -11.5368 
  67   2.0000      -0.393817       -10.7163 
  68   2.0000      -0.390911       -10.6372 
  69   2.0000      -0.389729       -10.6051 
  70   2.0000      -0.373198       -10.1552 
  71   2.0000      -0.361995        -9.8504 
  72   2.0000      -0.360444        -9.8082 
  73   2.0000      -0.291746        -7.9388 
  74   2.0000      -0.283120        -7.7041 
  75   2.0000      -0.282622        -7.6905 
  76   0.0000      -0.024757        -0.6737 
  77   0.0000       0.008913         0.2425 
  78   0.0000       0.023302         0.6341 
  79   0.0000       0.039050         1.0626 
  80   0.0000       0.040294         1.0965 
  81   0.0000       0.051229         1.3940 
  82   0.0000       0.053136         1.4459 
  83   0.0000       0.060003         1.6328 
  84   0.0000       0.064557         1.7567 
  85   0.0000       0.071132         1.9356 
  86   0.0000       0.072504         1.9729 
  87   0.0000       0.075466         2.0535 
  88   0.0000       0.081595         2.2203 
  89   0.0000       0.083707         2.2778 
  90   0.0000       0.089145         2.4258 
  91   0.0000       0.094197         2.5632 
  92   0.0000       0.101681         2.7669 
  93   0.0000       0.112362         3.0575 
  94   0.0000       0.117644         3.2012 
  95   0.0000       0.120576         3.2810 
  96   0.0000       0.129189         3.5154 
  97   0.0000       0.133000         3.6191 
  98   0.0000       0.147792         4.0216 
  99   0.0000       0.149594         4.0707 
 100   0.0000       0.154187         4.1956 
 101   0.0000       0.159001         4.3266 
 102   0.0000       0.163374         4.4456 
 103   0.0000       0.166719         4.5367 
 104   0.0000       0.167589         4.5603 
 105   0.0000       0.171601         4.6695 
 106   0.0000       0.175774         4.7831 
 107   0.0000       0.183604         4.9961 
 108   0.0000       0.185667         5.0522 
 109   0.0000       0.189983         5.1697 
 110   0.0000       0.192334         5.2337 
 111   0.0000       0.198158         5.3921 
 112   0.0000       0.203684         5.5425 
 113   0.0000       0.206783         5.6269 
 114   0.0000       0.210165         5.7189 
 115   0.0000       0.212568         5.7843 
 116   0.0000       0.217501         5.9185 
 117   0.0000       0.218797         5.9538 
 118   0.0000       0.222939         6.0665 
 119   0.0000       0.225870         6.1462 
 120   0.0000       0.228742         6.2244 
 121   0.0000       0.234069         6.3693 
 122   0.0000       0.237919         6.4741 
 123   0.0000       0.240490         6.5441 
 124   0.0000       0.242536         6.5997 
 125   0.0000       0.244219         6.6455 
 126   0.0000       0.247497         6.7347 
 127   0.0000       0.254593         6.9278 
 128   0.0000       0.256172         6.9708 
 129   0.0000       0.257637         7.0107 
 130   0.0000       0.259489         7.0611 
 131   0.0000       0.262324         7.1382 
 132   0.0000       0.264671         7.2021 
 133   0.0000       0.268753         7.3131 
 134   0.0000       0.270725         7.3668 
 135   0.0000       0.276387         7.5209 
 136   0.0000       0.282432         7.6854 
 137   0.0000       0.285458         7.7677 
 138   0.0000       0.287314         7.8182 
 139   0.0000       0.290354         7.9009 
 140   0.0000       0.295457         8.0398 
 141   0.0000       0.296874         8.0784 
 142   0.0000       0.304815         8.2944 
 143   0.0000       0.305789         8.3210 
 144   0.0000       0.306779         8.3479 
 145   0.0000       0.311045         8.4640 
 146   0.0000       0.314998         8.5715 
 147   0.0000       0.316403         8.6098 
 148   0.0000       0.320532         8.7221 
 149   0.0000       0.322266         8.7693 
 150   0.0000       0.326594         8.8871 
 151   0.0000       0.327881         8.9221 
 152   0.0000       0.333973         9.0879 
 153   0.0000       0.340515         9.2659 
 154   0.0000       0.343240         9.3400 
 155   0.0000       0.343855         9.3568 
 156   0.0000       0.349597         9.5130 
 157   0.0000       0.351221         9.5572 
 158   0.0000       0.353329         9.6146 
 159   0.0000       0.355459         9.6725 
 160   0.0000       0.356787         9.7087 
 161   0.0000       0.360232         9.8024 
 162   0.0000       0.363722         9.8974 
 163   0.0000       0.364975         9.9315 
 164   0.0000       0.365069         9.9340 
 165   0.0000       0.367893        10.0109 
 166   0.0000       0.369562        10.0563 
 167   0.0000       0.374502        10.1907 
 168   0.0000       0.377496        10.2722 
 169   0.0000       0.380335        10.3494 
 170   0.0000       0.383622        10.4389 
 171   0.0000       0.386052        10.5050 
 172   0.0000       0.389623        10.6022 
 173   0.0000       0.390749        10.6328 
 174   0.0000       0.392307        10.6752 
 175   0.0000       0.394934        10.7467 
 176   0.0000       0.396425        10.7873 
 177   0.0000       0.398522        10.8443 
 178   0.0000       0.401070        10.9137 
 179   0.0000       0.405824        11.0430 
 180   0.0000       0.409482        11.1426 
 181   0.0000       0.411149        11.1879 
 182   0.0000       0.413725        11.2580 
 183   0.0000       0.414896        11.2899 
 184   0.0000       0.418734        11.3943 
 185   0.0000       0.423316        11.5190 
 186   0.0000       0.423963        11.5366 
 187   0.0000       0.428371        11.6566 
 188   0.0000       0.434118        11.8129 
 189   0.0000       0.435648        11.8546 
 190   0.0000       0.437950        11.9172 
 191   0.0000       0.442685        12.0461 
 192   0.0000       0.446743        12.1565 
 193   0.0000       0.450559        12.2603 
 194   0.0000       0.456279        12.4160 
 195   0.0000       0.459308        12.4984 
 196   0.0000       0.461175        12.5492 
 197   0.0000       0.463206        12.6045 
 198   0.0000       0.466477        12.6935 
 199   0.0000       0.468338        12.7441 
 200   0.0000       0.471135        12.8202 
 201   0.0000       0.475747        12.9457 
 202   0.0000       0.477054        12.9813 
 203   0.0000       0.486653        13.2425 
 204   0.0000       0.488980        13.3058 
 205   0.0000       0.490750        13.3540 
 206   0.0000       0.496145        13.5008 
 207   0.0000       0.497149        13.5281 
 208   0.0000       0.501608        13.6495 
 209   0.0000       0.503930        13.7126 
 210   0.0000       0.505662        13.7597 
 211   0.0000       0.511145        13.9090 
 212   0.0000       0.513788        13.9809 
 213   0.0000       0.516235        14.0475 
 214   0.0000       0.521885        14.2012 
 215   0.0000       0.524101        14.2615 
 216   0.0000       0.527375        14.3506 
 217   0.0000       0.532695        14.4954 
 218   0.0000       0.537605        14.6290 
 219   0.0000       0.539563        14.6823 
 220   0.0000       0.542264        14.7558 
 221   0.0000       0.546273        14.8649 
 222   0.0000       0.549768        14.9600 
 223   0.0000       0.553737        15.0679 
 224   0.0000       0.556268        15.1368 
 225   0.0000       0.558569        15.1994 
 226   0.0000       0.562568        15.3082 
 227   0.0000       0.564750        15.3676 
 228   0.0000       0.566746        15.4220 
 229   0.0000       0.570067        15.5123 
 230   0.0000       0.576553        15.6888 
 231   0.0000       0.580449        15.7948 
 232   0.0000       0.581350        15.8193 
 233   0.0000       0.585260        15.9257 
 234   0.0000       0.590982        16.0814 
 235   0.0000       0.596975        16.2445 
 236   0.0000       0.599222        16.3057 
 237   0.0000       0.604178        16.4405 
 238   0.0000       0.608029        16.5453 
 239   0.0000       0.611242        16.6327 
 240   0.0000       0.612690        16.6721 
 241   0.0000       0.620498        16.8846 
 242   0.0000       0.625357        17.0168 
 243   0.0000       0.626273        17.0418 
 244   0.0000       0.627555        17.0766 
 245   0.0000       0.628811        17.1108 
 246   0.0000       0.634529        17.2664 
 247   0.0000       0.643050        17.4983 
 248   0.0000       0.645523        17.5656 
 249   0.0000       0.651647        17.7322 
 250   0.0000       0.654539        17.8109 
 251   0.0000       0.658891        17.9293 
 252   0.0000       0.662375        18.0241 
 253   0.0000       0.665771        18.1165 
 254   0.0000       0.670426        18.2432 
 255   0.0000       0.672154        18.2902 
 256   0.0000       0.674058        18.3421 
 257   0.0000       0.677803        18.4439 
 258   0.0000       0.679687        18.4952 
 259   0.0000       0.682674        18.5765 
 260   0.0000       0.685639        18.6572 
 261   0.0000       0.687472        18.7071 
 262   0.0000       0.692889        18.8545 
 263   0.0000       0.696475        18.9520 
 264   0.0000       0.699572        19.0363 
 265   0.0000       0.702301        19.1106 
 266   0.0000       0.707431        19.2502 
 267   0.0000       0.711186        19.3524 
 268   0.0000       0.711537        19.3619 
 269   0.0000       0.715278        19.4637 
 270   0.0000       0.716381        19.4937 
 271   0.0000       0.718725        19.5575 
 272   0.0000       0.723402        19.6848 
 273   0.0000       0.726230        19.7617 
 274   0.0000       0.728003        19.8100 
 275   0.0000       0.732423        19.9302 
 276   0.0000       0.732741        19.9389 
 277   0.0000       0.735625        20.0174 
 278   0.0000       0.739493        20.1226 
 279   0.0000       0.741037        20.1646 
 280   0.0000       0.748681        20.3727 
 281   0.0000       0.754282        20.5251 
 282   0.0000       0.757554        20.6141 
 283   0.0000       0.758437        20.6381 
 284   0.0000       0.763690        20.7811 
 285   0.0000       0.769077        20.9276 
 286   0.0000       0.771575        20.9956 
 287   0.0000       0.773289        21.0423 
 288   0.0000       0.780259        21.2319 
 289   0.0000       0.782975        21.3058 
 290   0.0000       0.785665        21.3790 
 291   0.0000       0.789253        21.4767 
 292   0.0000       0.790972        21.5234 
 293   0.0000       0.794667        21.6240 
 294   0.0000       0.801300        21.8045 
 295   0.0000       0.805208        21.9108 
 296   0.0000       0.807303        21.9678 
 297   0.0000       0.809005        22.0141 
 298   0.0000       0.811589        22.0845 
 299   0.0000       0.813379        22.1332 
 300   0.0000       0.817945        22.2574 
 301   0.0000       0.823088        22.3974 
 302   0.0000       0.824171        22.4268 
 303   0.0000       0.826518        22.4907 
 304   0.0000       0.832493        22.6533 
 305   0.0000       0.836776        22.7698 
 306   0.0000       0.838928        22.8284 
 307   0.0000       0.845962        23.0198 
 308   0.0000       0.847210        23.0538 
 309   0.0000       0.851038        23.1579 
 310   0.0000       0.853547        23.2262 
 311   0.0000       0.855285        23.2735 
 312   0.0000       0.862263        23.4634 
 313   0.0000       0.863759        23.5041 
 314   0.0000       0.868301        23.6277 
 315   0.0000       0.872909        23.7531 
 316   0.0000       0.873448        23.7677 
 317   0.0000       0.878645        23.9091 
 318   0.0000       0.882402        24.0114 
 319   0.0000       0.887890        24.1607 
 320   0.0000       0.893701        24.3188 
 321   0.0000       0.899779        24.4842 
 322   0.0000       0.903454        24.5842 
 323   0.0000       0.905640        24.6437 
 324   0.0000       0.910668        24.7805 
 325   0.0000       0.915810        24.9205 
 326   0.0000       0.923211        25.1218 
 327   0.0000       0.929184        25.2844 
 328   0.0000       0.932595        25.3772 
 329   0.0000       0.941550        25.6209 
 330   0.0000       0.946618        25.7588 
 331   0.0000       0.949867        25.8472 
 332   0.0000       0.953673        25.9508 
 333   0.0000       0.961383        26.1606 
 334   0.0000       0.965169        26.2636 
 335   0.0000       0.969440        26.3798 
 336   0.0000       0.973673        26.4950 
 337   0.0000       0.979240        26.6465 
 338   0.0000       0.988684        26.9035 
 339   0.0000       0.997513        27.1437 
 340   0.0000       0.999949        27.2100 
 341   0.0000       1.007151        27.4060 
 342   0.0000       1.010323        27.4923 
 343   0.0000       1.017842        27.6969 
 344   0.0000       1.026216        27.9248 
 345   0.0000       1.027590        27.9622 
 346   0.0000       1.032248        28.0889 
 347   0.0000       1.038893        28.2697 
 348   0.0000       1.042152        28.3584 
 349   0.0000       1.043907        28.4062 
 350   0.0000       1.048494        28.5310 
 351   0.0000       1.055427        28.7196 
 352   0.0000       1.057723        28.7821 
 353   0.0000       1.063222        28.9317 
 354   0.0000       1.068039        29.0628 
 355   0.0000       1.077260        29.3137 
 356   0.0000       1.079749        29.3815 
 357   0.0000       1.082345        29.4521 
 358   0.0000       1.086558        29.5667 
 359   0.0000       1.095980        29.8231 
 360   0.0000       1.098686        29.8968 
 361   0.0000       1.102756        30.0075 
 362   0.0000       1.107922        30.1481 
 363   0.0000       1.118885        30.4464 
 364   0.0000       1.121364        30.5139 
 365   0.0000       1.125055        30.6143 
 366   0.0000       1.132261        30.8104 
 367   0.0000       1.141739        31.0683 
 368   0.0000       1.146660        31.2022 
 369   0.0000       1.150032        31.2940 
 370   0.0000       1.153698        31.3937 
 371   0.0000       1.163779        31.6680 
 372   0.0000       1.169109        31.8131 
 373   0.0000       1.173583        31.9348 
 374   0.0000       1.181881        32.1606 
 375   0.0000       1.184806        32.2402 
 376   0.0000       1.188901        32.3516 
 377   0.0000       1.197356        32.5817 
 378   0.0000       1.203360        32.7451 
 379   0.0000       1.210654        32.9436 
 380   0.0000       1.219367        33.1807 
 381   0.0000       1.220306        33.2062 
 382   0.0000       1.226828        33.3837 
 383   0.0000       1.236460        33.6458 
 384   0.0000       1.237330        33.6695 
 385   0.0000       1.244407        33.8620 
 386   0.0000       1.256422        34.1890 
 387   0.0000       1.261573        34.3292 
 388   0.0000       1.270106        34.5614 
 389   0.0000       1.276462        34.7343 
 390   0.0000       1.283386        34.9227 
 391   0.0000       1.286145        34.9978 
 392   0.0000       1.293322        35.1931 
 393   0.0000       1.296859        35.2893 
 394   0.0000       1.299632        35.3648 
 395   0.0000       1.310007        35.6471 
 396   0.0000       1.317265        35.8446 
 397   0.0000       1.323139        36.0044 
 398   0.0000       1.327879        36.1334 
 399   0.0000       1.333080        36.2750 
 400   0.0000       1.337152        36.3858 
 401   0.0000       1.341593        36.5066 
 402   0.0000       1.352130        36.7933 
 403   0.0000       1.355258        36.8785 
 404   0.0000       1.364935        37.1418 
 405   0.0000       1.367451        37.2102 
 406   0.0000       1.371452        37.3191 
 407   0.0000       1.379676        37.5429 
 408   0.0000       1.381545        37.5937 
 409   0.0000       1.389011        37.7969 
 410   0.0000       1.395497        37.9734 
 411   0.0000       1.399869        38.0924 
 412   0.0000       1.405590        38.2480 
 413   0.0000       1.418743        38.6060 
 414   0.0000       1.424787        38.7704 
 415   0.0000       1.438563        39.1453 
 416   0.0000       1.442925        39.2640 
 417   0.0000       1.444250        39.3001 
 418   0.0000       1.449592        39.4454 
 419   0.0000       1.452682        39.5295 
 420   0.0000       1.456793        39.6413 
 421   0.0000       1.470644        40.0183 
 422   0.0000       1.482228        40.3335 
 423   0.0000       1.484907        40.4064 
 424   0.0000       1.490621        40.5619 
 425   0.0000       1.493076        40.6287 
 426   0.0000       1.499492        40.8032 
 427   0.0000       1.506543        40.9951 
 428   0.0000       1.513491        41.1842 
 429   0.0000       1.517729        41.2995 
 430   0.0000       1.524863        41.4936 
 431   0.0000       1.528453        41.5913 
 432   0.0000       1.532832        41.7105 
 433   0.0000       1.537592        41.8400 
 434   0.0000       1.542950        41.9858 
 435   0.0000       1.558108        42.3983 
 436   0.0000       1.558645        42.4129 
 437   0.0000       1.561865        42.5005 
 438   0.0000       1.577004        42.9125 
 439   0.0000       1.583572        43.0912 
 440   0.0000       1.589458        43.2513 
 441   0.0000       1.596032        43.4302 
 442   0.0000       1.602439        43.6046 
 443   0.0000       1.607514        43.7427 
 444   0.0000       1.613055        43.8935 
 445   0.0000       1.620335        44.0916 
 446   0.0000       1.626755        44.2663 
 447   0.0000       1.630483        44.3677 
 448   0.0000       1.645142        44.7666 
 449   0.0000       1.647399        44.8280 
 450   0.0000       1.651571        44.9415 
 451   0.0000       1.653204        44.9860 
 452   0.0000       1.662772        45.2463 
 453   0.0000       1.667903        45.3859 
 454   0.0000       1.671750        45.4906 
 455   0.0000       1.681758        45.7630 
 456   0.0000       1.692509        46.0555 
 457   0.0000       1.698265        46.2121 
 458   0.0000       1.708769        46.4980 
 459   0.0000       1.711672        46.5770 
 460   0.0000       1.719819        46.7987 
 461   0.0000       1.737065        47.2680 
 462   0.0000       1.742047        47.4035 
 463   0.0000       1.748152        47.5696 
 464   0.0000       1.753781        47.7228 
 465   0.0000       1.763289        47.9815 
 466   0.0000       1.767880        48.1065 
 467   0.0000       1.775567        48.3156 
 468   0.0000       1.782758        48.5113 
 469   0.0000       1.790875        48.7322 
 470   0.0000       1.796962        48.8978 
 471   0.0000       1.800154        48.9847 
 472   0.0000       1.807754        49.1915 
 473   0.0000       1.816599        49.4322 
 474   0.0000       1.820123        49.5281 
 475   0.0000       1.830334        49.8059 
 476   0.0000       1.831094        49.8266 
 477   0.0000       1.838636        50.0318 
 478   0.0000       1.840199        50.0744 
 479   0.0000       1.843954        50.1765 
 480   0.0000       1.849618        50.3307 
 481   0.0000       1.856880        50.5283 
 482   0.0000       1.866218        50.7824 
 483   0.0000       1.869642        50.8755 
 484   0.0000       1.874822        51.0165 
 485   0.0000       1.882314        51.2204 
 486   0.0000       1.889016        51.4027 
 487   0.0000       1.890197        51.4349 
 488   0.0000       1.899907        51.6991 
 489   0.0000       1.902300        51.7642 
 490   0.0000       1.911071        52.0029 
 491   0.0000       1.913347        52.0648 
 492   0.0000       1.916058        52.1386 
 493   0.0000       1.924181        52.3596 
 494   0.0000       1.930061        52.5196 
 495   0.0000       1.937986        52.7353 
 496   0.0000       1.940796        52.8117 
 497   0.0000       1.949484        53.0482 
 498   0.0000       1.954270        53.1784 
 499   0.0000       1.962405        53.3998 
 500   0.0000       1.970056        53.6079 
 501   0.0000       1.978906        53.8488 
 502   0.0000       1.986935        54.0672 
 503   0.0000       1.992554        54.2201 
 504   0.0000       1.999332        54.4046 
 505   0.0000       2.010518        54.7090 
 506   0.0000       2.012303        54.7576 
 507   0.0000       2.017834        54.9080 
 508   0.0000       2.037052        55.4310 
 509   0.0000       2.042080        55.5678 
 510   0.0000       2.055428        55.9310 
 511   0.0000       2.073177        56.4140 
 512   0.0000       2.079553        56.5875 
 513   0.0000       2.086875        56.7868 
 514   0.0000       2.099537        57.1313 
 515   0.0000       2.111861        57.4667 
 516   0.0000       2.118395        57.6444 
 517   0.0000       2.127296        57.8867 
 518   0.0000       2.134560        58.0843 
 519   0.0000       2.147333        58.4319 
 520   0.0000       2.155102        58.6433 
 521   0.0000       2.168877        59.0181 
 522   0.0000       2.180218        59.3268 
 523   0.0000       2.185604        59.4733 
 524   0.0000       2.215745        60.2935 
 525   0.0000       2.229254        60.6611 
 526   0.0000       2.238812        60.9212 
 527   0.0000       2.249415        61.2097 
 528   0.0000       2.251414        61.2641 
 529   0.0000       2.259845        61.4935 
 530   0.0000       2.269843        61.7656 
 531   0.0000       2.275081        61.9081 
 532   0.0000       2.283692        62.1424 
 533   0.0000       2.297294        62.5125 
 534   0.0000       2.308940        62.8294 
 535   0.0000       2.322143        63.1887 
 536   0.0000       2.325467        63.2792 
 537   0.0000       2.343505        63.7700 
 538   0.0000       2.353404        64.0394 
 539   0.0000       2.381276        64.7978 
 540   0.0000       2.399130        65.2836 
 541   0.0000       2.400604        65.3238 
 542   0.0000       2.424635        65.9777 
 543   0.0000       2.440176        66.4006 
 544   0.0000       2.443677        66.4958 
 545   0.0000       2.449090        66.6431 
 546   0.0000       2.469412        67.1961 
 547   0.0000       2.485369        67.6303 
 548   0.0000       2.487452        67.6870 
 549   0.0000       2.501235        68.0621 
 550   0.0000       2.512386        68.3655 
 551   0.0000       2.517394        68.5018 
 552   0.0000       2.554392        69.5086 
 553   0.0000       2.555384        69.5355 
 554   0.0000       2.563749        69.7631 
 555   0.0000       2.580607        70.2219 
 556   0.0000       2.587125        70.3993 
 557   0.0000       2.598120        70.6984 
 558   0.0000       2.606272        70.9203 
 559   0.0000       2.611261        71.0560 
 560   0.0000       2.623007        71.3756 
 561   0.0000       2.632068        71.6222 
 562   0.0000       2.658047        72.3291 
 563   0.0000       2.664422        72.5026 
 564   0.0000       2.686638        73.1071 
 565   0.0000       2.702205        73.5307 
 566   0.0000       2.718758        73.9812 
 567   0.0000       2.743636        74.6581 
 568   0.0000       2.747502        74.7633 
 569   0.0000       2.749907        74.8288 
 570   0.0000       2.766713        75.2861 
 571   0.0000       2.777553        75.5811 
 572   0.0000       2.789793        75.9141 
 573   0.0000       2.797804        76.1321 
 574   0.0000       2.806659        76.3731 
 575   0.0000       2.817242        76.6611 
 576   0.0000       2.828606        76.9703 
 577   0.0000       2.839465        77.2658 
 578   0.0000       2.854190        77.6665 
 579   0.0000       2.864368        77.9434 
 580   0.0000       2.890632        78.6581 
 581   0.0000       2.915496        79.3347 
 582   0.0000       2.926533        79.6350 
 583   0.0000       2.931426        79.7682 
 584   0.0000       2.941697        80.0477 
 585   0.0000       2.954148        80.3864 
 586   0.0000       2.972113        80.8753 
 587   0.0000       2.981777        81.1383 
 588   0.0000       2.988466        81.3203 
 589   0.0000       2.995134        81.5017 
 590   0.0000       2.999503        81.6206 
 591   0.0000       3.003629        81.7329 
 592   0.0000       3.016114        82.0726 
 593   0.0000       3.028637        82.4134 
 594   0.0000       3.031539        82.4924 
 595   0.0000       3.036914        82.6386 
 596   0.0000       3.041090        82.7523 
 597   0.0000       3.046639        82.9033 
 598   0.0000       3.048339        82.9495 
 599   0.0000       3.064112        83.3787 
 600   0.0000       3.067571        83.4728 
 601   0.0000       3.074957        83.6738 
 602   0.0000       3.085441        83.9591 
 603   0.0000       3.089122        84.0593 
 604   0.0000       3.093527        84.1792 
 605   0.0000       3.102281        84.4174 
 606   0.0000       3.107011        84.5461 
 607   0.0000       3.112126        84.6853 
 608   0.0000       3.114733        84.7562 
 609   0.0000       3.127613        85.1067 
 610   0.0000       3.137549        85.3771 
 611   0.0000       3.138857        85.4126 
 612   0.0000       3.150135        85.7195 
 613   0.0000       3.154474        85.8376 
 614   0.0000       3.159277        85.9683 
 615   0.0000       3.161247        86.0219 
 616   0.0000       3.166601        86.1676 
 617   0.0000       3.170250        86.2669 
 618   0.0000       3.183345        86.6232 
 619   0.0000       3.184449        86.6533 
 620   0.0000       3.195380        86.9507 
 621   0.0000       3.205739        87.2326 
 622   0.0000       3.211072        87.3777 
 623   0.0000       3.223944        87.7280 
 624   0.0000       3.229012        87.8659 
 625   0.0000       3.236181        88.0610 
 626   0.0000       3.237943        88.1089 
 627   0.0000       3.241287        88.1999 
 628   0.0000       3.249136        88.4135 
 629   0.0000       3.251953        88.4901 
 630   0.0000       3.256815        88.6224 
 631   0.0000       3.262674        88.7819 
 632   0.0000       3.267359        88.9094 
 633   0.0000       3.270144        88.9851 
 634   0.0000       3.280008        89.2536 
 635   0.0000       3.287011        89.4441 
 636   0.0000       3.290574        89.5411 
 637   0.0000       3.294594        89.6505 
 638   0.0000       3.304211        89.9122 
 639   0.0000       3.311233        90.1032 
 640   0.0000       3.321496        90.3825 
 641   0.0000       3.322691        90.4150 
 642   0.0000       3.333945        90.7212 
 643   0.0000       3.340510        90.8999 
 644   0.0000       3.343536        90.9822 
 645   0.0000       3.348346        91.1131 
 646   0.0000       3.354780        91.2882 
 647   0.0000       3.362633        91.5019 
 648   0.0000       3.368281        91.6556 
 649   0.0000       3.373051        91.7854 
 650   0.0000       3.382908        92.0536 
 651   0.0000       3.384832        92.1060 
 652   0.0000       3.391336        92.2829 
 653   0.0000       3.394705        92.3746 
 654   0.0000       3.407439        92.7211 
 655   0.0000       3.409399        92.7745 
 656   0.0000       3.412261        92.8523 
 657   0.0000       3.425084        93.2013 
 658   0.0000       3.428349        93.2901 
 659   0.0000       3.434075        93.4459 
 660   0.0000       3.437019        93.5260 
 661   0.0000       3.437792        93.5471 
 662   0.0000       3.443529        93.7032 
 663   0.0000       3.450386        93.8898 
 664   0.0000       3.452569        93.9492 
 665   0.0000       3.461219        94.1846 
 666   0.0000       3.469975        94.4228 
 667   0.0000       3.474377        94.5426 
 668   0.0000       3.476459        94.5993 
 669   0.0000       3.489587        94.9565 
 670   0.0000       3.496165        95.1355 
 671   0.0000       3.499393        95.2233 
 672   0.0000       3.506607        95.4196 
 673   0.0000       3.515022        95.6486 
 674   0.0000       3.530504        96.0699 
 675   0.0000       3.535965        96.2185 
 676   0.0000       3.544813        96.4593 
 677   0.0000       3.552286        96.6626 
 678   0.0000       3.563418        96.9655 
 679   0.0000       3.568613        97.1069 
 680   0.0000       3.572421        97.2105 
 681   0.0000       3.579810        97.4116 
 682   0.0000       3.585373        97.5630 
 683   0.0000       3.592836        97.7660 
 684   0.0000       3.596332        97.8612 
 685   0.0000       3.599552        97.9488 
 686   0.0000       3.605674        98.1154 
 687   0.0000       3.610217        98.2390 
 688   0.0000       3.614259        98.3490 
 689   0.0000       3.617216        98.4294 
 690   0.0000       3.622523        98.5739 
 691   0.0000       3.624103        98.6169 
 692   0.0000       3.629897        98.7745 
 693   0.0000       3.640507        99.0632 
 694   0.0000       3.649372        99.3044 
 695   0.0000       3.651996        99.3759 
 696   0.0000       3.657493        99.5254 
 697   0.0000       3.673153        99.9516 
 698   0.0000       3.676882       100.0531 
 699   0.0000       3.682124       100.1957 
 700   0.0000       3.683091       100.2220 
 701   0.0000       3.694001       100.5189 
 702   0.0000       3.703262       100.7709 
 703   0.0000       3.706515       100.8594 
 704   0.0000       3.722748       101.3011 
 705   0.0000       3.743796       101.8739 
 706   0.0000       3.753614       102.1410 
 707   0.0000       3.759956       102.3136 
 708   0.0000       3.765700       102.4699 
 709   0.0000       3.780859       102.8824 
 710   0.0000       3.786021       103.0229 
 711   0.0000       3.797048       103.3229 
 712   0.0000       3.803443       103.4969 
 713   0.0000       3.806979       103.5932 
 714   0.0000       3.814515       103.7982 
 715   0.0000       3.818421       103.9045 
 716   0.0000       3.821628       103.9918 
 717   0.0000       3.828685       104.1838 
 718   0.0000       3.835280       104.3633 
 719   0.0000       3.840609       104.5083 
 720   0.0000       3.847300       104.6904 
 721   0.0000       3.855114       104.9030 
 722   0.0000       3.857979       104.9809 
 723   0.0000       3.866661       105.2172 
 724   0.0000       3.871042       105.3364 
 725   0.0000       3.885319       105.7249 
 726   0.0000       3.901062       106.1533 
 727   0.0000       3.905138       106.2642 
 728   0.0000       3.920631       106.6858 
 729   0.0000       3.927812       106.8812 
 730   0.0000       3.934617       107.0664 
 731   0.0000       3.943860       107.3179 
 732   0.0000       3.950184       107.4900 
 733   0.0000       3.957481       107.6885 
 734   0.0000       3.962648       107.8291 
 735   0.0000       3.985578       108.4531 
 736   0.0000       4.010840       109.1405 
 737   0.0000       4.022405       109.4552 
 738   0.0000       4.032412       109.7275 
 739   0.0000       4.037770       109.8733 
 740   0.0000       4.048747       110.1720 
 741   0.0000       4.052155       110.2647 
 742   0.0000       4.056200       110.3748 
 743   0.0000       4.060724       110.4979 
 744   0.0000       4.074916       110.8841 
 745   0.0000       4.085901       111.1830 
 746   0.0000       4.087301       111.2211 
 747   0.0000       4.093626       111.3932 
 748   0.0000       4.099302       111.5477 
 749   0.0000       4.105412       111.7139 
 750   0.0000       4.112791       111.9147 
 751   0.0000       4.118187       112.0616 
 752   0.0000       4.123310       112.2010 
 753   0.0000       4.140115       112.6582 
 754   0.0000       4.145517       112.8052 
 755   0.0000       4.155633       113.0805 
 756   0.0000       4.159916       113.1971 
 757   0.0000       4.162469       113.2666 
 758   0.0000       4.167170       113.3945 
 759   0.0000       4.172022       113.5265 
 760   0.0000       4.188322       113.9700 
 761   0.0000       4.204064       114.3984 
 762   0.0000       4.230432       115.1159 
 763   0.0000       4.246314       115.5481 
 764   0.0000       4.256513       115.8256 
 765   0.0000       4.262996       116.0020 
 766   0.0000       4.268437       116.1501 
 767   0.0000       4.273792       116.2958 
 768   0.0000       4.278551       116.4253 
 769   0.0000       4.280592       116.4808 
 770   0.0000       4.286590       116.6440 
 771   0.0000       4.294022       116.8463 
 772   0.0000       4.301360       117.0460 
 773   0.0000       4.306689       117.1910 
 774   0.0000       4.314755       117.4105 
 775   0.0000       4.318230       117.5050 
 776   0.0000       4.326834       117.7391 
 777   0.0000       4.345532       118.2479 
 778   0.0000       4.350952       118.3954 
 779   0.0000       4.362987       118.7229 
 780   0.0000       4.372217       118.9741 
 781   0.0000       4.377971       119.1306 
 782   0.0000       4.399549       119.7178 
 783   0.0000       4.408578       119.9635 
 784   0.0000       4.417996       120.2198 
 785   0.0000       4.422775       120.3498 
 786   0.0000       4.430187       120.5515 
 787   0.0000       4.437727       120.7567 
 788   0.0000       4.451181       121.1228 
 789   0.0000       4.463322       121.4532 
 790   0.0000       4.468356       121.5902 
 791   0.0000       4.474348       121.7532 
 792   0.0000       4.478876       121.8764 
 793   0.0000       4.484638       122.0332 
 794   0.0000       4.492024       122.2342 
 795   0.0000       4.492922       122.2586 
 796   0.0000       4.506765       122.6353 
 797   0.0000       4.509489       122.7094 
 798   0.0000       4.515292       122.8673 
 799   0.0000       4.519599       122.9845 
 800   0.0000       4.537258       123.4651 
 801   0.0000       4.558995       124.0566 
 802   0.0000       4.562760       124.1590 
 803   0.0000       4.566692       124.2660 
 804   0.0000       4.575473       124.5049 
 805   0.0000       4.581649       124.6730 
 806   0.0000       4.599399       125.1560 
 807   0.0000       4.606816       125.3578 
 808   0.0000       4.615772       125.6015 
 809   0.0000       4.629786       125.9829 
 810   0.0000       4.634507       126.1114 
 811   0.0000       4.638679       126.2249 
 812   0.0000       4.650904       126.5575 
 813   0.0000       4.654000       126.6418 
 814   0.0000       4.658616       126.7674 
 815   0.0000       4.698469       127.8518 
 816   0.0000       4.713555       128.2624 
 817   0.0000       4.728015       128.6558 
 818   0.0000       4.749237       129.2333 
 819   0.0000       4.763457       129.6202 
 820   0.0000       4.774414       129.9184 
 821   0.0000       4.794218       130.4573 
 822   0.0000       4.804601       130.7398 
 823   0.0000       4.812084       130.9435 
 824   0.0000       4.814604       131.0120 
 825   0.0000       4.830037       131.4320 
 826   0.0000       4.841364       131.7402 
 827   0.0000       4.848013       131.9211 
 828   0.0000       4.856985       132.1653 
 829   0.0000       4.862072       132.3037 
 830   0.0000       4.870670       132.5377 
 831   0.0000       4.881164       132.8232 
 832   0.0000       4.888748       133.0296 
 833   0.0000       4.895810       133.2218 
 834   0.0000       4.907671       133.5445 
 835   0.0000       4.918487       133.8388 
 836   0.0000       4.926340       134.0525 
 837   0.0000       4.935032       134.2891 
 838   0.0000       4.942835       134.5014 
 839   0.0000       4.976269       135.4112 
 840   0.0000       4.982087       135.5695 
 841   0.0000       4.983549       135.6093 
 842   0.0000       5.012918       136.4084 
 843   0.0000       5.019915       136.5988 
 844   0.0000       5.035447       137.0215 
 845   0.0000       5.043459       137.2395 
 846   0.0000       5.055323       137.5623 
 847   0.0000       5.076014       138.1254 
 848   0.0000       5.095831       138.6646 
 849   0.0000       5.098058       138.7252 
 850   0.0000       5.113679       139.1503 
 851   0.0000       5.123708       139.4232 
 852   0.0000       5.132503       139.6625 
 853   0.0000       5.137183       139.7898 
 854   0.0000       5.150033       140.1395 
 855   0.0000       5.157323       140.3379 
 856   0.0000       5.164593       140.5357 
 857   0.0000       5.172919       140.7623 
 858   0.0000       5.176333       140.8552 
 859   0.0000       5.179225       140.9339 
 860   0.0000       5.203822       141.6032 
 861   0.0000       5.216533       141.9491 
 862   0.0000       5.228842       142.2840 
 863   0.0000       5.239525       142.5747 
 864   0.0000       5.244510       142.7104 
 865   0.0000       5.257058       143.0518 
 866   0.0000       5.258023       143.0781 
 867   0.0000       5.268708       143.3688 
 868   0.0000       5.276859       143.5906 
 869   0.0000       5.289804       143.9429 
 870   0.0000       5.299322       144.2019 
 871   0.0000       5.305669       144.3746 
 872   0.0000       5.310683       144.5110 
 873   0.0000       5.314472       144.6141 
 874   0.0000       5.330888       145.0609 
 875   0.0000       5.337935       145.2526 
 876   0.0000       5.351410       145.6193 
 877   0.0000       5.358544       145.8134 
 878   0.0000       5.365180       145.9940 
 879   0.0000       5.371199       146.1578 
 880   0.0000       5.382377       146.4619 
 881   0.0000       5.400528       146.9558 
 882   0.0000       5.409377       147.1966 
 883   0.0000       5.421685       147.5315 
 884   0.0000       5.434620       147.8835 
 885   0.0000       5.437012       147.9486 
 886   0.0000       5.446215       148.1990 
 887   0.0000       5.453364       148.3936 
 888   0.0000       5.463738       148.6759 
 889   0.0000       5.471785       148.8948 
 890   0.0000       5.475338       148.9915 
 891   0.0000       5.483890       149.2242 
 892   0.0000       5.495670       149.5448 
 893   0.0000       5.507556       149.8682 
 894   0.0000       5.522353       150.2709 
 895   0.0000       5.535352       150.6246 
 896   0.0000       5.540303       150.7593 
 897   0.0000       5.556655       151.2043 
 898   0.0000       5.562512       151.3637 
 899   0.0000       5.569828       151.5627 
 900   0.0000       5.577692       151.7767 
 901   0.0000       5.594508       152.2343 
 902   0.0000       5.596310       152.2833 
 903   0.0000       5.601645       152.4285 
 904   0.0000       5.611497       152.6966 
 905   0.0000       5.635379       153.3465 
 906   0.0000       5.653247       153.8327 
 907   0.0000       5.665590       154.1685 
 908   0.0000       5.672086       154.3453 
 909   0.0000       5.705164       155.2454 
 910   0.0000       5.750092       156.4679 
 911   0.0000       5.758094       156.6857 
 912   0.0000       5.775334       157.1548 
 913   0.0000       5.811233       158.1317 
 914   0.0000       5.829572       158.6307 
 915   0.0000       5.838959       158.8862 
 916   0.0000       5.846372       159.0879 
 917   0.0000       5.873705       159.8316 
 918   0.0000       5.888998       160.2478 
 919   0.0000       5.891947       160.3280 
 920   0.0000       5.908577       160.7806 
 921   0.0000       5.944085       161.7468 
 922   0.0000       5.967605       162.3868 
 923   0.0000       5.992094       163.0532 
 924   0.0000       6.044849       164.4887 
 925   0.0000       6.064666       165.0280 
 926   0.0000       6.099000       165.9622 
 927   0.0000       6.119931       166.5318 
 928   0.0000       6.214376       169.1018 
 929   0.0000       6.278191       170.8383 
 930   0.0000       6.286769       171.0717 
 931   0.0000       6.329502       172.2345 
 932   0.0000       6.375668       173.4907 
 933   0.0000       6.419570       174.6854 
 934   0.0000       6.453393       175.6058 
 935   0.0000       6.756018       183.8406 
 936   0.0000       6.971437       189.7024 
 937   0.0000      23.256671       632.8462 
 938   0.0000      23.272497       633.2768 
 939   0.0000      23.325362       634.7154 
 940   0.0000      23.380302       636.2104 
 941   0.0000      23.392689       636.5474 
 942   0.0000      23.469787       638.6454 
 943   0.0000      23.539382       640.5391 
 944   0.0000      23.715865       645.3415 
 945   0.0000      23.852796       649.0676 
 946   0.0000      23.863336       649.3544 
 947   0.0000      23.944570       651.5649 
 948   0.0000      24.016312       653.5171 
[...]
      dz2     :     0.003318  d :     0.029452
      dxz     :     0.005961
      dyz     :     0.003202
      dx2y2   :     0.008749
      dxy     :     0.008222
  8 N s       :     2.901409  s :     2.901409
      pz      :     0.998595  p :     3.302178
      px      :     1.181674
      py      :     1.121910
      dz2     :     0.085374  d :     0.752503
      dxz     :     0.102335
      dyz     :     0.138213
      dx2y2   :     0.207728
      dxy     :     0.218852
      f0      :     0.001237  f :     0.018121
      f+1     :     0.001179
      f-1     :     0.001972
      f+2     :     0.002623
      f-2     :     0.001822
      f+3     :     0.005936
      f-3     :     0.003351
  9 C s       :     2.606679  s :     2.606679
      pz      :     0.727761  p :     2.477561
      px      :     0.881086
      py      :     0.868715
      dz2     :     0.107032  d :     1.014568
      dxz     :     0.170990
      dyz     :     0.145302
      dx2y2   :     0.326366
      dxy     :     0.264878
      f0      :     0.005605  f :     0.075354
      f+1     :     0.006291
      f-1     :     0.006149
      f+2     :     0.008650
      f-2     :     0.010582
      f+3     :     0.024572
      f-3     :     0.013504
 10 C s       :     2.606807  s :     2.606807
      pz      :     0.733142  p :     2.479072
      px      :     0.860186
      py      :     0.885744
      dz2     :     0.116380  d :     1.019413
      dxz     :     0.174616
      dyz     :     0.151138
      dx2y2   :     0.310062
      dxy     :     0.267217
      f0      :     0.005586  f :     0.075527
      f+1     :     0.007439
      f-1     :     0.005863
      f+2     :     0.011110
      f-2     :     0.009437
      f+3     :     0.021650
      f-3     :     0.014441
 11 N s       :     2.901063  s :     2.901063
      pz      :     1.002268  p :     3.304520
      px      :     1.142737
      py      :     1.159515
      dz2     :     0.092420  d :     0.760285
      dxz     :     0.116523
      dyz     :     0.132781
      dx2y2   :     0.198951
      dxy     :     0.219612
      f0      :     0.001453  f :     0.018159
      f+1     :     0.001630
      f-1     :     0.001468
      f+2     :     0.003301
      f-2     :     0.001419
      f+3     :     0.005157
      f-3     :     0.003731
 12 C s       :     2.637961  s :     2.637961
      pz      :     0.717598  p :     2.502174
      px      :     0.896395
      py      :     0.888181
      dz2     :     0.071616  d :     0.814062
      dxz     :     0.079953
      dyz     :     0.165826
      dx2y2   :     0.261537
      dxy     :     0.235130
      f0      :     0.005379  f :     0.064444
      f+1     :     0.002300
      f-1     :     0.007492
      f+2     :     0.009104
      f-2     :     0.006178
      f+3     :     0.017869
      f-3     :     0.016122
 13 C s       :     2.650163  s :     2.650163
      pz      :     0.727986  p :     2.574942
      px      :     0.903868
      py      :     0.943088
      dz2     :     0.068398  d :     0.675075
      dxz     :     0.081841
      dyz     :     0.116776
      dx2y2   :     0.160547
      dxy     :     0.247513
      f0      :     0.003620  f :     0.044341
      f+1     :     0.003862
      f-1     :     0.003406
      f+2     :     0.007718
      f-2     :     0.004004
      f+3     :     0.012463
      f-3     :     0.009269
 14 C s       :     2.647855  s :     2.647855
      pz      :     0.762127  p :     2.605225
      px      :     0.920160
      py      :     0.922939
      dz2     :     0.075316  d :     0.640992
      dxz     :     0.116303
      dyz     :     0.059247
      dx2y2   :     0.219961
      dxy     :     0.170164
      f0      :     0.002802  f :     0.043496
      f+1     :     0.004419
      f-1     :     0.004070
      f+2     :     0.004512
      f-2     :     0.006991
      f+3     :     0.010905
      f-3     :     0.009798
 15 H s       :     0.682577  s :     0.682577
      pz      :     0.078440  p :     0.284391
      px      :     0.133352
      py      :     0.072599
      dz2     :     0.003646  d :     0.028768
      dxz     :     0.007735
      dyz     :     0.001699
      dx2y2   :     0.007745
      dxy     :     0.007942
 16 H s       :     0.704644  s :     0.704644
      pz      :     0.070786  p :     0.256945
      px      :     0.066605
      py      :     0.119554
      dz2     :     0.002838  d :     0.028871
      dxz     :     0.000470
      dyz     :     0.008053
      dx2y2   :     0.008659
      dxy     :     0.008851
 17 C s       :     2.630417  s :     2.630417
      pz      :     0.759000  p :     2.576585
      px      :     0.882425
      py      :     0.935160
      dz2     :     0.062339  d :     0.663542
      dxz     :     0.062659
      dyz     :     0.129103
      dx2y2   :     0.204665
      dxy     :     0.204776
      f0      :     0.003967  f :     0.043699
      f+1     :     0.002120
      f-1     :     0.004718
      f+2     :     0.005669
      f-2     :     0.005378
      f+3     :     0.012053
      f-3     :     0.009794
 18 H s       :     0.686553  s :     0.686553
      pz      :     0.077872  p :     0.282018
      px      :     0.107397
      py      :     0.096748
      dz2     :     0.004061  d :     0.029450
      dxz     :     0.007642
      dyz     :     0.002225
      dx2y2   :     0.007861
      dxy     :     0.007660
 19 H s       :     0.704248  s :     0.704248
      pz      :     0.071246  p :     0.253658
      px      :     0.093351
      py      :     0.089060
      dz2     :     0.003316  d :     0.028454
      dxz     :     0.004672
      dyz     :     0.004079
      dx2y2   :     0.008423
      dxy     :     0.007965
 20 Pds       :     2.022677  s :     2.022677
      pz      :     2.287180  p :     6.646592
      px      :     2.193139
      py      :     2.166273
      dz2     :     1.569845  d :     8.603036
      dxz     :     1.804074
      dyz     :     1.881222
      dx2y2   :     1.905895
      dxy     :     1.442001
      f0      :     0.009403  f :     0.047400
      f+1     :     0.007689
      f-1     :     0.005061
      f+2     :     0.001223
      f-2     :     0.006631
      f+3     :     0.007220
      f-3     :     0.010174
      g0      :     0.000089  g :     0.000603
      g+1     :     0.000092
      g-1     :     0.000061
      g+2     :     0.000018
      g-2     :     0.000071
      g+3     :     0.000037
      g-3     :     0.000054
      g+4     :     0.000104
      g-4     :     0.000077
 21 C s       :     2.698788  s :     2.698788
      pz      :     0.963203  p :     2.754629
      px      :     0.898170
      py      :     0.893256
      dz2     :     0.080853  d :     0.499475
      dxz     :     0.109779
      dyz     :     0.119517
      dx2y2   :     0.072457
      dxy     :     0.116869
      f0      :     0.003229  f :     0.022802
      f+1     :     0.002970
      f-1     :     0.002822
      f+2     :     0.002328
      f-2     :     0.004875
      f+3     :     0.003208
      f-3     :     0.003370
 22 H s       :     0.719414  s :     0.719414
      pz      :     0.113559  p :     0.342228
      px      :     0.107881
      py      :     0.120788
      dz2     :     0.006803  d :     0.030161
      dxz     :     0.004633
      dyz     :     0.007301
      dx2y2   :     0.005629
      dxy     :     0.005795
 23 H s       :     0.723208  s :     0.723208
      pz      :     0.159902  p :     0.362586
      px      :     0.102064
      py      :     0.100620
      dz2     :     0.008176  d :     0.030264
      dxz     :     0.007591
      dyz     :     0.007750
      dx2y2   :     0.002938
      dxy     :     0.003808
 24 H s       :     0.713805  s :     0.713805
      pz      :     0.106209  p :     0.340173
      px      :     0.116487
      py      :     0.117477
      dz2     :     0.005581  d :     0.030497
      dxz     :     0.006774
      dyz     :     0.004763
      dx2y2   :     0.006907
      dxy     :     0.006471
 25 C s       :     2.700128  s :     2.700128
      pz      :     0.965378  p :     2.753140
      px      :     0.910721
      py      :     0.877042
      dz2     :     0.115586  d :     0.506340
      dxz     :     0.085109
      dyz     :     0.104951
      dx2y2   :     0.103356
      dxy     :     0.097338
      f0      :     0.004584  f :     0.022915
      f+1     :     0.001673
      f-1     :     0.002056
      f+2     :     0.004011
      f-2     :     0.003762
      f+3     :     0.003779
      f-3     :     0.003049
 26 H s       :     0.718532  s :     0.718532
      pz      :     0.115904  p :     0.351784
      px      :     0.134036
      py      :     0.101844
      dz2     :     0.005709  d :     0.030520
      dxz     :     0.007904
      dyz     :     0.002289
      dx2y2   :     0.007245
      dxy     :     0.007373
 27 H s       :     0.720301  s :     0.720301
      pz      :     0.103461  p :     0.356543
      px      :     0.120944
      py      :     0.132138
      dz2     :     0.005741  d :     0.030083
      dxz     :     0.002820
      dyz     :     0.007094
      dx2y2   :     0.007420
      dxy     :     0.007008
 28 H s       :     0.718905  s :     0.718905
      pz      :     0.145376  p :     0.335156
      px      :     0.095859
      py      :     0.093920
      dz2     :     0.009971  d :     0.030215
      dxz     :     0.009607
      dyz     :     0.009369
      dx2y2   :     0.000398
      dxy     :     0.000870
 29 I s       :     3.753079  s :     3.753079
      pz      :     3.515609  p :    11.166965
      px      :     3.809152
      py      :     3.842204
      dz2     :     2.035930  d :    10.128911
      dxz     :     2.038892
      dyz     :     2.035685
      dx2y2   :     2.007215
      dxy     :     2.011189
      f0      :     0.001514  f :     0.004594
      f+1     :     0.001348
      f-1     :     0.001114
      f+2     :     0.000243
      f-2     :     0.000310
      f+3     :     0.000022
      f-3     :     0.000043
 30 C s       :     2.707042  s :     2.707042
      pz      :     0.857761  p :     2.759842
      px      :     0.946918
      py      :     0.955162
      dz2     :     0.096860  d :     0.437111
      dxz     :     0.114767
      dyz     :     0.062366
      dx2y2   :     0.053708
      dxy     :     0.109410
      f0      :     0.003206  f :     0.021558
      f+1     :     0.002875
      f-1     :     0.003909
      f+2     :     0.003851
      f-2     :     0.002400
      f+3     :     0.003558
      f-3     :     0.001758
 31 H s       :     0.729763  s :     0.729763
      pz      :     0.098047  p :     0.329968
      px      :     0.094935
      py      :     0.136987
      dz2     :     0.002802  d :     0.030114
      dxz     :     0.001609
      dyz     :     0.008240
      dx2y2   :     0.008365
      dxy     :     0.009098
 32 H s       :     0.733310  s :     0.733310
      pz      :     0.099163  p :     0.325647
      px      :     0.111963
      py      :     0.114520
      dz2     :     0.003293  d :     0.029981
      dxz     :     0.005424
      dyz     :     0.004685
      dx2y2   :     0.009317
      dxy     :     0.007262
 33 H s       :     0.717289  s :     0.717289
      pz      :     0.116631  p :     0.343650
      px      :     0.133683
      py      :     0.093336
      dz2     :     0.007000  d :     0.030531
      dxz     :     0.008580
      dyz     :     0.003012
      dx2y2   :     0.005235
      dxy     :     0.006703


                      *****************************
                      * MAYER POPULATION ANALYSIS *
                      *****************************

  NA   - Mulliken gross atomic population
  ZA   - Total nuclear charge
  QA   - Mulliken gross atomic charge
  VA   - Mayer's total valence
  BVA  - Mayer's bonded valence
  FA   - Mayer's free valence

  ATOM       NA         ZA         QA         VA         BVA        FA
  0 C      5.8274     6.0000     0.1726     3.4919     3.4919    -0.0000
  1 C      6.2095     6.0000    -0.2095     3.1765     3.1765     0.0000
  2 C      5.9535     6.0000     0.0465     3.2002     3.2002     0.0000
  3 C      6.1846     6.0000    -0.1846     2.6259     2.6259     0.0000
  4 H      1.1648     1.0000    -0.1648     0.9400     0.9400     0.0000
  5 H      1.0350     1.0000    -0.0350     0.9847     0.9847     0.0000
  6 H      0.9974     1.0000     0.0026     0.9219     0.9219     0.0000
  7 H      1.1333     1.0000    -0.1333     0.9246     0.9246     0.0000
  8 N      6.2797     7.0000     0.7203     2.7213     2.7213    -0.0000
  9 C      5.4723     6.0000     0.5277     2.4229     2.4229     0.0000
 10 C      5.9936     6.0000     0.0064     2.8986     2.8986     0.0000
 11 N      6.1306     7.0000     0.8694     2.5055     2.5055     0.0000
 12 C      5.8764     6.0000     0.1236     3.5705     3.5705    -0.0000
 13 C      6.0265     6.0000    -0.0265     3.2552     3.2552     0.0000
 14 C      6.1819     6.0000    -0.1819     3.1501     3.1501     0.0000
 15 H      1.1750     1.0000    -0.1750     1.0407     1.0407     0.0000
 16 H      1.0413     1.0000    -0.0413     0.9833     0.9833     0.0000
 17 C      6.1653     6.0000    -0.1653     2.5526     2.5526     0.0000
 18 H      1.1343     1.0000    -0.1343     0.9108     0.9108     0.0000
 19 H      1.0009     1.0000    -0.0009     0.9243     0.9243     0.0000
 20 Pd    18.7648    18.0000    -0.7648     4.7457     4.7457    -0.0000
 21 C      6.1152     6.0000    -0.1152     3.5180     3.5180    -0.0000
 22 H      0.9223     1.0000     0.0777     1.1892     1.1892     0.0000
 23 H      0.9766     1.0000     0.0234     1.3734     1.3734    -0.0000
 24 H      0.8877     1.0000     0.1123     1.0870     1.0870     0.0000
 25 C      5.9841     6.0000     0.0159     3.4862     3.4862    -0.0000
 26 H      0.9236     1.0000     0.0764     1.2242     1.2242     0.0000
 27 H      1.0328     1.0000    -0.0328     1.2834     1.2834    -0.0000
 28 H      0.9358     1.0000     0.0642     1.2253     1.2253    -0.0000
 29 I     25.5244    25.0000    -0.5244     0.8577     0.8577    -0.0000
 30 C      6.0710     6.0000    -0.0710     3.5053     3.5053     0.0000
 31 H      0.9685     1.0000     0.0315     1.2818     1.2818     0.0000
 32 H      0.9904     1.0000     0.0096     1.3248     1.3248     0.0000
 33 H      0.9192     1.0000     0.0808     1.1647     1.1647     0.0000

  Mayer bond orders larger than 0.100000
B(  0-C ,  1-C ) :   1.1557 B(  0-C ,  4-H ) :   1.1721 B(  0-C ,  8-N ) :   1.5182 
B(  0-C , 10-C ) :   0.1192 B(  0-C , 20-Pd) :  -0.1131 B(  1-C ,  2-C ) :   1.1257 
B(  1-C ,  4-H ) :  -0.1215 B(  1-C ,  5-H ) :   1.1587 B(  1-C ,  8-N ) :  -0.2253 
B(  1-C , 20-Pd) :   0.1246 B(  2-C ,  3-C ) :   1.0817 B(  2-C ,  6-H ) :   1.1015 
B(  2-C ,  7-H ) :  -0.1524 B(  2-C ,  8-N ) :   0.1384 B(  3-C ,  7-H ) :   1.2686 
B(  3-C ,  8-N ) :  -0.3571 B(  3-C ,  9-C ) :   0.8332 B(  3-C , 10-C ) :  -0.4684 
B(  3-C , 20-Pd) :   0.1946 B(  4-H ,  8-N ) :  -0.1485 B(  7-H ,  9-C ) :  -0.1748 
B(  8-N ,  9-C ) :   1.5094 B(  8-N , 10-C ) :   0.1555 B(  8-N , 11-N ) :  -0.1168 
B(  8-N , 20-Pd) :   0.3489 B(  9-C , 10-C ) :   0.9072 B(  9-C , 11-N ) :   0.2675 
B(  9-C , 12-C ) :   0.1339 B(  9-C , 17-C ) :  -0.5746 B(  9-C , 20-Pd) :  -0.2108 
B( 10-C , 11-N ) :   1.4276 B( 10-C , 12-C ) :  -0.1422 B( 10-C , 17-C ) :   0.9628 
B( 10-C , 18-H ) :  -0.1857 B( 10-C , 29-I ) :   0.1007 B( 11-N , 12-C ) :   1.4743 
B( 11-N , 13-C ) :   0.1159 B( 11-N , 14-C ) :  -0.2793 B( 11-N , 15-H ) :  -0.1371 
B( 11-N , 17-C ) :  -0.3985 B( 11-N , 20-Pd) :   0.2622 B( 12-C , 14-C ) :   1.1485 
B( 12-C , 15-H ) :   1.2125 B( 13-C , 14-C ) :   1.1430 B( 13-C , 17-C ) :   1.0616 
B( 13-C , 18-H ) :  -0.1536 B( 13-C , 19-H ) :   1.1072 B( 14-C , 15-H ) :  -0.1008 
B( 14-C , 16-H ) :   1.1554 B( 14-C , 20-Pd) :   0.1109 B( 17-C , 18-H ) :   1.2605 
B( 17-C , 20-Pd) :   0.2326 B( 20-Pd, 21-C ) :   0.7809 B( 20-Pd, 23-H ) :   0.1061 
B( 20-Pd, 25-C ) :   0.7482 B( 20-Pd, 27-H ) :   0.1134 B( 20-Pd, 29-I ) :   0.8882 
B( 20-Pd, 30-C ) :   0.6784 B( 20-Pd, 31-H ) :   0.1124 B( 20-Pd, 32-H ) :   0.1600 
B( 21-C , 22-H ) :   0.9979 B( 21-C , 23-H ) :   1.0184 B( 21-C , 24-H ) :   0.9800 
B( 21-C , 29-I ) :  -0.1252 B( 23-H , 29-I ) :   0.1332 B( 25-C , 26-H ) :   0.9956 
B( 25-C , 27-H ) :   1.0285 B( 25-C , 28-H ) :   0.9982 B( 25-C , 29-I ) :  -0.1089 
B( 29-I , 30-C ) :   0.1237 B( 30-C , 31-H ) :   1.0018 B( 30-C , 32-H ) :   1.0084 
B( 30-C , 33-H ) :   1.0337 

-------
TIMINGS
-------

Total SCF time: 0 days 0 hours 39 min 14 sec 

Total time                  ....    2354.072 sec
Sum of individual times     ....    2351.971 sec  ( 99.9%)

Fock matrix formation       ....    2337.510 sec  ( 99.3%)
  XC integration            ....      15.994 sec  (  0.7% of F)
    Basis function eval.    ....       2.412 sec  ( 15.1% of XC)
    Density eval.           ....       5.551 sec  ( 34.7% of XC)
    XC-Functional eval.     ....       0.196 sec  (  1.2% of XC)
    XC-Potential eval.      ....       5.068 sec  ( 31.7% of XC)
Diagonalization             ....       6.764 sec  (  0.3%)
Density matrix formation    ....       0.214 sec  (  0.0%)
Population analysis         ....       0.203 sec  (  0.0%)
Initial guess               ....       3.138 sec  (  0.1%)
Orbital Transformation      ....       0.000 sec  (  0.0%)
Orbital Orthonormalization  ....       0.000 sec  (  0.0%)
DIIS solution               ....       3.118 sec  (  0.1%)
Grid generation             ....       1.024 sec  (  0.0%)

-------------------------   --------------------
FINAL SINGLE POINT ENERGY     -1040.773540111280
-------------------------   --------------------


                            ***************************************
                            *     ORCA property calculations      *
                            ***************************************

                                    ---------------------
                                    Active property flags
                                    ---------------------
   (+) Dipole Moment


------------------------------------------------------------------------------
                       ORCA ELECTRIC PROPERTIES CALCULATION
------------------------------------------------------------------------------

Dipole Moment Calculation                       ... on
Quadrupole Moment Calculation                   ... off
Polarizability Calculation                      ... off
GBWName                                         ... MOR29_pr11.gbw
Electron density file                           ... MOR29_pr11.scfp
The origin for moment calculation is the CENTER OF MASS  = ( 0.195003,  0.004756 -0.176087)

-------------
DIPOLE MOMENT
-------------
                                X             Y             Z
Electronic contribution:    145.12207      -3.88290     -70.60056
Nuclear contribution   :   -148.61747       4.04670      71.83695
                        -----------------------------------------
Total Dipole Moment    :     -3.49540       0.16380       1.23639
                        -----------------------------------------
Magnitude (a.u.)       :      3.71125
Magnitude (Debye)      :      9.43324



--------------------
Rotational spectrum 
--------------------
 
Rotational constants in cm-1:     0.010327     0.008787     0.007812 
Rotational constants in MHz :   309.600948   263.417504   234.204311 

 Dipole components along the rotational axes: 
x,y,z [a.u.] :    -3.633764    -0.200075     0.727371 
x,y,z [Debye]:    -9.236294    -0.508551     1.848831 

 

Timings for individual modules:

Sum of individual times         ...     2361.315 sec (=  39.355 min)
GTO integral calculation        ...        6.848 sec (=   0.114 min)   0.3 %
SCF iterations                  ...     2354.467 sec (=  39.241 min)  99.7 %
                             ****ORCA TERMINATED NORMALLY****
TOTAL RUN TIME: 0 days 0 hours 39 minutes 21 seconds 937 msec
