
                                 *****************
                                 * O   R   C   A *
                                 *****************

           --- An Ab Initio, DFT and Semiempirical electronic structure package ---

                  #######################################################
                  #                        -***-                        #
                  #          Department of theory and spectroscopy      #
                  #               Directorship: Frank Neese             #
                  #        Max Planck Institute fuer Kohlenforschung    #
                  #                Kaiser Wilhelm Platz 1               #
                  #                 D-45470 Muelheim/Ruhr               #
                  #                      Germany                        #
                  #                                                     #
                  #                  All rights reserved                #
                  #                        -***-                        #
                  #######################################################


                         Program Version 4.2.0 -  RELEASE  -


 With contributions from (in alphabetic order):
   Daniel Aravena         : Magnetic Suceptibility
   Michael Atanasov       : Ab Initio Ligand Field Theory (pilot matlab implementation)
   Alexander A. Auer      : GIAO ZORA, VPT2
   Ute Becker             : Parallelization
   Giovanni Bistoni       : ED, misc. LED, open-shell LED, HFLED
   Martin Brehm           : Molecular dynamics
   Dmytro Bykov           : SCF Hessian
   Vijay G. Chilkuri      : MRCI spin determinant printing, contributions to CSF-ICE
   Dipayan Datta          : RHF DLPNO-CCSD density
   Achintya Kumar Dutta   : EOM-CC, STEOM-CC
   Dmitry Ganyushin       : Spin-Orbit,Spin-Spin,Magnetic field MRCI
   Miquel Garcia          : C-PCM Hessian, Gaussian charge scheme
   Yang Guo               : DLPNO-NEVPT2, CIM, IAO-localization
   Andreas Hansen         : Spin unrestricted coupled pair/coupled cluster methods
   Benjamin Helmich-Paris : CASSCF linear response (MC-RPA)
   Lee Huntington         : MR-EOM, pCC
   Robert Izsak           : Overlap fitted RIJCOSX, COSX-SCS-MP3, EOM
   Christian Kollmar      : KDIIS, OOCD, Brueckner-CCSD(T), CCSD density
   Simone Kossmann        : Meta GGA functionals, TD-DFT gradient, OOMP2, MP2 Hessian
   Martin Krupicka        : AUTO-CI
   Lucas Lang             : DCDCAS
   Dagmar Lenk            : GEPOL surface, SMD
   Dimitrios Liakos       : Extrapolation schemes; Compound Job, initial MDCI parallelization
   Dimitrios Manganas     : Further ROCIS development; embedding schemes
   Dimitrios Pantazis     : SARC Basis sets
   Taras Petrenko         : DFT Hessian,TD-DFT gradient, ASA, ECA, R-Raman, ABS, FL, XAS/XES, NRVS
   Peter Pinski           : DLPNO-MP2, DLPNO-MP2 Gradient
   Christoph Reimann      : Effective Core Potentials
   Marius Retegan         : Local ZFS, SOC
   Christoph Riplinger    : Optimizer, TS searches, QM/MM, DLPNO-CCSD(T), (RO)-DLPNO pert. Triples
   Tobias Risthaus        : Range-separated hybrids, TD-DFT gradient, RPA, STAB
   Michael Roemelt        : Original ROCIS implementation
   Masaaki Saitow         : Open-shell DLPNO-CCSD energy and density
   Barbara Sandhoefer     : DKH picture change effects
   Avijit Sen             : IP-ROCIS
   Kantharuban Sivalingam : CASSCF convergence, NEVPT2, FIC-MRCI
   Bernardo de Souza      : ESD, SOC TD-DFT
   Georgi Stoychev        : AutoAux, RI-MP2 NMR
   Willem Van den Heuvel  : Paramagnetic NMR
   Boris Wezisla          : Elementary symmetry handling
   Frank Wennmohs         : Technical directorship


 We gratefully acknowledge several colleagues who have allowed us to
 interface, adapt or use parts of their codes:
   Stefan Grimme, W. Hujo, H. Kruse,             : VdW corrections, initial TS optimization,
                  C. Bannwarth                     DFT functionals, gCP, sTDA/sTD-DF
   Ed Valeev, F. Pavosevic, A. Kumar             : LibInt (2-el integral package), F12 methods
   Garnet Chan, S. Sharma, J. Yang, R. Olivares  : DMRG
   Ulf Ekstrom                                   : XCFun DFT Library
   Mihaly Kallay                                 : mrcc  (arbitrary order and MRCC methods)
   Andreas Klamt, Michael Diedenhofen            : otool_cosmo (COSMO solvation model)
   Jiri Pittner, Ondrej Demel                    : Mk-CCSD
   Frank Weinhold                                : gennbo (NPA and NBO analysis)
   Christopher J. Cramer and Donald G. Truhlar   : smd solvation model
   Lars Goerigk                                  : TD-DFT with DH, B97 family of functionals
   V. Asgeirsson, H. Jonsson                     : NEB implementation
   FAccTs GmbH                                   : IRC, NEB, NEB-TS, Multilevel, MM, QM/MM, CI optimization
   S Lehtola, MJT Oliveira, MAL Marques          : LibXC Library


 Your calculation uses the libint2 library for the computation of 2-el integrals
 For citations please refer to: http://libint.valeyev.net

 Your ORCA version has been built with support for libXC version: 4.2.3
 For citations please refer to: https://tddft.org/programs/libxc/

 This ORCA versions uses:
   CBLAS   interface :  Fast vector & matrix operations
   LAPACKE interface :  Fast linear algebra routines
   SCALAPACK package :  Parallel linear algebra routines


Your calculation utilizes the DFT-NL dispersion correction.
Cite in your paper:
Vydrov, O. A.; Van Voorhis, T. J. Chem. Phys. 2010, 133, 244103
Hujo, W.; Grimme, S. J. Chem. Theory Comput. 2011, 7, 3866 
   

----- Orbital basis set information -----
Your calculation utilizes the basis: def2-TZVPPD
   F. Weigend and R. Ahlrichs, Phys. Chem. Chem. Phys. 7, 3297 (2005).
   D. Rappoport and F. Furche, J. Chem. Phys. 133 134105 (2010).

----- AuxJK basis set information -----
Your calculation utilizes the auxiliary basis: def2/JK
   H-Ba, Hf-Rn: F. Weigend, J. Comput. Chem. 29, 167 (2008).

================================================================================
                                        WARNINGS
                       Please study these warnings very carefully!
================================================================================


INFO   : the flag for use of LIBINT has been found!

================================================================================
                                       INPUT FILE
================================================================================
NAME = MOR26_pr05.in
|  1> #
|  2> # MOR26_pr05 wB97X-V/Def2-TZVPPD
|  3> #
|  4> ! wb97x-v def2-tzvppd def2/jk grid4 nofinalgrid
|  5> 
|  6> *xyz 0 1
|  7> Mn       0.144445   -0.000220    0.050119 
|  8> O       -2.125838   -0.018069    2.024989 
|  9> C       -1.261969   -0.011297    1.274333 
| 10> C        1.407998   -0.004194    1.401883 
| 11> O        2.195378   -0.006691    2.240943 
| 12> C        1.458789    0.011243   -1.252981 
| 13> O        2.260044    0.018413   -2.075843 
| 14> C       -0.034165    1.837211   -0.109707 
| 15> O       -0.163636    2.972926   -0.231026 
| 16> C       -0.023402   -1.836685   -0.130415 
| 17> O       -0.146189   -2.971707   -0.264701 
| 18> C       -1.328355    0.004078   -1.485929 
| 19> O       -2.518815    0.004844   -1.307728 
| 20> H       -0.932058    0.005632   -2.529143 
| 21> *
| 22> 
| 23> %maxcore 5000
| 24> 
| 25> %pal
| 26> nprocs = 24
| 27> end
| 28> 
| 29> 
| 30>                          ****END OF INPUT****
================================================================================

                       ****************************
                       * Single Point Calculation *
                       ****************************

---------------------------------
CARTESIAN COORDINATES (ANGSTROEM)
---------------------------------
  Mn     0.144445   -0.000220    0.050119
  O     -2.125838   -0.018069    2.024989
  C     -1.261969   -0.011297    1.274333
  C      1.407998   -0.004194    1.401883
  O      2.195378   -0.006691    2.240943
  C      1.458789    0.011243   -1.252981
  O      2.260044    0.018413   -2.075843
  C     -0.034165    1.837211   -0.109707
  O     -0.163636    2.972926   -0.231026
  C     -0.023402   -1.836685   -0.130415
  O     -0.146189   -2.971707   -0.264701
  C     -1.328355    0.004078   -1.485929
  O     -2.518815    0.004844   -1.307728
  H     -0.932058    0.005632   -2.529143

----------------------------
CARTESIAN COORDINATES (A.U.)
----------------------------
  NO LB      ZA    FRAG     MASS         X           Y           Z
   0 Mn   25.0000    0    54.940    0.272961   -0.000416    0.094711
   1 O     8.0000    0    15.999   -4.017252   -0.034145    3.826675
   2 C     6.0000    0    12.011   -2.384776   -0.021348    2.408140
   3 C     6.0000    0    12.011    2.660731   -0.007926    2.649175
   4 O     8.0000    0    15.999    4.148663   -0.012644    4.234769
   5 C     6.0000    0    12.011    2.756712    0.021246   -2.367791
   6 O     8.0000    0    15.999    4.270864    0.034796   -3.922775
   7 C     6.0000    0    12.011   -0.064562    3.471826   -0.207316
   8 O     8.0000    0    15.999   -0.309227    5.618016   -0.436576
   9 C     6.0000    0    12.011   -0.044223   -3.470832   -0.246449
  10 O     8.0000    0    15.999   -0.276257   -5.615712   -0.500212
  11 C     6.0000    0    12.011   -2.510227    0.007706   -2.807999
  12 O     8.0000    0    15.999   -4.759871    0.009154   -2.471248
  13 H     1.0000    0     1.008   -1.761334    0.010643   -4.779388

--------------------------------
INTERNAL COORDINATES (ANGSTROEM)
--------------------------------
 Mn     0   0   0     0.000000000000     0.00000000     0.00000000
 O      1   0   0     3.009088733120     0.00000000     0.00000000
 C      2   1   0     1.144464914045     0.03041535     0.00000000
 C      1   2   3     1.850364258242    92.04815318   358.56793053
 O      4   1   2     1.150649895932   179.88817481   178.99800703
 C      1   2   3     1.850864976357   176.26546905   178.67386830
 O      6   1   4     1.148548150914   178.99167701   180.05112011
 C      1   2   3     1.852997183521    89.41362174   261.05865897
 O      8   1   2     1.149491018158   178.54059878   269.14653314
 C      1   2   3     1.852935194978    89.41108737    96.07386998
 O     10   1   2     1.149514818369   178.53558814    91.11368451
 C      1   2   3     2.128051167408    87.22426120   178.56497759
 O     12   1   2     1.203723886428   125.28233795     0.30865801
 H     12   1   2     1.115952139171   115.40349045   180.31250334

---------------------------
INTERNAL COORDINATES (A.U.)
---------------------------
 Mn     0   0   0     0.000000000000     0.00000000     0.00000000
 O      1   0   0     5.686353618265     0.00000000     0.00000000
 C      2   1   0     2.162725257428     0.03041535     0.00000000
 C      1   2   3     3.496681696075    92.04815318   358.56793053
 O      4   1   2     2.174413179337   179.88817481   178.99800703
 C      1   2   3     3.497627916181   176.26546905   178.67386830
 O      6   1   4     2.170441456850   178.99167701   180.05112011
 C      1   2   3     3.501657203782    89.41362174   261.05865897
 O      8   1   2     2.172223217722   178.54059878   269.14653314
 C      1   2   3     3.501540062413    89.41108737    96.07386998
 O     10   1   2     2.172268193601   178.53558814    91.11368451
 C      1   2   3     4.021433905373    87.22426120   178.56497759
 O     12   1   2     2.274708486208   125.28233795     0.30865801
 H     12   1   2     2.108843921597   115.40349045   180.31250334

---------------------
BASIS SET INFORMATION
---------------------
There are 4 groups of distinct atoms

 Group   1 Type Mn  : 17s13p7d2f1g contracted to 6s6p4d2f1g pattern {842111/631111/4111/11/1}
 Group   2 Type O   : 12s7p3d1f contracted to 6s4p3d1f pattern {621111/4111/111/1}
 Group   3 Type C   : 12s6p3d1f contracted to 6s3p3d1f pattern {621111/411/111/1}
 Group   4 Type H   : 5s3p1d contracted to 3s3p1d pattern {311/111/1}

Atom   0Mn   basis set group =>   1
Atom   1O    basis set group =>   2
Atom   2C    basis set group =>   3
Atom   3C    basis set group =>   3
Atom   4O    basis set group =>   2
Atom   5C    basis set group =>   3
Atom   6O    basis set group =>   2
Atom   7C    basis set group =>   3
Atom   8O    basis set group =>   2
Atom   9C    basis set group =>   3
Atom  10O    basis set group =>   2
Atom  11C    basis set group =>   3
Atom  12O    basis set group =>   2
Atom  13H    basis set group =>   4
----------------------------------
AUXILIARY/JK BASIS SET INFORMATION
----------------------------------
There are 4 groups of distinct atoms

 Group   1 Type Mn  : 19s14p12d10f7g3h1i contracted to 16s13p11d9f5g3h1i pattern {4111111111111111/2111111111111/21111111111/211111111/31111/111/1}
 Group   2 Type O   : 14s10p6d2f1g contracted to 10s8p4d2f1g pattern {5111111111/31111111/3111/11/1}
 Group   3 Type C   : 14s10p6d2f1g contracted to 10s8p5d1f1g pattern {5111111111/31111111/21111/2/1}
 Group   4 Type H   : 4s2p2d contracted to 2s2p2d pattern {31/11/11}

Atom   0Mn   basis set group =>   1
Atom   1O    basis set group =>   2
Atom   2C    basis set group =>   3
Atom   3C    basis set group =>   3
Atom   4O    basis set group =>   2
Atom   5C    basis set group =>   3
Atom   6O    basis set group =>   2
Atom   7C    basis set group =>   3
Atom   8O    basis set group =>   2
Atom   9C    basis set group =>   3
Atom  10O    basis set group =>   2
Atom  11C    basis set group =>   3
Atom  12O    basis set group =>   2
Atom  13H    basis set group =>   4


           ************************************************************
           *        Program running with 24 parallel MPI-processes    *
           *              working on a common directory               *
           ************************************************************
------------------------------------------------------------------------------
                           ORCA GTO INTEGRAL CALCULATION
------------------------------------------------------------------------------

                         BASIS SET STATISTICS AND STARTUP INFO

 # of primitive gaussian shells          ...  319
 # of primitive gaussian functions       ...  775
 # of contracted shells                  ...  188
 # of contracted basis functions         ...  546
 Highest angular momentum                ...    4
 Maximum contraction depth               ...    8
 Integral package used                   ... LIBINT
 Integral threshhold            Thresh   ...  1.000e-10
 Primitive cut-off              TCut     ...  1.000e-11


------------------------------ INTEGRAL EVALUATION ----------------------------


 * One electron integrals 
 Pre-screening matrix                    ... done
 Shell pair data                         ... done (   0.004 sec)



           ************************************************************
           *        Program running with 24 parallel MPI-processes    *
           *              working on a common directory               *
           ************************************************************
-------------------------------------------------------------------------------
                                 ORCA SCF
-------------------------------------------------------------------------------

------------
SCF SETTINGS
------------
Hamiltonian:
 Density Functional     Method          .... DFT(GTOs)
 Exchange Functional    Exchange        .... WB97X-V
 Correlation Functional Correlation     .... WB97X-V
 Gradients option       PostSCFGGA      .... off
 Hybrid DFT is turned on
   Fraction HF Exchange ScalHFX         ....  0.167000
   Scaling of DF-GGA-X  ScalDFX         ....  0.000000
   Scaling of DF-GGA-C  ScalDFC         ....  1.000000
   Scaling of DF-LDA-C  ScalLDAC        ....  1.000000
   Perturbative correction              ....  0.000000
   Density functional embedding theory  .... OFF
 Long-range corrected/Screened/Range-Separated Hybrid DFT is turned on
   Amount of maximum screened exact exchange              ....  0.833000
   Range separation parameter mu (erf(mu*r12)/r12)        ....  0.300000
   NL short-range parameter             ....  6.000000
   NL long-range parameter              ....  0.010000


General Settings:
 Integral files         IntName         .... MOR26_pr05
 Hartree-Fock type      HFTyp           .... RHF
 Total Charge           Charge          ....    0
 Multiplicity           Mult            ....    1
 Number of Electrons    NEL             ....  110
 Basis Dimension        Dim             ....  546
 Nuclear Repulsion      ENuc            ....   1032.4749279793 Eh

Convergence Acceleration:
 DIIS                   CNVDIIS         .... on
   Start iteration      DIISMaxIt       ....    12
   Startup error        DIISStart       ....  0.200000
   # of expansion vecs  DIISMaxEq       ....     5
   Bias factor          DIISBfac        ....   1.050
   Max. coefficient     DIISMaxC        ....  10.000
 Newton-Raphson         CNVNR           .... off
 SOSCF                  CNVSOSCF        .... off
 Level Shifting         CNVShift        .... on
   Level shift para.    LevelShift      ....    0.2500
   Turn off err/grad.   ShiftErr        ....    0.0010
 Zerner damping         CNVZerner       .... off
 Static damping         CNVDamp         .... on
   Fraction old density DampFac         ....    0.7000
   Max. Damping (<1)    DampMax         ....    0.9800
   Min. Damping (>=0)   DampMin         ....    0.0000
   Turn off err/grad.   DampErr         ....    0.1000
 Fernandez-Rico         CNVRico         .... off

SCF Procedure:
 Maximum # iterations   MaxIter         ....   125
 SCF integral mode      SCFMode         .... Direct
   Integral package                     .... LIBINT
 Reset frequency        DirectResetFreq ....    20
 Integral Threshold     Thresh          ....  1.000e-10 Eh
 Primitive CutOff       TCut            ....  1.000e-11 Eh

Convergence Tolerance:
 Convergence Check Mode ConvCheckMode   .... Total+1el-Energy
 Convergence forced     ConvForced      .... 0
 Energy Change          TolE            ....  1.000e-06 Eh
 1-El. energy change                    ....  1.000e-03 Eh
 DIIS Error             TolErr          ....  1.000e-06


Diagonalization of the overlap matrix:
Smallest eigenvalue                        ... 1.070e-06
Time for diagonalization                   ...    0.047 sec
Threshold for overlap eigenvalues          ... 1.000e-08
Number of eigenvalues below threshold      ... 0
Time for construction of square roots      ...    0.052 sec
Total time needed                          ...    0.101 sec

-------------------
DFT GRID GENERATION
-------------------

General Integration Accuracy     IntAcc      ...  4.670
Radial Grid Type                 RadialGrid  ... Gauss-Chebyshev
Angular Grid (max. acc.)         AngularGrid ... Lebedev-302
Angular grid pruning method      GridPruning ... 3 (G Style)
Weight generation scheme         WeightScheme... Becke
Basis function cutoff            BFCut       ...    1.0000e-10
Integration weight cutoff        WCut        ...    1.0000e-14
Grids for H and He will be reduced by one unit

# of grid points (after initial pruning)     ...  87602 (   0.0 sec)
# of grid points (after weights+screening)   ...  81371 (   0.0 sec)
nearest neighbour list constructed           ...    0.0 sec
Grid point re-assignment to atoms done       ...    0.0 sec
Grid point division into batches done        ...    0.4 sec
Reduced shell lists constructed in    0.4 sec

Total number of grid points                  ...    81371
Total number of batches                      ...     1280
Average number of points per batch           ...       63
Average number of grid points per atom       ...     5812
Average number of shells per batch           ...   141.98 (75.52%)
Average number of basis functions per batch  ...   431.55 (79.04%)
Average number of large shells per batch     ...   121.20 (85.36%)
Average number of large basis fcns per batch ...   366.33 (84.89%)
Maximum spatial batch extension              ...   1.86,  1.69,  1.81 au
Average spatial batch extension              ...   0.05,  0.05,  0.05 au

Time for grid setup =    0.468 sec

------------------------------
INITIAL GUESS: MODEL POTENTIAL
------------------------------
Loading Hartree-Fock densities                     ... done
Calculating cut-offs                               ... done
Setting up the integral package                    ... done
Initializing the effective Hamiltonian             ... done
Starting the Coulomb interaction                   ... done (   0.0 sec)
Reading the grid                                   ... done
Mapping shells                                     ... done
Starting the XC term evaluation                    ... done (   0.1 sec)
  promolecular density results
     # of electrons  =    109.999531974
     EX              =    -93.895919248
     EC              =     -5.149657239
     EX+EC           =    -99.045576487
Transforming the Hamiltonian                       ... done (   0.0 sec)
Diagonalizing the Hamiltonian                      ... done (   0.0 sec)
Back transforming the eigenvectors                 ... done (   0.0 sec)
Now organizing SCF variables                       ... done
                      ------------------
                      INITIAL GUESS DONE (   0.8 sec)
                      ------------------
--------------
SCF ITERATIONS
--------------
ITER       Energy         Delta-E        Max-DP      RMS-DP      [F,P]     Damp
               ***  Starting incremental Fock matrix formation  ***
  0  -1830.9436931242   0.000000000000 0.72515641  0.00398554  0.8104864 0.7000
  1  -1831.2716461085  -0.327952984330 0.30512546  0.00202351  0.2393193 0.7000
                               ***Turning on DIIS***
  2  -1831.4845270121  -0.212880903581 0.24835759  0.00153137  0.1607845 0.7000
  3  -1831.6281878420  -0.143660829899 0.14523051  0.00101913  0.1077257 0.7000
  4  -1831.7314128533  -0.103225011254 0.35810385  0.00258181  0.0734922 0.0000
  5  -1831.9819002868  -0.250487433482 0.06482364  0.00031306  0.0513800 0.0000
  6  -1831.9866944305  -0.004794143759 0.02662173  0.00020411  0.0220473 0.0000
  7  -1831.9882700035  -0.001575572998 0.00511875  0.00007280  0.0057754 0.0000
  8  -1831.9887277732  -0.000457769714 0.01091247  0.00010965  0.0068690 0.0000
  9  -1831.9889573132  -0.000229539943 0.00667346  0.00005246  0.0023534 0.0000
 10  -1831.9890492121  -0.000091898931 0.02537829  0.00008545  0.0013792 0.0000
 11  -1831.9890697537  -0.000020541589 0.00599599  0.00004173  0.0006119 0.0000
 12  -1831.9890775497  -0.000007795993 0.03985075  0.00014219  0.0004947 0.0000
 13  -1831.9890785270  -0.000000977316 0.02001758  0.00010267  0.0001314 0.0000
 14  -1831.9890786333  -0.000000106256 0.00479463  0.00004524  0.0001789 0.0000
 15  -1831.9890786754  -0.000000042169 0.00626889  0.00005447  0.0000980 0.0000
 16  -1831.9890786925  -0.000000017043 0.00665231  0.00004803  0.0000316 0.0000
                 **** Energy Check signals convergence ****

               *****************************************************
               *                     SUCCESS                       *
               *           SCF CONVERGED AFTER  17 CYCLES          *
               *****************************************************


Setting up the DFT-NL grid :

General Integration Accuracy     IntAcc      ...  4.340
Radial Grid Type                 RadialGrid  ... Gauss-Chebyshev
Angular Grid (max. acc.)         AngularGrid ... Lebedev-110
Angular grid pruning method      GridPruning ... 3 (G Style)
Weight generation scheme         WeightScheme... Becke
Basis function cutoff            BFCut       ...    1.0000e-10
Integration weight cutoff        WCut        ...    1.0000e-14
Grids for H and He will be reduced by one unit

# of grid points (after initial pruning)     ...  23938 (   0.0 sec)
# of grid points (after weights+screening)   ...  22515 (   0.0 sec)
nearest neighbour list constructed           ...    0.0 sec
Grid point re-assignment to atoms done       ...    0.0 sec
Grid point division into batches done        ...    0.0 sec
Reduced shell lists constructed in    0.0 sec

Total number of grid points                  ...    22515
Total number of batches                      ...      358
Average number of points per batch           ...       62
Average number of grid points per atom       ...     1608
Average number of shells per batch           ...   139.00 (73.94%)
Average number of basis functions per batch  ...   423.88 (77.63%)
Average number of large shells per batch     ...   119.00 (85.61%)
Average number of large basis fcns per batch ...   358.12 (84.49%)
Maximum spatial batch extension              ...   2.08,  1.78,  2.07 au
Average spatial batch extension              ...   0.07,  0.07,  0.07 au

Final grid set up in    0.1 sec

-------------------------------------------------------------------------------
                         DFT-NL dispersion correction                          
-------------------------------------------------------------------------------

SC Energy -1831.989078667 
NL    Energy 0.432637403 
SC+NL Energy -1831.556441264 
NL done in    0.1 sec
-------------------------------------------------------------------------------

----------------
TOTAL SCF ENERGY
----------------

Total Energy       :        -1831.55644126 Eh          -49839.18454 eV

Components:
Nuclear Repulsion  :         1032.47492798 Eh           28095.07112 eV
Electronic Energy  :        -2864.03136924 Eh          -77934.25566 eV
One Electron Energy:        -4569.79006844 Eh         -124350.30961 eV
Two Electron Energy:         1705.75869920 Eh           46416.05395 eV

Virial components:
Potential Energy   :        -3658.95492804 Eh          -99565.22539 eV
Kinetic Energy     :         1827.39848677 Eh           49726.04085 eV
Virial Ratio       :            2.00227534


DFT components:
N(Alpha)           :       54.999991455083 electrons
N(Beta)            :       54.999991455083 electrons
N(Total)           :      109.999982910167 electrons
E(X)               :      -94.554844856988 Eh       
E(C)               :       -5.178030844135 Eh       
NL Energy, E(C,NL) :        0.432637402527 Eh       
E(XC)              :      -99.300238298596 Eh       
DFET-embed. en.    :        0.000000000000 Eh       

---------------
SCF CONVERGENCE
---------------

  Last Energy change         ...    2.5695e-08  Tolerance :   1.0000e-06
  Last MAX-Density change    ...    4.0027e-03  Tolerance :   1.0000e-05
  Last RMS-Density change    ...    4.1720e-05  Tolerance :   1.0000e-06
  Last DIIS Error            ...    2.1289e-05  Tolerance :   1.0000e-06

             **** THE GBW FILE WAS UPDATED (MOR26_pr05.gbw) ****
             **** DENSITY FILE WAS UPDATED (MOR26_pr05.scfp) ****
             **** ENERGY FILE WAS UPDATED (MOR26_pr05.en.tmp) ****
             **** THE GBW FILE WAS UPDATED (MOR26_pr05.gbw) ****
             **** DENSITY FILE WAS UPDATED (MOR26_pr05.scfp) ****
----------------
ORBITAL ENERGIES
----------------

  NO   OCC          E(Eh)            E(eV) 
   0   2.0000    -235.426819     -6406.2894 
   1   2.0000     -27.434221      -746.5231 
   2   2.0000     -23.505302      -639.6118 
   3   2.0000     -23.504643      -639.5938 
   4   2.0000     -23.500325      -639.4764 
   5   2.0000     -19.333154      -526.0819 
   6   2.0000     -19.329211      -525.9746 
   7   2.0000     -19.325418      -525.8714 
   8   2.0000     -19.325392      -525.8706 
   9   2.0000     -19.321711      -525.7705 
  10   2.0000     -19.223618      -523.1012 
  11   2.0000     -10.433113      -283.8994 
  12   2.0000     -10.429491      -283.8009 
  13   2.0000     -10.429346      -283.7969 
  14   2.0000     -10.429320      -283.7962 
  15   2.0000     -10.425823      -283.7011 
  16   2.0000     -10.367339      -282.1096 
  17   2.0000      -3.313937       -90.1768 
  18   2.0000      -2.178126       -59.2698 
  19   2.0000      -2.177065       -59.2409 
  20   2.0000      -2.165346       -58.9221 
  21   2.0000      -1.303894       -35.4808 
  22   2.0000      -1.300730       -35.3946 
  23   2.0000      -1.296226       -35.2721 
  24   2.0000      -1.296200       -35.2714 
  25   2.0000      -1.292577       -35.1728 
  26   2.0000      -1.187020       -32.3004 
  27   2.0000      -0.774716       -21.0811 
  28   2.0000      -0.722119       -19.6499 
  29   2.0000      -0.715657       -19.4740 
  30   2.0000      -0.714980       -19.4556 
  31   2.0000      -0.709903       -19.3174 
  32   2.0000      -0.707330       -19.2474 
  33   2.0000      -0.645267       -17.5586 
  34   2.0000      -0.626706       -17.0535 
  35   2.0000      -0.619503       -16.8575 
  36   2.0000      -0.616639       -16.7796 
  37   2.0000      -0.615912       -16.7598 
  38   2.0000      -0.613139       -16.6844 
  39   2.0000      -0.612841       -16.6763 
  40   2.0000      -0.597810       -16.2672 
  41   2.0000      -0.592695       -16.1280 
  42   2.0000      -0.591640       -16.0994 
  43   2.0000      -0.589257       -16.0345 
  44   2.0000      -0.586175       -15.9506 
  45   2.0000      -0.575845       -15.6695 
  46   2.0000      -0.570363       -15.5204 
  47   2.0000      -0.557318       -15.1654 
  48   2.0000      -0.544408       -14.8141 
  49   2.0000      -0.511567       -13.9205 
  50   2.0000      -0.500485       -13.6189 
  51   2.0000      -0.391029       -10.6404 
  52   2.0000      -0.381261       -10.3746 
  53   2.0000      -0.377040       -10.2598 
  54   2.0000      -0.323195        -8.7946 
  55   0.0000       0.023424         0.6374 
  56   0.0000       0.025583         0.6962 
  57   0.0000       0.030295         0.8244 
  58   0.0000       0.037651         1.0245 
  59   0.0000       0.037922         1.0319 
  60   0.0000       0.045356         1.2342 
  61   0.0000       0.048775         1.3272 
  62   0.0000       0.048794         1.3278 
  63   0.0000       0.051056         1.3893 
  64   0.0000       0.051431         1.3995 
  65   0.0000       0.057605         1.5675 
  66   0.0000       0.058053         1.5797 
  67   0.0000       0.070237         1.9113 
  68   0.0000       0.081600         2.2205 
  69   0.0000       0.084555         2.3009 
  70   0.0000       0.090836         2.4718 
  71   0.0000       0.091550         2.4912 
  72   0.0000       0.095115         2.5882 
  73   0.0000       0.097002         2.6396 
  74   0.0000       0.099455         2.7063 
  75   0.0000       0.104302         2.8382 
  76   0.0000       0.108333         2.9479 
  77   0.0000       0.111186         3.0255 
  78   0.0000       0.116447         3.1687 
  79   0.0000       0.117139         3.1875 
  80   0.0000       0.132306         3.6002 
  81   0.0000       0.133878         3.6430 
  82   0.0000       0.138001         3.7552 
  83   0.0000       0.138127         3.7586 
  84   0.0000       0.168523         4.5858 
  85   0.0000       0.171614         4.6699 
  86   0.0000       0.174376         4.7450 
  87   0.0000       0.174777         4.7559 
  88   0.0000       0.178293         4.8516 
  89   0.0000       0.179441         4.8828 
  90   0.0000       0.182124         4.9559 
  91   0.0000       0.186802         5.0831 
  92   0.0000       0.192015         5.2250 
  93   0.0000       0.210741         5.7345 
  94   0.0000       0.220459         5.9990 
  95   0.0000       0.222053         6.0424 
  96   0.0000       0.235968         6.4210 
  97   0.0000       0.246364         6.7039 
  98   0.0000       0.264527         7.1981 
  99   0.0000       0.266556         7.2534 
 100   0.0000       0.267825         7.2879 
 101   0.0000       0.274332         7.4649 
 102   0.0000       0.276435         7.5222 
 103   0.0000       0.292892         7.9700 
 104   0.0000       0.294300         8.0083 
 105   0.0000       0.295727         8.0471 
 106   0.0000       0.296919         8.0796 
 107   0.0000       0.301327         8.1995 
 108   0.0000       0.311203         8.4683 
 109   0.0000       0.315641         8.5890 
 110   0.0000       0.319384         8.6909 
 111   0.0000       0.328587         8.9413 
 112   0.0000       0.339039         9.2257 
 113   0.0000       0.350216         9.5299 
 114   0.0000       0.352890         9.6026 
 115   0.0000       0.362410         9.8617 
 116   0.0000       0.370026        10.0689 
 117   0.0000       0.371294        10.1034 
 118   0.0000       0.373914        10.1747 
 119   0.0000       0.390757        10.6330 
 120   0.0000       0.395270        10.7558 
 121   0.0000       0.397634        10.8202 
 122   0.0000       0.400506        10.8983 
 123   0.0000       0.405483        11.0337 
 124   0.0000       0.410044        11.1579 
 125   0.0000       0.417719        11.3667 
 126   0.0000       0.420959        11.4549 
 127   0.0000       0.425541        11.5796 
 128   0.0000       0.427548        11.6342 
 129   0.0000       0.444309        12.0903 
 130   0.0000       0.452875        12.3234 
 131   0.0000       0.459785        12.5114 
 132   0.0000       0.465708        12.6726 
 133   0.0000       0.477330        12.9888 
 134   0.0000       0.491449        13.3730 
 135   0.0000       0.500070        13.6076 
 136   0.0000       0.502410        13.6713 
 137   0.0000       0.510322        13.8866 
 138   0.0000       0.512865        13.9558 
 139   0.0000       0.537983        14.6393 
 140   0.0000       0.543292        14.7837 
 141   0.0000       0.550609        14.9828 
 142   0.0000       0.556010        15.1298 
 143   0.0000       0.558648        15.2016 
 144   0.0000       0.559827        15.2337 
 145   0.0000       0.562939        15.3183 
 146   0.0000       0.567145        15.4328 
 147   0.0000       0.579728        15.7752 
 148   0.0000       0.581963        15.8360 
 149   0.0000       0.584974        15.9180 
 150   0.0000       0.589033        16.0284 
 151   0.0000       0.594516        16.1776 
 152   0.0000       0.603349        16.4180 
 153   0.0000       0.612358        16.6631 
 154   0.0000       0.616937        16.7877 
 155   0.0000       0.618054        16.8181 
 156   0.0000       0.620937        16.8966 
 157   0.0000       0.623835        16.9754 
 158   0.0000       0.627166        17.0660 
 159   0.0000       0.634763        17.2728 
 160   0.0000       0.635058        17.2808 
 161   0.0000       0.636999        17.3336 
 162   0.0000       0.643362        17.5068 
 163   0.0000       0.649273        17.6676 
 164   0.0000       0.652563        17.7571 
 165   0.0000       0.653571        17.7846 
 166   0.0000       0.659935        17.9578 
 167   0.0000       0.662605        18.0304 
 168   0.0000       0.667175        18.1548 
 169   0.0000       0.683436        18.5972 
 170   0.0000       0.694586        18.9006 
 171   0.0000       0.698694        19.0124 
 172   0.0000       0.705533        19.1985 
 173   0.0000       0.707056        19.2400 
 174   0.0000       0.714471        19.4418 
 175   0.0000       0.720084        19.5945 
 176   0.0000       0.720721        19.6118 
 177   0.0000       0.732519        19.9329 
 178   0.0000       0.744992        20.2723 
 179   0.0000       0.748971        20.3805 
 180   0.0000       0.750688        20.4273 
 181   0.0000       0.756301        20.5800 
 182   0.0000       0.756613        20.5885 
 183   0.0000       0.759778        20.6746 
 184   0.0000       0.773165        21.0389 
 185   0.0000       0.780394        21.2356 
 186   0.0000       0.787928        21.4406 
 187   0.0000       0.791077        21.5263 
 188   0.0000       0.794491        21.6192 
 189   0.0000       0.810704        22.0604 
 190   0.0000       0.814018        22.1506 
 191   0.0000       0.821828        22.3631 
 192   0.0000       0.822158        22.3721 
 193   0.0000       0.827317        22.5124 
 194   0.0000       0.838621        22.8200 
 195   0.0000       0.839481        22.8434 
 196   0.0000       0.859584        23.3905 
 197   0.0000       0.863645        23.5010 
 198   0.0000       0.871183        23.7061 
 199   0.0000       0.877003        23.8645 
 200   0.0000       0.881370        23.9833 
 201   0.0000       0.896442        24.3934 
 202   0.0000       0.898782        24.4571 
 203   0.0000       0.906139        24.6573 
 204   0.0000       0.907083        24.6830 
 205   0.0000       0.920115        25.0376 
 206   0.0000       0.933038        25.3893 
 207   0.0000       0.933307        25.3966 
 208   0.0000       0.940782        25.6000 
 209   0.0000       0.941039        25.6070 
 210   0.0000       0.947381        25.7795 
 211   0.0000       0.974228        26.5101 
 212   0.0000       0.979742        26.6601 
 213   0.0000       0.980895        26.6915 
 214   0.0000       0.981138        26.6981 
 215   0.0000       0.996222        27.1086 
 216   0.0000       1.011140        27.5145 
 217   0.0000       1.022112        27.8131 
 218   0.0000       1.028018        27.9738 
 219   0.0000       1.032477        28.0951 
 220   0.0000       1.051881        28.6231 
 221   0.0000       1.056691        28.7540 
 222   0.0000       1.058626        28.8067 
 223   0.0000       1.082165        29.4472 
 224   0.0000       1.087712        29.5982 
 225   0.0000       1.109515        30.1914 
 226   0.0000       1.118642        30.4398 
 227   0.0000       1.130868        30.7725 
 228   0.0000       1.133257        30.8375 
 229   0.0000       1.137658        30.9572 
 230   0.0000       1.139256        31.0007 
 231   0.0000       1.152770        31.3685 
 232   0.0000       1.162803        31.6415 
 233   0.0000       1.165109        31.7042 
 234   0.0000       1.172008        31.8920 
 235   0.0000       1.193617        32.4800 
 236   0.0000       1.205449        32.8019 
 237   0.0000       1.225711        33.3533 
 238   0.0000       1.232625        33.5414 
 239   0.0000       1.254274        34.1305 
 240   0.0000       1.255069        34.1522 
 241   0.0000       1.301853        35.4252 
 242   0.0000       1.314795        35.7774 
 243   0.0000       1.324676        36.0463 
 244   0.0000       1.356888        36.9228 
 245   0.0000       1.359803        37.0021 
 246   0.0000       1.360097        37.0101 
 247   0.0000       1.378315        37.5058 
 248   0.0000       1.385267        37.6950 
 249   0.0000       1.394777        37.9538 
 250   0.0000       1.405407        38.2431 
 251   0.0000       1.405529        38.2464 
 252   0.0000       1.406620        38.2761 
 253   0.0000       1.436343        39.0849 
 254   0.0000       1.442721        39.2584 
 255   0.0000       1.447095        39.3775 
 256   0.0000       1.461817        39.7781 
 257   0.0000       1.479164        40.2501 
 258   0.0000       1.530692        41.6523 
 259   0.0000       1.557305        42.3764 
 260   0.0000       1.576530        42.8996 
 261   0.0000       1.588007        43.2119 
 262   0.0000       1.659159        45.1480 
 263   0.0000       1.664714        45.2992 
 264   0.0000       1.673825        45.5471 
 265   0.0000       1.719328        46.7853 
 266   0.0000       1.759726        47.8846 
 267   0.0000       1.790802        48.7302 
 268   0.0000       1.791465        48.7482 
 269   0.0000       1.797192        48.9041 
 270   0.0000       1.808761        49.2189 
 271   0.0000       1.813668        49.3524 
 272   0.0000       1.827021        49.7158 
 273   0.0000       1.830919        49.8218 
 274   0.0000       1.837431        49.9991 
 275   0.0000       1.838098        50.0172 
 276   0.0000       1.852567        50.4109 
 277   0.0000       1.858637        50.5761 
 278   0.0000       1.864482        50.7351 
 279   0.0000       1.879300        51.1384 
 280   0.0000       1.897427        51.6316 
 281   0.0000       1.897986        51.6468 
 282   0.0000       1.911930        52.0263 
 283   0.0000       1.917667        52.1824 
 284   0.0000       1.921455        52.2855 
 285   0.0000       1.928835        52.4863 
 286   0.0000       1.929692        52.5096 
 287   0.0000       1.943167        52.8763 
 288   0.0000       1.955160        53.2026 
 289   0.0000       1.964964        53.4694 
 290   0.0000       1.981314        53.9143 
 291   0.0000       1.991270        54.1852 
 292   0.0000       1.994356        54.2692 
 293   0.0000       2.000746        54.4431 
 294   0.0000       2.037789        55.4511 
 295   0.0000       2.040124        55.5146 
 296   0.0000       2.044449        55.6323 
 297   0.0000       2.079352        56.5820 
 298   0.0000       2.099650        57.1344 
 299   0.0000       2.103790        57.2470 
 300   0.0000       2.132373        58.0248 
 301   0.0000       2.148757        58.4706 
 302   0.0000       2.166586        58.9558 
 303   0.0000       2.176965        59.2382 
 304   0.0000       2.190156        59.5972 
 305   0.0000       2.212868        60.2152 
 306   0.0000       2.224175        60.5229 
 307   0.0000       2.261652        61.5427 
 308   0.0000       2.293965        62.4220 
 309   0.0000       2.313473        62.9528 
 310   0.0000       2.336183        63.5708 
 311   0.0000       2.343274        63.7637 
 312   0.0000       2.368214        64.4424 
 313   0.0000       2.397941        65.2513 
 314   0.0000       2.440192        66.4010 
 315   0.0000       2.453182        66.7545 
 316   0.0000       2.457058        66.8599 
 317   0.0000       2.465096        67.0787 
 318   0.0000       2.471510        67.2532 
 319   0.0000       2.483023        67.5665 
 320   0.0000       2.505511        68.1784 
 321   0.0000       2.531793        68.8936 
 322   0.0000       2.533648        68.9441 
 323   0.0000       2.558305        69.6150 
 324   0.0000       2.566618        69.8412 
 325   0.0000       2.579034        70.1791 
 326   0.0000       2.585640        70.3588 
 327   0.0000       2.703554        73.5674 
 328   0.0000       2.743756        74.6614 
 329   0.0000       2.744114        74.6711 
 330   0.0000       2.764943        75.2379 
 331   0.0000       2.767411        75.3051 
 332   0.0000       2.780704        75.6668 
 333   0.0000       2.782365        75.7120 
 334   0.0000       2.794263        76.0358 
 335   0.0000       2.796592        76.0991 
 336   0.0000       2.819972        76.7353 
 337   0.0000       2.827389        76.9372 
 338   0.0000       2.842360        77.3446 
 339   0.0000       2.871315        78.1324 
 340   0.0000       2.887271        78.5666 
 341   0.0000       2.891010        78.6684 
 342   0.0000       2.901196        78.9455 
 343   0.0000       2.919799        79.4518 
 344   0.0000       2.926571        79.6360 
 345   0.0000       2.930289        79.7372 
 346   0.0000       2.955332        80.4187 
 347   0.0000       2.956411        80.4480 
 348   0.0000       2.962141        80.6039 
 349   0.0000       2.970650        80.8355 
 350   0.0000       2.996358        81.5350 
 351   0.0000       3.003148        81.7198 
 352   0.0000       3.028913        82.4209 
 353   0.0000       3.040202        82.7281 
 354   0.0000       3.085245        83.9538 
 355   0.0000       3.113795        84.7307 
 356   0.0000       3.117770        84.8388 
 357   0.0000       3.126473        85.0757 
 358   0.0000       3.135203        85.3132 
 359   0.0000       3.136887        85.3590 
 360   0.0000       3.149410        85.6998 
 361   0.0000       3.151380        85.7534 
 362   0.0000       3.160202        85.9935 
 363   0.0000       3.163792        86.0912 
 364   0.0000       3.168955        86.2317 
 365   0.0000       3.196038        86.9686 
 366   0.0000       3.207149        87.2710 
 367   0.0000       3.213471        87.4430 
 368   0.0000       3.237958        88.1093 
 369   0.0000       3.279313        89.2347 
 370   0.0000       3.285898        89.4138 
 371   0.0000       3.291411        89.5639 
 372   0.0000       3.316666        90.2511 
 373   0.0000       3.320171        90.3464 
 374   0.0000       3.322520        90.4104 
 375   0.0000       3.331337        90.6503 
 376   0.0000       3.331671        90.6594 
 377   0.0000       3.355786        91.3156 
 378   0.0000       3.364125        91.5425 
 379   0.0000       3.375354        91.8480 
 380   0.0000       3.378616        91.9368 
 381   0.0000       3.384608        92.0999 
 382   0.0000       3.401747        92.5663 
 383   0.0000       3.423021        93.1451 
 384   0.0000       3.438999        93.5799 
 385   0.0000       3.454314        93.9967 
 386   0.0000       3.470779        94.4447 
 387   0.0000       3.494930        95.1019 
 388   0.0000       3.519479        95.7699 
 389   0.0000       3.520272        95.7915 
 390   0.0000       3.524537        95.9075 
 391   0.0000       3.532937        96.1361 
 392   0.0000       3.534985        96.1918 
 393   0.0000       3.565588        97.0246 
 394   0.0000       3.580445        97.4289 
 395   0.0000       3.581995        97.4710 
 396   0.0000       3.585483        97.5660 
 397   0.0000       3.590891        97.7131 
 398   0.0000       3.628201        98.7284 
 399   0.0000       3.636379        98.9509 
 400   0.0000       3.646103        99.2155 
 401   0.0000       3.687696       100.3473 
 402   0.0000       3.703184       100.7687 
 403   0.0000       3.713363       101.0457 
 404   0.0000       3.725676       101.3808 
 405   0.0000       3.732470       101.5657 
 406   0.0000       3.747552       101.9761 
 407   0.0000       3.761942       102.3676 
 408   0.0000       3.772576       102.6570 
 409   0.0000       3.794155       103.2442 
 410   0.0000       3.802985       103.4845 
 411   0.0000       3.832115       104.2771 
 412   0.0000       3.860237       105.0424 
 413   0.0000       3.868351       105.2632 
 414   0.0000       3.914600       106.5217 
 415   0.0000       3.934222       107.0556 
 416   0.0000       3.988005       108.5191 
 417   0.0000       3.998955       108.8171 
 418   0.0000       4.004818       108.9767 
 419   0.0000       4.015839       109.2765 
 420   0.0000       4.038637       109.8969 
 421   0.0000       4.049496       110.1924 
 422   0.0000       4.058343       110.4331 
 423   0.0000       4.064034       110.5880 
 424   0.0000       4.073898       110.8564 
 425   0.0000       4.096287       111.4656 
 426   0.0000       4.164716       113.3277 
 427   0.0000       4.197886       114.2303 
 428   0.0000       4.274389       116.3120 
 429   0.0000       4.299926       117.0069 
 430   0.0000       4.486875       122.0941 
 431   0.0000       4.515660       122.8773 
 432   0.0000       4.543212       123.6271 
 433   0.0000       4.560724       124.1036 
 434   0.0000       4.592618       124.9715 
 435   0.0000       4.632874       126.0669 
 436   0.0000       4.765986       129.6891 
 437   0.0000       4.768067       129.7457 
 438   0.0000       4.797004       130.5331 
 439   0.0000       4.888258       133.0163 
 440   0.0000       4.947142       134.6186 
 441   0.0000       4.954806       134.8271 
 442   0.0000       5.045383       137.2919 
 443   0.0000       5.052033       137.4728 
 444   0.0000       5.090836       138.5287 
 445   0.0000       5.169018       140.6561 
 446   0.0000       5.170753       140.7033 
 447   0.0000       5.175173       140.8236 
 448   0.0000       5.176095       140.8487 
 449   0.0000       5.176632       140.8633 
 450   0.0000       5.176680       140.8646 
 451   0.0000       5.177656       140.8912 
 452   0.0000       5.177865       140.8969 
 453   0.0000       5.179369       140.9378 
 454   0.0000       5.181814       141.0043 
 455   0.0000       5.315395       144.6392 
 456   0.0000       5.342406       145.3742 
 457   0.0000       5.436295       147.9291 
 458   0.0000       5.568604       151.5294 
 459   0.0000       5.570063       151.5691 
 460   0.0000       5.585817       151.9978 
 461   0.0000       5.589590       152.1005 
 462   0.0000       5.594241       152.2270 
 463   0.0000       5.595225       152.2538 
 464   0.0000       5.597159       152.3064 
 465   0.0000       5.600167       152.3883 
 466   0.0000       5.677248       154.4858 
 467   0.0000       5.697114       155.0264 
 468   0.0000       5.718551       155.6097 
 469   0.0000       5.853007       159.2684 
 470   0.0000       6.230331       169.5359 
 471   0.0000       6.249604       170.0604 
 472   0.0000       6.254521       170.1942 
 473   0.0000       6.263817       170.4471 
 474   0.0000       6.375513       173.4865 
 475   0.0000       6.403868       174.2581 
 476   0.0000       6.408961       174.3967 
 477   0.0000       6.414150       174.5379 
 478   0.0000       6.417171       174.6201 
 479   0.0000       6.452982       175.5946 
 480   0.0000       6.474454       176.1789 
 481   0.0000       6.491568       176.6446 
 482   0.0000       6.496431       176.7769 
 483   0.0000       6.497164       176.7968 
 484   0.0000       6.510444       177.1582 
 485   0.0000       6.515776       177.3033 
 486   0.0000       6.516164       177.3138 
 487   0.0000       6.523665       177.5180 
 488   0.0000       6.533023       177.7726 
 489   0.0000       6.546096       178.1283 
 490   0.0000       6.555577       178.3863 
 491   0.0000       6.568539       178.7390 
 492   0.0000       6.607041       179.7867 
 493   0.0000       6.617525       180.0720 
 494   0.0000       6.716917       182.7766 
 495   0.0000       6.723269       182.9494 
 496   0.0000       6.733718       183.2338 
 497   0.0000       6.741551       183.4469 
 498   0.0000       6.755509       183.8268 
 499   0.0000       6.763044       184.0318 
 500   0.0000       6.914196       188.1448 
 501   0.0000       6.939604       188.8362 
 502   0.0000       6.940717       188.8665 
 503   0.0000       6.945505       188.9968 
 504   0.0000       6.961374       189.4286 
 505   0.0000       6.971845       189.7136 
 506   0.0000       6.973141       189.7488 
 507   0.0000       6.976230       189.8329 
 508   0.0000       6.976724       189.8463 
 509   0.0000       6.983516       190.0311 
 510   0.0000       6.986804       190.1206 
 511   0.0000       7.178324       195.3321 
 512   0.0000       7.262409       197.6202 
 513   0.0000       7.264462       197.6761 
 514   0.0000       7.278855       198.0677 
 515   0.0000       7.299062       198.6176 
 516   0.0000       7.303814       198.7469 
 517   0.0000       7.310477       198.9282 
 518   0.0000       7.316182       199.0834 
 519   0.0000       7.316966       199.1048 
 520   0.0000       7.336993       199.6497 
 521   0.0000       7.507075       204.2779 
 522   0.0000       7.519326       204.6113 
 523   0.0000       7.525994       204.7927 
 524   0.0000       7.603361       206.8980 
 525   0.0000       7.721151       210.1032 
 526   0.0000       7.940759       216.0790 
 527   0.0000       8.107923       220.6278 
 528   0.0000       8.393200       228.3906 
 529   0.0000       8.403038       228.6583 
 530   0.0000       8.534007       232.2221 
 531   0.0000       8.827183       240.1999 
 532   0.0000       8.921346       242.7622 
 533   0.0000       8.963944       243.9213 
 534   0.0000      23.440837       637.8576 
 535   0.0000      23.468177       638.6016 
 536   0.0000      23.521785       640.0603 
 537   0.0000      23.698033       644.8563 
 538   0.0000      23.811806       647.9522 
 539   0.0000      23.866733       649.4468 
 540   0.0000      44.212030      1203.0705 
 541   0.0000      44.301464      1205.5041 
 542   0.0000      44.317790      1205.9484 
 543   0.0000      44.330116      1206.2838 
 544   0.0000      44.363680      1207.1971 
 545   0.0000      44.408138      1208.4069 

                    ********************************
                    * MULLIKEN POPULATION ANALYSIS *
                    ********************************

-----------------------
MULLIKEN ATOMIC CHARGES
-----------------------
   0 Mn:    1.025587
   1 O :   -0.176016
   2 C :    0.149052
   3 C :    0.170767
   4 O :   -0.231690
   5 C :    0.073692
   6 O :   -0.205837
   7 C :   -0.028280
   8 O :   -0.209598
   9 C :   -0.029480
  10 O :   -0.209853
  11 C :    0.067818
  12 O :   -0.394126
  13 H :   -0.002035
Sum of atomic charges:    0.0000000

--------------------------------
MULLIKEN REDUCED ORBITAL CHARGES
--------------------------------
  0 Mns       :     6.236646  s :     6.236646
      pz      :     4.010098  p :    11.972397
      px      :     3.976795
      py      :     3.985503
      dz2     :     1.305717  d :     5.754155
      dxz     :     0.693464
      dyz     :     1.449169
      dx2y2   :     0.876239
      dxy     :     1.429567
      f0      :     0.000818  f :     0.011070
      f+1     :     0.002607
      f-1     :     0.001274
      f+2     :     0.002887
      f-2     :     0.000429
      f+3     :     0.000927
      f-3     :     0.002129
      g0      :     0.000022  g :     0.000145
      g+1     :     0.000014
      g-1     :     0.000008
      g+2     :     0.000032
      g-2     :     0.000005
      g+3     :     0.000022
      g-3     :     0.000009
      g+4     :     0.000023
      g-4     :     0.000011
  1 O s       :     3.876660  s :     3.876660
      pz      :     1.408406  p :     4.255322
      px      :     1.385574
      py      :     1.461342
      dz2     :     0.011033  d :     0.042275
      dxz     :     0.010039
      dyz     :     0.006099
      dx2y2   :     0.006672
      dxy     :     0.008433
      f0      :     0.000223  f :     0.001759
      f+1     :     0.000500
      f-1     :     0.000056
      f+2     :     0.000204
      f-2     :     0.000435
      f+3     :     0.000129
      f-3     :     0.000212
  2 C s       :     3.590284  s :     3.590284
      pz      :     0.716288  p :     2.078702
      px      :     0.744594
      py      :     0.617820
      dz2     :     0.053507  d :     0.163842
      dxz     :     0.001912
      dyz     :     0.033406
      dx2y2   :     0.029377
      dxy     :     0.045640
      f0      :     0.002231  f :     0.018120
      f+1     :     0.005149
      f-1     :     0.000589
      f+2     :     0.002982
      f-2     :     0.003901
      f+3     :     0.001430
      f-3     :     0.001838
  3 C s       :     3.549507  s :     3.549507
      pz      :     0.738571  p :     2.092728
      px      :     0.723672
      py      :     0.630486
      dz2     :     0.058783  d :     0.169290
      dxz     :     0.003654
      dyz     :     0.045747
      dx2y2   :     0.021142
      dxy     :     0.039963
      f0      :     0.003089  f :     0.017708
      f+1     :     0.004397
      f-1     :     0.001138
      f+2     :     0.002939
      f-2     :     0.003756
      f+3     :     0.001081
      f-3     :     0.001308
  4 O s       :     3.909801  s :     3.909801
      pz      :     1.395145  p :     4.282495
      px      :     1.406138
      py      :     1.481212
      dz2     :     0.011272  d :     0.037681
      dxz     :     0.007924
      dyz     :     0.007081
      dx2y2   :     0.005146
      dxy     :     0.006259
      f0      :     0.000334  f :     0.001712
      f+1     :     0.000377
      f-1     :     0.000117
      f+2     :     0.000226
      f-2     :     0.000420
      f+3     :     0.000098
      f-3     :     0.000140
  5 C s       :     3.640935  s :     3.640935
      pz      :     0.732045  p :     2.102598
      px      :     0.748190
      py      :     0.622363
      dz2     :     0.054095  d :     0.164684
      dxz     :     0.006853
      dyz     :     0.042622
      dx2y2   :     0.021645
      dxy     :     0.039469
      f0      :     0.003021  f :     0.018092
      f+1     :     0.004548
      f-1     :     0.001007
      f+2     :     0.003045
      f-2     :     0.003893
      f+3     :     0.001154
      f-3     :     0.001424
  6 O s       :     3.891874  s :     3.891874
      pz      :     1.395326  p :     4.271245
      px      :     1.404553
      py      :     1.471366
      dz2     :     0.011768  d :     0.041001
      dxz     :     0.009433
      dyz     :     0.007117
      dx2y2   :     0.005856
      dxy     :     0.006827
      f0      :     0.000314  f :     0.001717
      f+1     :     0.000393
      f-1     :     0.000105
      f+2     :     0.000222
      f-2     :     0.000428
      f+3     :     0.000103
      f-3     :     0.000151
  7 C s       :     3.662145  s :     3.662145
      pz      :     0.628562  p :     2.162251
      px      :     0.635132
      py      :     0.898557
      dz2     :     0.006695  d :     0.185858
      dxz     :     0.007428
      dyz     :     0.079308
      dx2y2   :     0.011776
      dxy     :     0.080651
      f0      :     0.002159  f :     0.018026
      f+1     :     0.000359
      f-1     :     0.002386
      f+2     :     0.003543
      f-2     :     0.000492
      f+3     :     0.005361
      f-3     :     0.003726
  8 O s       :     3.895978  s :     3.895978
      pz      :     1.474131  p :     4.272831
      px      :     1.473482
      py      :     1.325219
      dz2     :     0.003067  d :     0.039062
      dxz     :     0.000177
      dyz     :     0.013835
      dx2y2   :     0.008439
      dxy     :     0.013545
      f0      :     0.000234  f :     0.001727
      f+1     :     0.000039
      f-1     :     0.000172
      f+2     :     0.000390
      f-2     :     0.000038
      f+3     :     0.000583
      f-3     :     0.000269
  9 C s       :     3.662887  s :     3.662887
      pz      :     0.629386  p :     2.162683
      px      :     0.634817
      py      :     0.898479
      dz2     :     0.007186  d :     0.185885
      dxz     :     0.007517
      dyz     :     0.078786
      dx2y2   :     0.011615
      dxy     :     0.080780
      f0      :     0.002129  f :     0.018026
      f+1     :     0.000349
      f-1     :     0.002444
      f+2     :     0.003544
      f-2     :     0.000509
      f+3     :     0.005361
      f-3     :     0.003690
 10 O s       :     3.896122  s :     3.896122
      pz      :     1.473715  p :     4.272962
      px      :     1.473801
      py      :     1.325447
      dz2     :     0.003118  d :     0.039043
      dxz     :     0.000192
      dyz     :     0.013808
      dx2y2   :     0.008396
      dxy     :     0.013529
      f0      :     0.000229  f :     0.001726
      f+1     :     0.000038
      f-1     :     0.000181
      f+2     :     0.000389
      f-2     :     0.000040
      f+3     :     0.000585
      f-3     :     0.000264
 11 C s       :     3.282677  s :     3.282677
      pz      :     0.996396  p :     2.405735
      px      :     0.777558
      py      :     0.631781
      dz2     :     0.027671  d :     0.230150
      dxz     :     0.133839
      dyz     :     0.004958
      dx2y2   :     0.019463
      dxy     :     0.044220
      f0      :     0.002672  f :     0.013621
      f+1     :     0.002143
      f-1     :     0.000260
      f+2     :     0.002932
      f-2     :     0.000353
      f+3     :     0.001857
      f-3     :     0.003404
 12 O s       :     3.934650  s :     3.934650
      pz      :     1.780418  p :     4.422295
      px      :     1.312582
      py      :     1.329295
      dz2     :     0.003256  d :     0.035403
      dxz     :     0.008880
      dyz     :     0.000427
      dx2y2   :     0.006165
      dxy     :     0.016675
      f0      :     0.000247  f :     0.001779
      f+1     :     0.000319
      f-1     :     0.000070
      f+2     :     0.000324
      f-2     :     0.000044
      f+3     :     0.000244
      f-3     :     0.000532
 13 H s       :     0.951418  s :     0.951418
      pz      :     0.049976  p :     0.048407
      px      :    -0.004334
      py      :     0.002765
      dz2     :     0.000610  d :     0.002210
      dxz     :     0.000873
      dyz     :     0.000373
      dx2y2   :     0.000229
      dxy     :     0.000126


                     *******************************
                     * LOEWDIN POPULATION ANALYSIS *
                     *******************************

----------------------
LOEWDIN ATOMIC CHARGES
----------------------
   0 Mn:   -0.459364
   1 O :    0.203534
   2 C :   -0.049803
   3 C :   -0.061358
   4 O :    0.164328
   5 C :   -0.071544
   6 O :    0.186216
   7 C :   -0.062672
   8 O :    0.182204
   9 C :   -0.062791
  10 O :    0.182120
  11 C :   -0.148377
  12 O :    0.012894
  13 H :   -0.015388

-------------------------------
LOEWDIN REDUCED ORBITAL CHARGES
-------------------------------
  0 Mns       :     5.977161  s :     5.977161
      pz      :     4.326870  p :    12.987948
      px      :     4.328972
      py      :     4.332106
      dz2     :     1.388058  d :     6.447664
      dxz     :     1.036699
      dyz     :     1.434682
      dx2y2   :     1.146908
      dxy     :     1.441317
      f0      :     0.002500  f :     0.046081
      f+1     :     0.011003
      f-1     :     0.005693
      f+2     :     0.012889
      f-2     :     0.001026
      f+3     :     0.003489
      f-3     :     0.009480
      g0      :     0.000075  g :     0.000510
      g+1     :     0.000027
      g-1     :     0.000014
      g+2     :     0.000167
      g-2     :     0.000009
      g+3     :     0.000085
      g-3     :     0.000018
      g+4     :     0.000093
      g-4     :     0.000023
  1 O s       :     3.374314  s :     3.374314
      pz      :     1.440883  p :     4.240304
      px      :     1.477138
      py      :     1.322283
      dz2     :     0.026674  d :     0.175629
      dxz     :     0.080597
      dyz     :     0.013801
      dx2y2   :     0.035057
      dxy     :     0.019500
      f0      :     0.000654  f :     0.006219
      f+1     :     0.001765
      f-1     :     0.000108
      f+2     :     0.001865
      f-2     :     0.000834
      f+3     :     0.000579
      f-3     :     0.000414
  2 C s       :     2.884275  s :     2.884275
      pz      :     0.787801  p :     2.230584
      px      :     0.859821
      py      :     0.582962
      dz2     :     0.199418  d :     0.845862
      dxz     :     0.220132
      dyz     :     0.126828
      dx2y2   :     0.148139
      dxy     :     0.151345
      f0      :     0.010763  f :     0.089081
      f+1     :     0.025026
      f-1     :     0.002723
      f+2     :     0.016535
      f-2     :     0.017818
      f+3     :     0.007356
      f-3     :     0.008860
  3 C s       :     2.894953  s :     2.894953
      pz      :     0.838287  p :     2.244620
      px      :     0.809370
      py      :     0.596963
      dz2     :     0.229085  d :     0.834388
      dxz     :     0.204250
      dyz     :     0.147006
      dx2y2   :     0.123588
      dxy     :     0.130460
      f0      :     0.014230  f :     0.087397
      f+1     :     0.023131
      f-1     :     0.005212
      f+2     :     0.016053
      f-2     :     0.017601
      f+3     :     0.005120
      f-3     :     0.006050
  4 O s       :     3.383640  s :     3.383640
      pz      :     1.470705  p :     4.266503
      px      :     1.454608
      py      :     1.341189
      dz2     :     0.036237  d :     0.179446
      dxz     :     0.079867
      dyz     :     0.019661
      dx2y2   :     0.026391
      dxy     :     0.017290
      f0      :     0.000702  f :     0.006083
      f+1     :     0.002037
      f-1     :     0.000236
      f+2     :     0.001614
      f-2     :     0.000848
      f+3     :     0.000365
      f-3     :     0.000281
  5 C s       :     2.887586  s :     2.887586
      pz      :     0.832070  p :     2.239681
      px      :     0.821836
      py      :     0.585776
      dz2     :     0.230517  d :     0.855871
      dxz     :     0.215924
      dyz     :     0.138764
      dx2y2   :     0.127897
      dxy     :     0.142769
      f0      :     0.013993  f :     0.088406
      f+1     :     0.023312
      f-1     :     0.004707
      f+2     :     0.016308
      f-2     :     0.017855
      f+3     :     0.005622
      f-3     :     0.006608
  6 O s       :     3.378587  s :     3.378587
      pz      :     1.464004  p :     4.252583
      px      :     1.457383
      py      :     1.331196
      dz2     :     0.034393  d :     0.176486
      dxz     :     0.080716
      dyz     :     0.017727
      dx2y2   :     0.027022
      dxy     :     0.016628
      f0      :     0.000702  f :     0.006128
      f+1     :     0.002015
      f-1     :     0.000206
      f+2     :     0.001673
      f-2     :     0.000835
      f+3     :     0.000402
      f-3     :     0.000295
  7 C s       :     2.882624  s :     2.882624
      pz      :     0.600220  p :     2.243285
      px      :     0.598261
      py      :     1.044805
      dz2     :     0.078717  d :     0.848277
      dxz     :     0.038649
      dyz     :     0.265083
      dx2y2   :     0.201856
      dxy     :     0.263972
      f0      :     0.010102  f :     0.088486
      f+1     :     0.001763
      f-1     :     0.012617
      f+2     :     0.016777
      f-2     :     0.002201
      f+3     :     0.025235
      f-3     :     0.019790
  8 O s       :     3.378049  s :     3.378049
      pz      :     1.338058  p :     4.254844
      px      :     1.337990
      py      :     1.578796
      dz2     :     0.025832  d :     0.178754
      dxz     :     0.001058
      dyz     :     0.037888
      dx2y2   :     0.076276
      dxy     :     0.037701
      f0      :     0.000537  f :     0.006148
      f+1     :     0.000090
      f-1     :     0.001223
      f+2     :     0.000886
      f-2     :     0.000083
      f+3     :     0.001343
      f-3     :     0.001985
  9 C s       :     2.882635  s :     2.882635
      pz      :     0.601435  p :     2.243321
      px      :     0.597683
      py      :     1.044203
      dz2     :     0.079569  d :     0.848353
      dxz     :     0.038833
      dyz     :     0.264839
      dx2y2   :     0.201258
      dxy     :     0.263854
      f0      :     0.009983  f :     0.088483
      f+1     :     0.001710
      f-1     :     0.012853
      f+2     :     0.016826
      f-2     :     0.002285
      f+3     :     0.025194
      f-3     :     0.019632
 10 O s       :     3.378073  s :     3.378073
      pz      :     1.338679  p :     4.254898
      px      :     1.337734
      py      :     1.578485
      dz2     :     0.025708  d :     0.178760
      dxz     :     0.001103
      dyz     :     0.038368
      dx2y2   :     0.076192
      dxy     :     0.037389
      f0      :     0.000542  f :     0.006148
      f+1     :     0.000086
      f-1     :     0.001217
      f+2     :     0.000906
      f-2     :     0.000088
      f+3     :     0.001327
      f-3     :     0.001982
 11 C s       :     2.758410  s :     2.758410
      pz      :     0.913268  p :     2.422754
      px      :     0.935910
      py      :     0.573576
      dz2     :     0.174306  d :     0.879535
      dxz     :     0.322685
      dyz     :     0.046874
      dx2y2   :     0.181872
      dxy     :     0.153798
      f0      :     0.017112  f :     0.087678
      f+1     :     0.013912
      f-1     :     0.002153
      f+2     :     0.020324
      f-2     :     0.001875
      f+3     :     0.014275
      f-3     :     0.018026
 12 O s       :     3.368810  s :     3.368810
      pz      :     1.597884  p :     4.354034
      px      :     1.534244
      py      :     1.221907
      dz2     :     0.034280  d :     0.258006
      dxz     :     0.117925
      dyz     :     0.001366
      dx2y2   :     0.073881
      dxy     :     0.030553
      f0      :     0.000836  f :     0.006256
      f+1     :     0.001347
      f-1     :     0.000076
      f+2     :     0.001536
      f-2     :     0.000052
      f+3     :     0.001519
      f-3     :     0.000889
 13 H s       :     0.725803  s :     0.725803
      pz      :     0.149283  p :     0.263457
      px      :     0.072026
      py      :     0.042149
      dz2     :     0.011331  d :     0.026128
      dxz     :     0.008431
      dyz     :     0.004227
      dx2y2   :     0.001246
      dxy     :     0.000893


                      *****************************
                      * MAYER POPULATION ANALYSIS *
                      *****************************

  NA   - Mulliken gross atomic population
  ZA   - Total nuclear charge
  QA   - Mulliken gross atomic charge
  VA   - Mayer's total valence
  BVA  - Mayer's bonded valence
  FA   - Mayer's free valence

  ATOM       NA         ZA         QA         VA         BVA        FA
  0 Mn    23.9744    25.0000     1.0256     4.3377     4.3377    -0.0000
  1 O      8.1760     8.0000    -0.1760     2.3311     2.3311    -0.0000
  2 C      5.8509     6.0000     0.1491     3.2597     3.2597    -0.0000
  3 C      5.8292     6.0000     0.1708     3.2215     3.2215    -0.0000
  4 O      8.2317     8.0000    -0.2317     2.2956     2.2956    -0.0000
  5 C      5.9263     6.0000     0.0737     3.2233     3.2233     0.0000
  6 O      8.2058     8.0000    -0.2058     2.3182     2.3182    -0.0000
  7 C      6.0283     6.0000    -0.0283     3.3578     3.3578     0.0000
  8 O      8.2096     8.0000    -0.2096     2.3232     2.3232     0.0000
  9 C      6.0295     6.0000    -0.0295     3.3561     3.3561     0.0000
 10 O      8.2099     8.0000    -0.2099     2.3233     2.3233    -0.0000
 11 C      5.9322     6.0000     0.0678     4.0447     4.0447     0.0000
 12 O      8.3941     8.0000    -0.3941     1.9617     1.9617     0.0000
 13 H      1.0020     1.0000    -0.0020     1.1466     1.1466     0.0000

  Mayer bond orders larger than 0.100000
B(  0-Mn,  2-C ) :   0.6804 B(  0-Mn,  3-C ) :   0.9000 B(  0-Mn,  5-C ) :   0.6478 
B(  0-Mn,  7-C ) :   0.7121 B(  0-Mn,  9-C ) :   0.7103 B(  0-Mn, 11-C ) :   0.5418 
B(  0-Mn, 13-H ) :  -0.1132 B(  1-O ,  2-C ) :   2.2693 B(  3-C ,  4-O ) :   2.2368 
B(  5-C ,  6-O ) :   2.2515 B(  7-C ,  8-O ) :   2.2552 B(  7-C , 11-C ) :   0.1415 
B(  9-C , 10-O ) :   2.2550 B(  9-C , 11-C ) :   0.1426 B( 11-C , 12-O ) :   1.9018 
B( 11-C , 13-H ) :   1.1967 

-------
TIMINGS
-------

Total SCF time: 0 days 0 hours 4 min 39 sec 

Total time                  ....     279.092 sec
Sum of individual times     ....     278.359 sec  ( 99.7%)

Fock matrix formation       ....     275.435 sec  ( 98.7%)
  XC integration            ....       3.353 sec  (  1.2% of F)
    Basis function eval.    ....       0.603 sec  ( 18.0% of XC)
    Density eval.           ....       0.836 sec  ( 24.9% of XC)
    XC-Functional eval.     ....       0.107 sec  (  3.2% of XC)
    XC-Potential eval.      ....       1.020 sec  ( 30.4% of XC)
Diagonalization             ....       1.165 sec  (  0.4%)
Density matrix formation    ....       0.067 sec  (  0.0%)
Population analysis         ....       0.058 sec  (  0.0%)
Initial guess               ....       0.329 sec  (  0.1%)
Orbital Transformation      ....       0.000 sec  (  0.0%)
Orbital Orthonormalization  ....       0.000 sec  (  0.0%)
DIIS solution               ....       0.782 sec  (  0.3%)
Grid generation             ....       0.525 sec  (  0.2%)

-------------------------   --------------------
FINAL SINGLE POINT ENERGY     -1831.556441264248
-------------------------   --------------------


                            ***************************************
                            *     ORCA property calculations      *
                            ***************************************

                                    ---------------------
                                    Active property flags
                                    ---------------------
   (+) Dipole Moment


------------------------------------------------------------------------------
                       ORCA ELECTRIC PROPERTIES CALCULATION
------------------------------------------------------------------------------

Dipole Moment Calculation                       ... on
Quadrupole Moment Calculation                   ... off
Polarizability Calculation                      ... off
GBWName                                         ... MOR26_pr05.gbw
Electron density file                           ... MOR26_pr05.scfp
The origin for moment calculation is the CENTER OF MASS  = ( 0.013844, -0.000056  0.023223)

-------------
DIPOLE MOMENT
-------------
                                X             Y             Z
Electronic contribution:      2.50452      -0.00747       2.73246
Nuclear contribution   :     -1.52284       0.00619      -2.55446
                        -----------------------------------------
Total Dipole Moment    :      0.98168      -0.00128       0.17800
                        -----------------------------------------
Magnitude (a.u.)       :      0.99769
Magnitude (Debye)      :      2.53592



--------------------
Rotational spectrum 
--------------------
 
Rotational constants in cm-1:     0.023969     0.022043     0.021367 
Rotational constants in MHz :   718.564967   660.846663   640.564054 

 Dipole components along the rotational axes: 
x,y,z [a.u.] :    -0.976502    -0.001237     0.204499 
x,y,z [Debye]:    -2.482070    -0.003145     0.519794 

 

Timings for individual modules:

Sum of individual times         ...      280.506 sec (=   4.675 min)
GTO integral calculation        ...        0.972 sec (=   0.016 min)   0.3 %
SCF iterations                  ...      279.535 sec (=   4.659 min)  99.7 %
                             ****ORCA TERMINATED NORMALLY****
TOTAL RUN TIME: 0 days 0 hours 4 minutes 41 seconds 59 msec
