
                                 *****************
                                 * O   R   C   A *
                                 *****************

           --- An Ab Initio, DFT and Semiempirical electronic structure package ---

                  #######################################################
                  #                        -***-                        #
                  #          Department of theory and spectroscopy      #
                  #               Directorship: Frank Neese             #
                  #        Max Planck Institute fuer Kohlenforschung    #
                  #                Kaiser Wilhelm Platz 1               #
                  #                 D-45470 Muelheim/Ruhr               #
                  #                      Germany                        #
                  #                                                     #
                  #                  All rights reserved                #
                  #                        -***-                        #
                  #######################################################


                         Program Version 4.2.0 -  RELEASE  -


 With contributions from (in alphabetic order):
   Daniel Aravena         : Magnetic Suceptibility
   Michael Atanasov       : Ab Initio Ligand Field Theory (pilot matlab implementation)
   Alexander A. Auer      : GIAO ZORA, VPT2
   Ute Becker             : Parallelization
   Giovanni Bistoni       : ED, misc. LED, open-shell LED, HFLED
   Martin Brehm           : Molecular dynamics
   Dmytro Bykov           : SCF Hessian
   Vijay G. Chilkuri      : MRCI spin determinant printing, contributions to CSF-ICE
   Dipayan Datta          : RHF DLPNO-CCSD density
   Achintya Kumar Dutta   : EOM-CC, STEOM-CC
   Dmitry Ganyushin       : Spin-Orbit,Spin-Spin,Magnetic field MRCI
   Miquel Garcia          : C-PCM Hessian, Gaussian charge scheme
   Yang Guo               : DLPNO-NEVPT2, CIM, IAO-localization
   Andreas Hansen         : Spin unrestricted coupled pair/coupled cluster methods
   Benjamin Helmich-Paris : CASSCF linear response (MC-RPA)
   Lee Huntington         : MR-EOM, pCC
   Robert Izsak           : Overlap fitted RIJCOSX, COSX-SCS-MP3, EOM
   Christian Kollmar      : KDIIS, OOCD, Brueckner-CCSD(T), CCSD density
   Simone Kossmann        : Meta GGA functionals, TD-DFT gradient, OOMP2, MP2 Hessian
   Martin Krupicka        : AUTO-CI
   Lucas Lang             : DCDCAS
   Dagmar Lenk            : GEPOL surface, SMD
   Dimitrios Liakos       : Extrapolation schemes; Compound Job, initial MDCI parallelization
   Dimitrios Manganas     : Further ROCIS development; embedding schemes
   Dimitrios Pantazis     : SARC Basis sets
   Taras Petrenko         : DFT Hessian,TD-DFT gradient, ASA, ECA, R-Raman, ABS, FL, XAS/XES, NRVS
   Peter Pinski           : DLPNO-MP2, DLPNO-MP2 Gradient
   Christoph Reimann      : Effective Core Potentials
   Marius Retegan         : Local ZFS, SOC
   Christoph Riplinger    : Optimizer, TS searches, QM/MM, DLPNO-CCSD(T), (RO)-DLPNO pert. Triples
   Tobias Risthaus        : Range-separated hybrids, TD-DFT gradient, RPA, STAB
   Michael Roemelt        : Original ROCIS implementation
   Masaaki Saitow         : Open-shell DLPNO-CCSD energy and density
   Barbara Sandhoefer     : DKH picture change effects
   Avijit Sen             : IP-ROCIS
   Kantharuban Sivalingam : CASSCF convergence, NEVPT2, FIC-MRCI
   Bernardo de Souza      : ESD, SOC TD-DFT
   Georgi Stoychev        : AutoAux, RI-MP2 NMR
   Willem Van den Heuvel  : Paramagnetic NMR
   Boris Wezisla          : Elementary symmetry handling
   Frank Wennmohs         : Technical directorship


 We gratefully acknowledge several colleagues who have allowed us to
 interface, adapt or use parts of their codes:
   Stefan Grimme, W. Hujo, H. Kruse,             : VdW corrections, initial TS optimization,
                  C. Bannwarth                     DFT functionals, gCP, sTDA/sTD-DF
   Ed Valeev, F. Pavosevic, A. Kumar             : LibInt (2-el integral package), F12 methods
   Garnet Chan, S. Sharma, J. Yang, R. Olivares  : DMRG
   Ulf Ekstrom                                   : XCFun DFT Library
   Mihaly Kallay                                 : mrcc  (arbitrary order and MRCC methods)
   Andreas Klamt, Michael Diedenhofen            : otool_cosmo (COSMO solvation model)
   Jiri Pittner, Ondrej Demel                    : Mk-CCSD
   Frank Weinhold                                : gennbo (NPA and NBO analysis)
   Christopher J. Cramer and Donald G. Truhlar   : smd solvation model
   Lars Goerigk                                  : TD-DFT with DH, B97 family of functionals
   V. Asgeirsson, H. Jonsson                     : NEB implementation
   FAccTs GmbH                                   : IRC, NEB, NEB-TS, Multilevel, MM, QM/MM, CI optimization
   S Lehtola, MJT Oliveira, MAL Marques          : LibXC Library


 Your calculation uses the libint2 library for the computation of 2-el integrals
 For citations please refer to: http://libint.valeyev.net

 Your ORCA version has been built with support for libXC version: 4.2.3
 For citations please refer to: https://tddft.org/programs/libxc/

 This ORCA versions uses:
   CBLAS   interface :  Fast vector & matrix operations
   LAPACKE interface :  Fast linear algebra routines
   SCALAPACK package :  Parallel linear algebra routines


----- Orbital basis set information -----
Your calculation utilizes the basis: def2-SVP
   F. Weigend and R. Ahlrichs, Phys. Chem. Chem. Phys. 7, 3297 (2005).

----- AuxJ basis set information -----
Your calculation utilizes the auxiliary basis: def2/J
   F. Weigend, Phys. Chem. Chem. Phys. 8, 1057 (2006).

================================================================================
                                        WARNINGS
                       Please study these warnings very carefully!
================================================================================


INFO   : the flag for use of LIBINT has been found!

================================================================================
                                       INPUT FILE
================================================================================
NAME = MOR28_pr09_atom45.inp
|  1> # input to generate an atomic fitting density for Rh
|  2> # this file is use internally by ORCA
|  3> #
|  4> # atomic ground state (S=4): 1s2 2s2 2p6 3s2 3p6 4s2 3d10 4p6 5s2 4d7 
|  5> #
|  6> ! RHF AllowRHF def2-SVP def2/J  NoMulliken NoLoewdin NoMayer NoPrintMOs 
|  7> 
|  8> %output print[p_atomdensfit] 2 end
|  9> 
| 10> %scf
| 11>   guess hcore
| 12>   maxiter 1000
| 13>   maxdisk 500000
| 14>   SCFMode Conventional
| 15>   lshift 1.000000
| 16>   hftyp rohf
| 17>   rohf_case sahf
| 18>   rohf_numop   2
| 19>   rohf_norb[1] 5
| 20>   rohf_nel[1]  7
| 21> end
| 22> 
| 23> %basis
| 24>   NewECP 45
| 25>     N_core 28
| 26>     lmax f
| 27>     s 4
| 28>       1      11.7200000000    225.3477535000  2
| 29>       2       5.8200000000     32.8231890000  2
| 30>       3      12.3100000000     30.0934557000  2
| 31>       4       6.1600000000      5.2184819000  2
| 32>     p 4
| 33>       1      10.4200000000    158.7094116000  2
| 34>       2       5.4500000000     26.4441005000  2
| 35>       3      12.3100000000     30.0934557000  2
| 36>       4       6.1600000000      5.2184819000  2
| 37>     d 4
| 38>       1       8.8200000000     62.7586257000  2
| 39>       2       3.8700000000     10.9787195000  2
| 40>       3      12.3100000000     30.0934557000  2
| 41>       4       6.1600000000      5.2184819000  2
| 42>     f 2
| 43>       1      12.3100000000    -30.0934557000  2
| 44>       2       6.1600000000     -5.2184819000  2
| 45>   end
| 46>   NewGTO 45
| 47>     s 2 
| 48>      1      17.0000000000     -0.9383793180
| 49>      2      13.9105816940      1.9247376672
| 50>     s 1 
| 51>      1       5.2481265288      1.0000000000
| 52>     s 1 
| 53>      1       1.2262575928      1.0000000000
| 54>     s 1 
| 55>      1       0.5393021635      1.0000000000
| 56>     s 1 
| 57>      1       0.1013073038      1.0000000000
| 58>     s 1 
| 59>      1       0.0371241390      1.0000000000
| 60>     p 4 
| 61>      1      11.7671036310      0.0676935579
| 62>      2       6.7485133083     -0.2700677651
| 63>      3       1.7502679834      0.5577445140
| 64>      4       0.8432116613      0.5760017293
| 65>     p 1 
| 66>      1       0.3829554476      1.0000000000
| 67>     p 1 
| 68>      1       0.1150000000      1.0000000000
| 69>     p 1 
| 70>      1       0.0370000000      1.0000000000
| 71>     d 4 
| 72>      1      19.8578301360      0.0068204289
| 73>      2      10.0613781390     -0.0223899551
| 74>      3       2.2619546477      0.3862288430
| 75>      4       0.9709884504      0.6853960058
| 76>     d 1 
| 77>      1       0.3839119530      1.0000000000
| 78>     d 1 
| 79>      1       0.1353702690      1.0000000000
| 80>   end
| 81>   NewAuxGTO 45
| 82>     S 1
| 83>      1 1310.72 1.0
| 84>     S 1
| 85>      1  655.36 1.0
| 86>     S 1
| 87>      1  327.68 1.0
| 88>     S 1
| 89>      1  163.84 1.0
| 90>     S 1
| 91>      1   81.82 1.0
| 92>     S 1
| 93>      1   40.96 1.0
| 94>     S 1
| 95>      1   20.48 1.0
| 96>     S 1
| 97>      1   10.24 1.0
| 98>     S 1
| 99>      1    5.12 1.0
|100>     S 1
|101>      1    2.56 1.0
|102>     S 1
|103>      1    1.28 1.0
|104>     S 1
|105>      1    0.64 1.0
|106>     S 1
|107>      1    0.32 1.0
|108>     S 1
|109>      1    0.16 1.0
|110>     S 1
|111>      1    0.08 1.0
|112>     S 1
|113>      1    0.04 1.0
|114>     S 1
|115>      1    0.02 1.0
|116>     S 1
|117>      1    0.01 1.0
|118>   end
|119> end
|120> 
|121> * xyz 0 4
|122> 45  0.0 0.0 0.0
|123> *
|124> 
|125> 
|126>                          ****END OF INPUT****
================================================================================

                       ****************************
                       * Single Point Calculation *
                       ****************************

---------------------------------
CARTESIAN COORDINATES (ANGSTROEM)
---------------------------------
  Rh     0.000000    0.000000    0.000000

----------------------------
CARTESIAN COORDINATES (A.U.)
----------------------------
  NO LB      ZA    FRAG     MASS         X           Y           Z
   0 Rh   17.0000*   0   102.910    0.000000    0.000000    0.000000
* core charge reduced due to ECP

--------------------------------
INTERNAL COORDINATES (ANGSTROEM)
--------------------------------
 Rh     0   0   0     0.000000000000     0.00000000     0.00000000

---------------------------
INTERNAL COORDINATES (A.U.)
---------------------------
 Rh     0   0   0     0.000000000000     0.00000000     0.00000000

---------------------
BASIS SET INFORMATION
---------------------
There are 1 groups of distinct atoms

 Group   1 Type Rh  : 7s7p6d contracted to 6s4p3d pattern {211111/4111/411}

Atom   0Rh   basis set group =>   1
---------------------------------
AUXILIARY/J BASIS SET INFORMATION
---------------------------------
There are 1 groups of distinct atoms

 Group   1 Type Rh  : 18s contracted to 18s pattern {111111111111111111}

Atom   0Rh   basis set group =>   1
-------------------------
ECP PARAMETER INFORMATION
-------------------------

 Group 1, Type Rh ECP (replacing 28 core electrons, lmax=3)

Atom   0Rh   ECP group =>   1

------------------------------------------------------------------------------
                           ORCA GTO INTEGRAL CALCULATION
------------------------------------------------------------------------------

                         BASIS SET STATISTICS AND STARTUP INFO

 # of primitive gaussian shells          ...   20
 # of primitive gaussian functions       ...   58
 # of contracted shells                  ...   13
 # of contracted basis functions         ...   33
 Highest angular momentum                ...    2
 Maximum contraction depth               ...    4
 Integral package used                   ... LIBINT
 Integral threshhold            Thresh   ...  1.000e-10
 Primitive cut-off              TCut     ...  1.000e-11
 Storage cut-off                TCutStore... -1.000e+00
 Buffer length                           ... 1048576 integrals/buffer
 Generate file with integrals 4 distinct ...false


------------------------------ INTEGRAL EVALUATION ----------------------------


 * One electron integrals 

   ECP integrals                         ... done
 Pre-screening matrix                    ... done
 Shell pair data                         ... done (   0.000 sec)
 Statistics run                          ... done
 Maximum amount of storage needed        ...     1 MB
 Maximum amount of storage dedicated     ... 500000 MB
 Beginning two electron integral evaluation:
 Starting repulsion integrals
  <ss|ss>  ...          231 b.         0 skpd (  0.0%)     0.000 s. (  0.000 ms/b)
  <ss|sp>  ...          504 b.         0 skpd (  0.0%)     0.000 s. (  0.000 ms/b)
  <ss|sd>  ...          378 b.         0 skpd (  0.0%)     0.000 s. (  0.000 ms/b)
  <ss|pp>  ...          210 b.         0 skpd (  0.0%)     0.000 s. (  0.000 ms/b)
  <ss|pd>  ...          252 b.         0 skpd (  0.0%)     0.000 s. (  0.001 ms/b)
  <ss|dd>  ...          126 b.         0 skpd (  0.0%)     0.000 s. (  0.001 ms/b)
  <sp|sp>  ...          300 b.         0 skpd (  0.0%)     0.000 s. (  0.000 ms/b)
  <sp|sd>  ...          432 b.         0 skpd (  0.0%)     0.000 s. (  0.001 ms/b)
  <sp|pp>  ...          240 b.         0 skpd (  0.0%)     0.000 s. (  0.001 ms/b)
  <sp|pd>  ...          288 b.         0 skpd (  0.0%)     0.001 s. (  0.002 ms/b)
  <sp|dd>  ...          144 b.         0 skpd (  0.0%)     0.001 s. (  0.004 ms/b)
  <sd|sd>  ...          171 b.         0 skpd (  0.0%)     0.000 s. (  0.002 ms/b)
  <sd|pp>  ...          180 b.         0 skpd (  0.0%)     0.000 s. (  0.003 ms/b)
  <sd|pd>  ...          216 b.         0 skpd (  0.0%)     0.001 s. (  0.005 ms/b)
  <sd|dd>  ...          108 b.         0 skpd (  0.0%)     0.001 s. (  0.012 ms/b)
  <pp|pp>  ...           55 b.         0 skpd (  0.0%)     0.000 s. (  0.005 ms/b)
  <pp|pd>  ...          120 b.         0 skpd (  0.0%)     0.001 s. (  0.008 ms/b)
  <pp|dd>  ...           60 b.         0 skpd (  0.0%)     0.001 s. (  0.018 ms/b)
  <pd|pd>  ...           78 b.         0 skpd (  0.0%)     0.002 s. (  0.019 ms/b)
  <pd|dd>  ...           72 b.         0 skpd (  0.0%)     0.003 s. (  0.040 ms/b)
  <dd|dd>  ...           21 b.         0 skpd (  0.0%)     0.003 s. (  0.121 ms/b)


                                      INTEGRAL STATISTICS

Integral type statistics:
 Number of integrals retained            ...     157641 
 One   Center Integrals retained         ...     157641 (100.0%)
 Two   Center Integrals retained         ...          0 (  0.0%)
 Three Center Integrals retained         ...          0 (  0.0%)
 Four  Center Integrals retained         ...          0 (  0.0%)

Storage statistics:
 Number of char integrals                ...          0 (  0.0%)
 Number of short int integrals           ...          0 (  0.0%)
 Number of double/float integrals        ...     157641 (100.0%)
 Amount of memory used                   ...          1 MB
 Amount of memory estimated              ...          1 MB ( 94.1%)

Prescreening statistics:
 Total number of shell quadruples        ...       4186 
 Number of skipped shell quadruples      ...          0 (  0.0%)
 # of negligible batches done            ...          0 (  0.0%)

Timings:
 Total evaluation time               ...     0.192 sec (   0.003 min)
 One electron matrix time            ...     0.014 sec (   0.000 min) =  7.1%
 Schwartz matrix evaluation time     ...     0.072 sec (   0.001 min) = 37.5%
 Statistics run                      ...     0.001 sec (   0.000 min) =  0.7%
 Repulsion integral time             ...     0.015 sec (   0.000 min) =  7.9%

-------------------------------------------------------------------------------
                                 ORCA SCF
-------------------------------------------------------------------------------

------------
SCF SETTINGS
------------
Hamiltonian:
 Ab initio Hamiltonian  Method          .... Hartree-Fock(GTOs)


General Settings:
 Integral files         IntName         .... MOR28_pr09_atom45
 Hartree-Fock type      HFTyp           .... ROHF
 Total Charge           Charge          ....    0
 Multiplicity           Mult            ....    4
 Number of Electrons    NEL             ....   17
 Basis Dimension        Dim             ....   33
 Nuclear Repulsion      ENuc            ....      0.0000000000 Eh

Convergence Acceleration:
 DIIS                   CNVDIIS         .... on
   Start iteration      DIISMaxIt       ....    12
   Startup error        DIISStart       ....  0.200000
   # of expansion vecs  DIISMaxEq       ....     5
   Bias factor          DIISBfac        ....   1.050
   Max. coefficient     DIISMaxC        ....  10.000
 Newton-Raphson         CNVNR           .... off
 SOSCF                  CNVSOSCF        .... off
 Level Shifting         CNVShift        .... on
   Level shift para.    LevelShift      ....    1.0000
   Turn off err/grad.   ShiftErr        ....    0.0010
 Zerner damping         CNVZerner       .... off
 Static damping         CNVDamp         .... on
   Fraction old density DampFac         ....    0.7000
   Max. Damping (<1)    DampMax         ....    0.9800
   Min. Damping (>=0)   DampMin         ....    0.0000
   Turn off err/grad.   DampErr         ....    0.1000
 Fernandez-Rico         CNVRico         .... off

SCF Procedure:
 Maximum # iterations   MaxIter         ....  1000
 SCF integral mode      SCFMode         .... Conventional
 Integral Threshold     Thresh          ....  1.000e-10 Eh
 Primitive CutOff       TCut            ....  1.000e-11 Eh
 Integral Buffer length BufferLength    .... 1048576
 Integral index format  IndFormat       ....     0
 Integral value format  ValFormat       ....     0
 Integral Storage       Thresh          ....  1.000e-10 Eh

Convergence Tolerance:
 Convergence Check Mode ConvCheckMode   .... Total+1el-Energy
 Convergence forced     ConvForced      .... 0
 Energy Change          TolE            ....  1.000e-06 Eh
 1-El. energy change                    ....  1.000e-03 Eh
 DIIS Error             TolErr          ....  1.000e-06


Diagonalization of the overlap matrix:
Smallest eigenvalue                        ... 2.134e-02
Time for diagonalization                   ...    0.000 sec
Threshold for overlap eigenvalues          ... 1.000e-08
Number of eigenvalues below threshold      ... 0
Time for construction of square roots      ...    0.000 sec
Total time needed                          ...    0.001 sec

--------------------
INITIAL GUESS: HCORE
--------------------
AVERAGE-CONFIGURATION (SAHF) CASE FOUND

-------------------
FINAL ROHF SETTINGS
-------------------
Number of operators             ... 2
  operator   0:   5 orbitals  10 electrons n(mue)= 2.000
  operator   1:   5 orbitals   7 electrons n(mue)= 1.400
Vector coupling coefficients a and b (Zerner convention):
   1.000    1.000           1.000    1.000 
   1.000    0.969           1.000    1.122 

                      -----------------
                      INTIAL GUESS DONE 
                      -----------------

 InCore treatment chosen:
   Memory dedicated               ...    1024 MB
   Memory needed                  ...      1 MB
   Number of tiny    integrals    ...       0
   Number of small   integrals    ...       0
   Number of regular integrals    ...  157641

--------------
SCF ITERATIONS
--------------
ITER       Energy         Delta-E        Max-DP      RMS-DP      [F,P]     Damp
  0   -100.7907949878   0.000000000000 2.01442199  0.08801488  0.9460469 0.7000
  1   -106.4658346814  -5.675039693532 1.48301624  0.06495101  0.4688479 0.7000
                            ****Activating DIIS****
  2   -105.7062572408   0.759577440588 3.46277623  0.15035910  0.0993006 0.0000
  3   -103.7601302896   1.946126951151 0.00742579  0.00033053  0.3908908 0.7000
  4   -103.7785129236  -0.018382633990 0.00649532  0.00028960  0.3809144 0.7000
  5   -103.7847278829  -0.006214959321 0.00420980  0.00018041  0.3789614 0.7000
  6   -103.7787260619   0.006001821009 0.03080246  0.00137808  0.3788422 0.7000
  7   -103.6943428256   0.084383236297 1.07789570  0.03945790  0.4254442 0.7000
  8   -108.8336067744  -5.139263948765 0.75890592  0.02753648  0.1039167 0.7000
  9   -108.7125662205   0.121040553933 0.53078126  0.01957195  0.1412160 0.7000
 10   -108.5443788672   0.168187353215 0.37265140  0.01408552  0.2184020 0.7000
 11   -108.4029381115   0.141440755690 0.26133070  0.00992253  0.2873341 0.7000
 12   -108.3212592442   0.081678867305 0.18294395  0.00655200  0.3138892 0.7000
 13   -108.3522335521  -0.030974307818 0.13032078  0.00456413  0.3259938 0.7000
 14   -108.4812013963  -0.128967844207 0.08848767  0.00334700  0.3721852 0.7000
 15   -108.3512224723   0.129978923962 0.10114385  0.00436830  0.3284029 0.7000
 16   -108.7739315238  -0.422709051533 0.28186355  0.01312693  0.3254286 0.7000
 17   -109.3264212055  -0.552489681659 0.18612013  0.00841021  0.1036156 0.7000
 18   -109.4230584669  -0.096637261425 0.38946308  0.01945553  0.0548600 0.0000
 19   -109.6643772766  -0.241318809637 0.12406567  0.00394447  0.0378618 0.0000
 20   -109.6705287779  -0.006151501364 0.10150273  0.00291393  0.0334318 0.0000
 21   -109.6768401919  -0.006311413977 0.13070719  0.00341268  0.0270100 0.0000
 22   -109.6807540380  -0.003913846082 0.15740746  0.00400584  0.0199630 0.0000
 23   -109.6836642556  -0.002910217604 0.09064259  0.00231930  0.0118977 0.0000
 24   -109.6849041751  -0.001239919526 0.05796348  0.00150768  0.0079540 0.0000
 25   -109.6853777788  -0.000473603657 0.03522892  0.00093070  0.0048889 0.0000
 26   -109.6855658865  -0.000188107731 0.02931758  0.00078578  0.0030329 0.0000
 27   -109.6856541657  -0.000088279163 0.01034643  0.00028281  0.0014186 0.0000
 28   -109.6856705576  -0.000016391979 0.00699988  0.00019469  0.0008024 0.0000
 29   -109.6856768084  -0.000006250724 0.00269904  0.00007545  0.0003545 0.0000
 30   -109.6856779154  -0.000001107050 0.00093928  0.00002546  0.0002355 0.0000
                 **** Energy Check signals convergence ****

               *****************************************************
               *                     SUCCESS                       *
               *           SCF CONVERGED AFTER  31 CYCLES          *
               *****************************************************


----------------
TOTAL SCF ENERGY
----------------

Total Energy       :         -109.68567810 Eh           -2984.69904 eV

Components:
Nuclear Repulsion  :            0.00000000 Eh               0.00000 eV
Electronic Energy  :         -109.68567810 Eh           -2984.69904 eV
One Electron Energy:         -193.22672980 Eh           -5257.96663 eV
Two Electron Energy:           83.54105170 Eh            2273.26759 eV

Virial components:
Potential Energy   :         -150.65577075 Eh           -4099.55194 eV
Kinetic Energy     :           40.97009265 Eh            1114.85290 eV
Virial Ratio       :            3.67721333


---------------
SCF CONVERGENCE
---------------

  Last Energy change         ...   -1.8437e-07  Tolerance :   1.0000e-06
  Last MAX-Density change    ...    4.5571e-04  Tolerance :   1.0000e-05
  Last RMS-Density change    ...    1.2266e-05  Tolerance :   1.0000e-06
  Last DIIS Error            ...    2.3530e-04  Tolerance :   1.0000e-06

             **** THE GBW FILE WAS UPDATED (MOR28_pr09_atom45.gbw) ****
             **** DENSITY FILE WAS UPDATED (MOR28_pr09_atom45.scfp) ****
             **** ENERGY FILE WAS UPDATED (MOR28_pr09_atom45.en.tmp) ****
             **** THE GBW FILE WAS UPDATED (MOR28_pr09_atom45.gbw) ****
             **** DENSITY FILE WAS UPDATED (MOR28_pr09_atom45.scfp) ****
----------------
ORBITAL ENERGIES
----------------

  NO   OCC          E(Eh)            E(eV) 
   0   2.0000      -3.821438      -103.9866 
   1   2.0000      -2.428783       -66.0905 
   2   2.0000      -2.423486       -65.9464 
   3   2.0000      -2.421269       -65.8861 
   4   2.0000      -0.453163       -12.3312 
   5   1.4000      -0.489579       -13.3221 
   6   1.4000      -0.486226       -13.2309 
   7   1.4000      -0.480229       -13.0677 
   8   1.4000      -0.465853       -12.6765 
   9   1.4000      -0.255098        -6.9416 
  10   0.0000       0.004690         0.1276 
  11   0.0000       0.007484         0.2036 
  12   0.0000       0.008631         0.2349 
  13   0.0000       0.127418         3.4672 
  14   0.0000       0.206024         5.6062 
  15   0.0000       0.211401         5.7525 
  16   0.0000       0.213654         5.8138 
  17   0.0000       0.377226        10.2648 
  18   0.0000       0.378125        10.2893 
  19   0.0000       0.381323        10.3763 
  20   0.0000       0.379825        10.3356 
  21   0.0000       0.383921        10.4470 
  22   0.0000       1.538311        41.8596 
  23   0.0000       1.553015        42.2597 
  24   0.0000       1.559144        42.4265 
  25   0.0000       1.826985        49.7148 
  26   0.0000       1.830001        49.7969 
  27   0.0000       1.834023        49.9063 
  28   0.0000       1.842331        50.1324 
  29   0.0000       1.843679        50.1691 
  30   0.0000       1.879997        51.1573 
  31   0.0000      29.824542       811.5670 
  32   0.0000     101.862083      2771.8082 
CleanUpVectors: The p-vectors have cracked symmetry
CleanUpVectors: The p-vectors have cracked symmetry
CleanUpVectors: The p-vectors have cracked symmetry
CleanUpVectors: The d-vectors have cracked symmetry at i=4
CleanUpVectors: The d-vectors have cracked symmetry at i=5
CleanUpVectors: The d-vectors have cracked symmetry at i=6
CleanUpVectors: The d-vectors have cracked symmetry at i=7
CleanUpVectors: The d-vectors have cracked symmetry at i=8
CleanUpVectors: The p-vectors have cracked symmetry
CleanUpVectors: The p-vectors have cracked symmetry
CleanUpVectors: The p-vectors have cracked symmetry
CleanUpVectors: The p-vectors have cracked symmetry
CleanUpVectors: The p-vectors have cracked symmetry
CleanUpVectors: The p-vectors have cracked symmetry
CleanUpVectors: The d-vectors have cracked symmetry at i=17
CleanUpVectors: The d-vectors have cracked symmetry at i=18
CleanUpVectors: The d-vectors have cracked symmetry at i=19
CleanUpVectors: The d-vectors have cracked symmetry at i=20
CleanUpVectors: The d-vectors have cracked symmetry at i=21
CleanUpVectors: The p-vectors have cracked symmetry
CleanUpVectors: The p-vectors have cracked symmetry
CleanUpVectors: The p-vectors have cracked symmetry
CleanUpVectors: The d-vectors have cracked symmetry at i=25
CleanUpVectors: The d-vectors have cracked symmetry at i=26
CleanUpVectors: The d-vectors have cracked symmetry at i=27
CleanUpVectors: The d-vectors have cracked symmetry at i=28
--------------------------
ATOM BASIS FOR ELEMENT Rh
--------------------------
 NewGTO Rh
 S 7
    1         17.000000000000        -0.166853629021
    2         13.910581694000         0.342238430158
    3          5.248126528800        -0.676849217910
    4          1.226257592800         0.887933241880
    5          0.539302163500         0.417737304797
    6          0.101307303800         0.010765452531
    7          0.037124139000        -0.000433425016
 P 20
    1         11.767103631000         0.040269657492
    2          6.748513308300        -0.160658365988
    3          1.750267983400         0.331791993852
    4          0.843211661300         0.342652876774
    5         11.767103631000        -0.040760732565
    6          6.748513308300         0.162617541303
    7          1.750267983400        -0.335838086817
    8          0.843211661300        -0.346831414592
    9         11.767103631000         0.014321928791
   10          6.748513308300        -0.057138248016
   11          1.750267983400         0.118002029450
   12          0.843211661300         0.121864709231
   13          0.382955447600         0.110653596854
   14          0.382955447600        -0.112002980648
   15          0.382955447600         0.039354020701
   16          0.115000000000         0.004994157350
   17          0.115000000000        -0.005055059437
   18          0.115000000000         0.001776175175
   19          0.037000000000        -0.000276314695
   20          0.037000000000         0.000279684261
 D 20
    1         17.000000000000         0.000006254069
    2         13.910581694000        -0.000015676871
    3          5.248126528800         0.000087718309
    4          1.226257592800        -0.000798975867
    5          0.539302163500         0.000464629394
    6          0.101307303800         0.005502196860
    7          0.037124139000        -0.013418701057
    8         19.857830136000        -0.000332560588
    9         10.061378139000         0.001091722638
   10          2.261954647700        -0.018832318753
   11          0.970988450400        -0.033419554980
   12         19.857830136000         0.000047320975
   13         10.061378139000        -0.000155344264
   14          2.261954647700         0.002679703243
   15          0.970988450400         0.004755361835
   16         19.857830136000         0.003310526077
   17         10.061378139000        -0.010867722734
   18          2.261954647700         0.187469244975
   19          0.970988450400         0.332680155936
   20         19.857830136000         0.001496354889
 D 20
    1         19.857830136000         0.003026640914
    2         10.061378139000        -0.009935790720
    3          2.261954647700         0.171393329600
    4          0.970988450400         0.304152073720
    5         19.857830136000        -0.000861701963
    6         10.061378139000         0.002828776392
    7          2.261954647700        -0.048796660289
    8          0.970988450400        -0.086593833331
    9         19.857830136000        -0.001710396284
   10         10.061378139000         0.005614851582
   11          2.261954647700        -0.096856720813
   12          0.970988450400        -0.171880507588
   13         19.857830136000        -0.000088768809
   14         10.061378139000         0.000291408309
   15          2.261954647700        -0.005026820894
   16          0.970988450400        -0.008920522185
   17         19.857830136000         0.002682897048
   18         10.061378139000        -0.008807355859
   19          2.261954647700         0.151927721518
   20          0.970988450400         0.269608692841
 P 20
    1         11.767103631000         0.010827736237
    2          6.748513308300        -0.043197944049
    3          1.750267983400         0.089212484506
    4          0.843211661300         0.092132766994
    5         11.767103631000        -0.010959776878
    6          6.748513308300         0.043724728603
    7          1.750267983400        -0.090300401070
    8          0.843211661300        -0.093256295431
    9         11.767103631000         0.003850891143
   10          6.748513308300        -0.015363375730
   11          1.750267983400         0.031728475729
   12          0.843211661300         0.032767076016
   13          0.382955447600         0.185035041958
   14          0.382955447600        -0.187291482726
   15          0.382955447600         0.065807828022
   16          0.115000000000        -1.094534246656
   17          0.115000000000         1.107881727594
   18          0.115000000000        -0.389271787146
   19          0.037000000000         0.706392777337
   20          0.037000000000        -0.715007002209
 D 20
    1         17.000000000000        -0.000015070504
    2         13.910581694000         0.000037776743
    3          5.248126528800        -0.000212126720
    4          1.226257592800         0.002052028147
    5          0.539302163500        -0.000722991205
    6          0.101307303800        -0.026228022474
    7          0.037124139000         0.012844374571
    8         19.857830136000        -0.000338260043
    9         10.061378139000         0.001110432685
   10          2.261954647700        -0.019155068838
   11          0.970988450400        -0.033992302518
   12         19.857830136000         0.001323039046
   13         10.061378139000        -0.004343243699
   14          2.261954647700         0.074921364562
   15          0.970988450400         0.132954348053
   16         19.857830136000        -0.000279201282
   17         10.061378139000         0.000916555874
   18          2.261954647700        -0.015810675511
   19          0.970988450400        -0.028057391467
   20         19.857830136000        -0.000502246259
 P 20
    1         11.767103631000         0.062112675418
    2          6.748513308300        -0.247802478626
    3          1.750267983400         0.511762197751
    4          0.843211661300         0.528514227385
    5         11.767103631000        -0.062870118828
    6          6.748513308300         0.250824347398
    7          1.750267983400        -0.518002967468
    8          0.843211661300        -0.534959282529
    9         11.767103631000         0.022090411733
   10          6.748513308300        -0.088131106001
   11          1.750267983400         0.182008544657
   12          0.843211661300         0.187966414439
   13          0.382955447600        -1.476564170302
   14          0.382955447600         1.494570379044
   15          0.382955447600        -0.525140967641
   16          0.115000000000         0.882753522748
   17          0.115000000000        -0.893518408229
   18          0.115000000000         0.313951840664
   19          0.037000000000        -0.306505252783
   20          0.037000000000         0.310242982354
 D 20
    1         17.000000000000         0.000379837304
    2         13.910581694000        -0.000952125866
    3          5.248126528800         0.005221839089
    4          1.226257592800        -0.077552153432
    5          0.539302163500         0.182661193631
    6          0.101307303800        -0.438975660480
    7          0.037124139000         0.512475102911
    8         19.857830136000        -0.001541961271
    9         10.061378139000         0.005061916799
   10          2.261954647700        -0.087318543513
   11          0.970988450400        -0.154954198892
   12         19.857830136000         0.006128354424
   13         10.061378139000        -0.020118028119
   14          2.261954647700         0.347037887715
   15          0.970988450400         0.615848314833
   16         19.857830136000        -0.001550950319
   17         10.061378139000         0.005091425849
   18          2.261954647700        -0.087827577410
   19          0.970988450400        -0.155857522935
   20         19.857830136000        -0.002443934761
 S 20
    1         17.000000000000        -0.239859666435
    2         13.910581694000         0.491983280081
    3          5.248126528800        -1.022417273834
    4          1.226257592800         3.517889260074
    5          0.539302163500        -3.588043313136
    6          0.101307303800         1.551279599358
    7          0.037124139000        -0.662951893340
    8         19.857830136000        -0.010527692747
    9         10.061378139000         0.017510575439
   10          2.261954647700        -0.067907590376
   11          0.970988450400        -0.051730342934
   12         19.857830136000         0.050782080847
   13         10.061378139000        -0.084465179501
   14          2.261954647700         0.327563581819
   15          0.970988450400         0.249529932169
   16         19.857830136000        -0.036161735726
   17         10.061378139000         0.060147348202
   18          2.261954647700        -0.233256839451
   19          0.970988450400        -0.177689360347
   20         19.857830136000        -0.030881937044
 S 20
    1         17.000000000000        -1.717112335949
    2         13.910581694000         3.522020070582
    3          5.248126528800        -3.292358839862
    4          1.226257592800         2.121943115395
    5          0.539302163500        -1.263475037799
    6          0.101307303800         0.359861608620
    7          0.037124139000        -0.153795581816
    8         19.857830136000        -0.000014466243
    9         10.061378139000         0.000024061515
   10          2.261954647700        -0.000093312726
   11          0.970988450400        -0.000071083354
   12         19.857830136000         0.000066761371
   13         10.061378139000        -0.000111043326
   14          2.261954647700         0.000430636031
   15          0.970988450400         0.000328048005
   16         19.857830136000        -0.000041055544
   17         10.061378139000         0.000068287156
   18          2.261954647700        -0.000264823749
   19          0.970988450400        -0.000201736261
   20         19.857830136000        -0.000037641893
 S 20
    1         17.000000000000        -1.910622424085
    2         13.910581694000         3.918934355109
    3          5.248126528800        -1.540488068472
    4          1.226257592800         0.698339979930
    5          0.539302163500        -0.397144593973
    6          0.101307303800         0.112001819388
    7          0.037124139000        -0.047986335787
    8         19.857830136000        -0.000000913861
    9         10.061378139000         0.000001520013
   10          2.261954647700        -0.000005894748
   11          0.970988450400        -0.000004490475
   12         19.857830136000         0.000004220991
   13         10.061378139000        -0.000007020719
   14          2.261954647700         0.000027226981
   15          0.970988450400         0.000020740849
   16         19.857830136000        -0.000002603695
   17         10.061378139000         0.000004330693
   18          2.261954647700        -0.000016794817
   19          0.970988450400        -0.000012793881
   20         19.857830136000        -0.000002383539
 end
  // -----------------------------------------------
  // The basis set
  // -----------------------------------------------
  BAS[ATNO] = new BFNGauss[NSH];
  // Basis function   1 L = s
  InitBFNGauss(BAS[ATNO][  0]);
  BAS[ATNO][  0].l  = 0;
  BAS[ATNO][  0].ng = 7;
  BAS[ATNO][  0].a[  0] =        17.000000000000;     BAS[ATNO][  0].d[  0] =        -0.166853629021;
  BAS[ATNO][  0].a[  1] =        13.910581694000;     BAS[ATNO][  0].d[  1] =         0.342238430158;
  BAS[ATNO][  0].a[  2] =         5.248126528800;     BAS[ATNO][  0].d[  2] =        -0.676849217910;
  BAS[ATNO][  0].a[  3] =         1.226257592800;     BAS[ATNO][  0].d[  3] =         0.887933241880;
  BAS[ATNO][  0].a[  4] =         0.539302163500;     BAS[ATNO][  0].d[  4] =         0.417737304797;
  BAS[ATNO][  0].a[  5] =         0.101307303800;     BAS[ATNO][  0].d[  5] =         0.010765452531;
  BAS[ATNO][  0].a[  6] =         0.037124139000;     BAS[ATNO][  0].d[  6] =        -0.000433425016;

  // Basis function   2 L = p
  InitBFNGauss(BAS[ATNO][  1]);
  BAS[ATNO][  1].l  = 1;
  BAS[ATNO][  1].ng = 20;
  BAS[ATNO][  1].a[  0] =        11.767103631000;     BAS[ATNO][  1].d[  0] =        -0.040269657492;
  BAS[ATNO][  1].a[  1] =         6.748513308300;     BAS[ATNO][  1].d[  1] =         0.160658365988;
  BAS[ATNO][  1].a[  2] =         1.750267983400;     BAS[ATNO][  1].d[  2] =        -0.331791993852;
  BAS[ATNO][  1].a[  3] =         0.843211661300;     BAS[ATNO][  1].d[  3] =        -0.342652876774;
  BAS[ATNO][  1].a[  4] =        11.767103631000;     BAS[ATNO][  1].d[  4] =         0.040760732565;
  BAS[ATNO][  1].a[  5] =         6.748513308300;     BAS[ATNO][  1].d[  5] =        -0.162617541303;
  BAS[ATNO][  1].a[  6] =         1.750267983400;     BAS[ATNO][  1].d[  6] =         0.335838086817;
  BAS[ATNO][  1].a[  7] =         0.843211661300;     BAS[ATNO][  1].d[  7] =         0.346831414592;
  BAS[ATNO][  1].a[  8] =        11.767103631000;     BAS[ATNO][  1].d[  8] =        -0.014321928791;
  BAS[ATNO][  1].a[  9] =         6.748513308300;     BAS[ATNO][  1].d[  9] =         0.057138248016;
  BAS[ATNO][  1].a[ 10] =         1.750267983400;     BAS[ATNO][  1].d[ 10] =        -0.118002029450;
  BAS[ATNO][  1].a[ 11] =         0.843211661300;     BAS[ATNO][  1].d[ 11] =        -0.121864709231;
  BAS[ATNO][  1].a[ 12] =         0.382955447600;     BAS[ATNO][  1].d[ 12] =        -0.110653596854;
  BAS[ATNO][  1].a[ 13] =         0.382955447600;     BAS[ATNO][  1].d[ 13] =         0.112002980648;
  BAS[ATNO][  1].a[ 14] =         0.382955447600;     BAS[ATNO][  1].d[ 14] =        -0.039354020701;
  BAS[ATNO][  1].a[ 15] =         0.115000000000;     BAS[ATNO][  1].d[ 15] =        -0.004994157350;
  BAS[ATNO][  1].a[ 16] =         0.115000000000;     BAS[ATNO][  1].d[ 16] =         0.005055059437;
  BAS[ATNO][  1].a[ 17] =         0.115000000000;     BAS[ATNO][  1].d[ 17] =        -0.001776175175;
  BAS[ATNO][  1].a[ 18] =         0.037000000000;     BAS[ATNO][  1].d[ 18] =         0.000276314695;
  BAS[ATNO][  1].a[ 19] =         0.037000000000;     BAS[ATNO][  1].d[ 19] =        -0.000279684261;

  // Basis function   3 L = d
  InitBFNGauss(BAS[ATNO][  2]);
  BAS[ATNO][  2].l  = 2;
  BAS[ATNO][  2].ng = 20;
  BAS[ATNO][  2].a[  0] =        17.000000000000;     BAS[ATNO][  2].d[  0] =         0.000006254069;
  BAS[ATNO][  2].a[  1] =        13.910581694000;     BAS[ATNO][  2].d[  1] =        -0.000015676871;
  BAS[ATNO][  2].a[  2] =         5.248126528800;     BAS[ATNO][  2].d[  2] =         0.000087718309;
  BAS[ATNO][  2].a[  3] =         1.226257592800;     BAS[ATNO][  2].d[  3] =        -0.000798975867;
  BAS[ATNO][  2].a[  4] =         0.539302163500;     BAS[ATNO][  2].d[  4] =         0.000464629394;
  BAS[ATNO][  2].a[  5] =         0.101307303800;     BAS[ATNO][  2].d[  5] =         0.005502196860;
  BAS[ATNO][  2].a[  6] =         0.037124139000;     BAS[ATNO][  2].d[  6] =        -0.013418701057;
  BAS[ATNO][  2].a[  7] =        19.857830136000;     BAS[ATNO][  2].d[  7] =        -0.000332560588;
  BAS[ATNO][  2].a[  8] =        10.061378139000;     BAS[ATNO][  2].d[  8] =         0.001091722638;
  BAS[ATNO][  2].a[  9] =         2.261954647700;     BAS[ATNO][  2].d[  9] =        -0.018832318753;
  BAS[ATNO][  2].a[ 10] =         0.970988450400;     BAS[ATNO][  2].d[ 10] =        -0.033419554980;
  BAS[ATNO][  2].a[ 11] =        19.857830136000;     BAS[ATNO][  2].d[ 11] =         0.000047320975;
  BAS[ATNO][  2].a[ 12] =        10.061378139000;     BAS[ATNO][  2].d[ 12] =        -0.000155344264;
  BAS[ATNO][  2].a[ 13] =         2.261954647700;     BAS[ATNO][  2].d[ 13] =         0.002679703243;
  BAS[ATNO][  2].a[ 14] =         0.970988450400;     BAS[ATNO][  2].d[ 14] =         0.004755361835;
  BAS[ATNO][  2].a[ 15] =        19.857830136000;     BAS[ATNO][  2].d[ 15] =         0.003310526077;
  BAS[ATNO][  2].a[ 16] =        10.061378139000;     BAS[ATNO][  2].d[ 16] =        -0.010867722734;
  BAS[ATNO][  2].a[ 17] =         2.261954647700;     BAS[ATNO][  2].d[ 17] =         0.187469244975;
  BAS[ATNO][  2].a[ 18] =         0.970988450400;     BAS[ATNO][  2].d[ 18] =         0.332680155936;
  BAS[ATNO][  2].a[ 19] =        19.857830136000;     BAS[ATNO][  2].d[ 19] =         0.001496354889;

  // Basis function   4 L = d
  InitBFNGauss(BAS[ATNO][  3]);
  BAS[ATNO][  3].l  = 2;
  BAS[ATNO][  3].ng = 20;
  BAS[ATNO][  3].a[  0] =        19.857830136000;     BAS[ATNO][  3].d[  0] =         0.003026640914;
  BAS[ATNO][  3].a[  1] =        10.061378139000;     BAS[ATNO][  3].d[  1] =        -0.009935790720;
  BAS[ATNO][  3].a[  2] =         2.261954647700;     BAS[ATNO][  3].d[  2] =         0.171393329600;
  BAS[ATNO][  3].a[  3] =         0.970988450400;     BAS[ATNO][  3].d[  3] =         0.304152073720;
  BAS[ATNO][  3].a[  4] =        19.857830136000;     BAS[ATNO][  3].d[  4] =        -0.000861701963;
  BAS[ATNO][  3].a[  5] =        10.061378139000;     BAS[ATNO][  3].d[  5] =         0.002828776392;
  BAS[ATNO][  3].a[  6] =         2.261954647700;     BAS[ATNO][  3].d[  6] =        -0.048796660289;
  BAS[ATNO][  3].a[  7] =         0.970988450400;     BAS[ATNO][  3].d[  7] =        -0.086593833331;
  BAS[ATNO][  3].a[  8] =        19.857830136000;     BAS[ATNO][  3].d[  8] =        -0.001710396284;
  BAS[ATNO][  3].a[  9] =        10.061378139000;     BAS[ATNO][  3].d[  9] =         0.005614851582;
  BAS[ATNO][  3].a[ 10] =         2.261954647700;     BAS[ATNO][  3].d[ 10] =        -0.096856720813;
  BAS[ATNO][  3].a[ 11] =         0.970988450400;     BAS[ATNO][  3].d[ 11] =        -0.171880507588;
  BAS[ATNO][  3].a[ 12] =        19.857830136000;     BAS[ATNO][  3].d[ 12] =        -0.000088768809;
  BAS[ATNO][  3].a[ 13] =        10.061378139000;     BAS[ATNO][  3].d[ 13] =         0.000291408309;
  BAS[ATNO][  3].a[ 14] =         2.261954647700;     BAS[ATNO][  3].d[ 14] =        -0.005026820894;
  BAS[ATNO][  3].a[ 15] =         0.970988450400;     BAS[ATNO][  3].d[ 15] =        -0.008920522185;
  BAS[ATNO][  3].a[ 16] =        19.857830136000;     BAS[ATNO][  3].d[ 16] =         0.002682897048;
  BAS[ATNO][  3].a[ 17] =        10.061378139000;     BAS[ATNO][  3].d[ 17] =        -0.008807355859;
  BAS[ATNO][  3].a[ 18] =         2.261954647700;     BAS[ATNO][  3].d[ 18] =         0.151927721518;
  BAS[ATNO][  3].a[ 19] =         0.970988450400;     BAS[ATNO][  3].d[ 19] =         0.269608692841;

  // Basis function   5 L = p
  InitBFNGauss(BAS[ATNO][  4]);
  BAS[ATNO][  4].l  = 1;
  BAS[ATNO][  4].ng = 20;
  BAS[ATNO][  4].a[  0] =        11.767103631000;     BAS[ATNO][  4].d[  0] =         0.010827736237;
  BAS[ATNO][  4].a[  1] =         6.748513308300;     BAS[ATNO][  4].d[  1] =        -0.043197944049;
  BAS[ATNO][  4].a[  2] =         1.750267983400;     BAS[ATNO][  4].d[  2] =         0.089212484506;
  BAS[ATNO][  4].a[  3] =         0.843211661300;     BAS[ATNO][  4].d[  3] =         0.092132766994;
  BAS[ATNO][  4].a[  4] =        11.767103631000;     BAS[ATNO][  4].d[  4] =        -0.010959776878;
  BAS[ATNO][  4].a[  5] =         6.748513308300;     BAS[ATNO][  4].d[  5] =         0.043724728603;
  BAS[ATNO][  4].a[  6] =         1.750267983400;     BAS[ATNO][  4].d[  6] =        -0.090300401070;
  BAS[ATNO][  4].a[  7] =         0.843211661300;     BAS[ATNO][  4].d[  7] =        -0.093256295431;
  BAS[ATNO][  4].a[  8] =        11.767103631000;     BAS[ATNO][  4].d[  8] =         0.003850891143;
  BAS[ATNO][  4].a[  9] =         6.748513308300;     BAS[ATNO][  4].d[  9] =        -0.015363375730;
  BAS[ATNO][  4].a[ 10] =         1.750267983400;     BAS[ATNO][  4].d[ 10] =         0.031728475729;
  BAS[ATNO][  4].a[ 11] =         0.843211661300;     BAS[ATNO][  4].d[ 11] =         0.032767076016;
  BAS[ATNO][  4].a[ 12] =         0.382955447600;     BAS[ATNO][  4].d[ 12] =         0.185035041958;
  BAS[ATNO][  4].a[ 13] =         0.382955447600;     BAS[ATNO][  4].d[ 13] =        -0.187291482726;
  BAS[ATNO][  4].a[ 14] =         0.382955447600;     BAS[ATNO][  4].d[ 14] =         0.065807828022;
  BAS[ATNO][  4].a[ 15] =         0.115000000000;     BAS[ATNO][  4].d[ 15] =        -1.094534246656;
  BAS[ATNO][  4].a[ 16] =         0.115000000000;     BAS[ATNO][  4].d[ 16] =         1.107881727594;
  BAS[ATNO][  4].a[ 17] =         0.115000000000;     BAS[ATNO][  4].d[ 17] =        -0.389271787146;
  BAS[ATNO][  4].a[ 18] =         0.037000000000;     BAS[ATNO][  4].d[ 18] =         0.706392777337;
  BAS[ATNO][  4].a[ 19] =         0.037000000000;     BAS[ATNO][  4].d[ 19] =        -0.715007002209;

  // Basis function   6 L = d
  InitBFNGauss(BAS[ATNO][  5]);
  BAS[ATNO][  5].l  = 2;
  BAS[ATNO][  5].ng = 20;
  BAS[ATNO][  5].a[  0] =        17.000000000000;     BAS[ATNO][  5].d[  0] =        -0.000015070504;
  BAS[ATNO][  5].a[  1] =        13.910581694000;     BAS[ATNO][  5].d[  1] =         0.000037776743;
  BAS[ATNO][  5].a[  2] =         5.248126528800;     BAS[ATNO][  5].d[  2] =        -0.000212126720;
  BAS[ATNO][  5].a[  3] =         1.226257592800;     BAS[ATNO][  5].d[  3] =         0.002052028147;
  BAS[ATNO][  5].a[  4] =         0.539302163500;     BAS[ATNO][  5].d[  4] =        -0.000722991205;
  BAS[ATNO][  5].a[  5] =         0.101307303800;     BAS[ATNO][  5].d[  5] =        -0.026228022474;
  BAS[ATNO][  5].a[  6] =         0.037124139000;     BAS[ATNO][  5].d[  6] =         0.012844374571;
  BAS[ATNO][  5].a[  7] =        19.857830136000;     BAS[ATNO][  5].d[  7] =        -0.000338260043;
  BAS[ATNO][  5].a[  8] =        10.061378139000;     BAS[ATNO][  5].d[  8] =         0.001110432685;
  BAS[ATNO][  5].a[  9] =         2.261954647700;     BAS[ATNO][  5].d[  9] =        -0.019155068838;
  BAS[ATNO][  5].a[ 10] =         0.970988450400;     BAS[ATNO][  5].d[ 10] =        -0.033992302518;
  BAS[ATNO][  5].a[ 11] =        19.857830136000;     BAS[ATNO][  5].d[ 11] =         0.001323039046;
  BAS[ATNO][  5].a[ 12] =        10.061378139000;     BAS[ATNO][  5].d[ 12] =        -0.004343243699;
  BAS[ATNO][  5].a[ 13] =         2.261954647700;     BAS[ATNO][  5].d[ 13] =         0.074921364562;
  BAS[ATNO][  5].a[ 14] =         0.970988450400;     BAS[ATNO][  5].d[ 14] =         0.132954348053;
  BAS[ATNO][  5].a[ 15] =        19.857830136000;     BAS[ATNO][  5].d[ 15] =        -0.000279201282;
  BAS[ATNO][  5].a[ 16] =        10.061378139000;     BAS[ATNO][  5].d[ 16] =         0.000916555874;
  BAS[ATNO][  5].a[ 17] =         2.261954647700;     BAS[ATNO][  5].d[ 17] =        -0.015810675511;
  BAS[ATNO][  5].a[ 18] =         0.970988450400;     BAS[ATNO][  5].d[ 18] =        -0.028057391467;
  BAS[ATNO][  5].a[ 19] =        19.857830136000;     BAS[ATNO][  5].d[ 19] =        -0.000502246259;

  // Basis function   7 L = p
  InitBFNGauss(BAS[ATNO][  6]);
  BAS[ATNO][  6].l  = 1;
  BAS[ATNO][  6].ng = 20;
  BAS[ATNO][  6].a[  0] =        11.767103631000;     BAS[ATNO][  6].d[  0] =         0.062112675418;
  BAS[ATNO][  6].a[  1] =         6.748513308300;     BAS[ATNO][  6].d[  1] =        -0.247802478626;
  BAS[ATNO][  6].a[  2] =         1.750267983400;     BAS[ATNO][  6].d[  2] =         0.511762197751;
  BAS[ATNO][  6].a[  3] =         0.843211661300;     BAS[ATNO][  6].d[  3] =         0.528514227385;
  BAS[ATNO][  6].a[  4] =        11.767103631000;     BAS[ATNO][  6].d[  4] =        -0.062870118828;
  BAS[ATNO][  6].a[  5] =         6.748513308300;     BAS[ATNO][  6].d[  5] =         0.250824347398;
  BAS[ATNO][  6].a[  6] =         1.750267983400;     BAS[ATNO][  6].d[  6] =        -0.518002967468;
  BAS[ATNO][  6].a[  7] =         0.843211661300;     BAS[ATNO][  6].d[  7] =        -0.534959282529;
  BAS[ATNO][  6].a[  8] =        11.767103631000;     BAS[ATNO][  6].d[  8] =         0.022090411733;
  BAS[ATNO][  6].a[  9] =         6.748513308300;     BAS[ATNO][  6].d[  9] =        -0.088131106001;
  BAS[ATNO][  6].a[ 10] =         1.750267983400;     BAS[ATNO][  6].d[ 10] =         0.182008544657;
  BAS[ATNO][  6].a[ 11] =         0.843211661300;     BAS[ATNO][  6].d[ 11] =         0.187966414439;
  BAS[ATNO][  6].a[ 12] =         0.382955447600;     BAS[ATNO][  6].d[ 12] =        -1.476564170302;
  BAS[ATNO][  6].a[ 13] =         0.382955447600;     BAS[ATNO][  6].d[ 13] =         1.494570379044;
  BAS[ATNO][  6].a[ 14] =         0.382955447600;     BAS[ATNO][  6].d[ 14] =        -0.525140967641;
  BAS[ATNO][  6].a[ 15] =         0.115000000000;     BAS[ATNO][  6].d[ 15] =         0.882753522748;
  BAS[ATNO][  6].a[ 16] =         0.115000000000;     BAS[ATNO][  6].d[ 16] =        -0.893518408229;
  BAS[ATNO][  6].a[ 17] =         0.115000000000;     BAS[ATNO][  6].d[ 17] =         0.313951840664;
  BAS[ATNO][  6].a[ 18] =         0.037000000000;     BAS[ATNO][  6].d[ 18] =        -0.306505252783;
  BAS[ATNO][  6].a[ 19] =         0.037000000000;     BAS[ATNO][  6].d[ 19] =         0.310242982354;

  // Basis function   8 L = d
  InitBFNGauss(BAS[ATNO][  7]);
  BAS[ATNO][  7].l  = 2;
  BAS[ATNO][  7].ng = 20;
  BAS[ATNO][  7].a[  0] =        17.000000000000;     BAS[ATNO][  7].d[  0] =         0.000379837304;
  BAS[ATNO][  7].a[  1] =        13.910581694000;     BAS[ATNO][  7].d[  1] =        -0.000952125866;
  BAS[ATNO][  7].a[  2] =         5.248126528800;     BAS[ATNO][  7].d[  2] =         0.005221839089;
  BAS[ATNO][  7].a[  3] =         1.226257592800;     BAS[ATNO][  7].d[  3] =        -0.077552153432;
  BAS[ATNO][  7].a[  4] =         0.539302163500;     BAS[ATNO][  7].d[  4] =         0.182661193631;
  BAS[ATNO][  7].a[  5] =         0.101307303800;     BAS[ATNO][  7].d[  5] =        -0.438975660480;
  BAS[ATNO][  7].a[  6] =         0.037124139000;     BAS[ATNO][  7].d[  6] =         0.512475102911;
  BAS[ATNO][  7].a[  7] =        19.857830136000;     BAS[ATNO][  7].d[  7] =        -0.001541961271;
  BAS[ATNO][  7].a[  8] =        10.061378139000;     BAS[ATNO][  7].d[  8] =         0.005061916799;
  BAS[ATNO][  7].a[  9] =         2.261954647700;     BAS[ATNO][  7].d[  9] =        -0.087318543513;
  BAS[ATNO][  7].a[ 10] =         0.970988450400;     BAS[ATNO][  7].d[ 10] =        -0.154954198892;
  BAS[ATNO][  7].a[ 11] =        19.857830136000;     BAS[ATNO][  7].d[ 11] =         0.006128354424;
  BAS[ATNO][  7].a[ 12] =        10.061378139000;     BAS[ATNO][  7].d[ 12] =        -0.020118028119;
  BAS[ATNO][  7].a[ 13] =         2.261954647700;     BAS[ATNO][  7].d[ 13] =         0.347037887715;
  BAS[ATNO][  7].a[ 14] =         0.970988450400;     BAS[ATNO][  7].d[ 14] =         0.615848314833;
  BAS[ATNO][  7].a[ 15] =        19.857830136000;     BAS[ATNO][  7].d[ 15] =        -0.001550950319;
  BAS[ATNO][  7].a[ 16] =        10.061378139000;     BAS[ATNO][  7].d[ 16] =         0.005091425849;
  BAS[ATNO][  7].a[ 17] =         2.261954647700;     BAS[ATNO][  7].d[ 17] =        -0.087827577410;
  BAS[ATNO][  7].a[ 18] =         0.970988450400;     BAS[ATNO][  7].d[ 18] =        -0.155857522935;
  BAS[ATNO][  7].a[ 19] =        19.857830136000;     BAS[ATNO][  7].d[ 19] =        -0.002443934761;

  // Basis function   9 L = s
  InitBFNGauss(BAS[ATNO][  8]);
  BAS[ATNO][  8].l  = 0;
  BAS[ATNO][  8].ng = 20;
  BAS[ATNO][  8].a[  0] =        17.000000000000;     BAS[ATNO][  8].d[  0] =         0.239859666435;
  BAS[ATNO][  8].a[  1] =        13.910581694000;     BAS[ATNO][  8].d[  1] =        -0.491983280081;
  BAS[ATNO][  8].a[  2] =         5.248126528800;     BAS[ATNO][  8].d[  2] =         1.022417273834;
  BAS[ATNO][  8].a[  3] =         1.226257592800;     BAS[ATNO][  8].d[  3] =        -3.517889260074;
  BAS[ATNO][  8].a[  4] =         0.539302163500;     BAS[ATNO][  8].d[  4] =         3.588043313136;
  BAS[ATNO][  8].a[  5] =         0.101307303800;     BAS[ATNO][  8].d[  5] =        -1.551279599358;
  BAS[ATNO][  8].a[  6] =         0.037124139000;     BAS[ATNO][  8].d[  6] =         0.662951893340;
  BAS[ATNO][  8].a[  7] =        19.857830136000;     BAS[ATNO][  8].d[  7] =         0.010527692747;
  BAS[ATNO][  8].a[  8] =        10.061378139000;     BAS[ATNO][  8].d[  8] =        -0.017510575439;
  BAS[ATNO][  8].a[  9] =         2.261954647700;     BAS[ATNO][  8].d[  9] =         0.067907590376;
  BAS[ATNO][  8].a[ 10] =         0.970988450400;     BAS[ATNO][  8].d[ 10] =         0.051730342934;
  BAS[ATNO][  8].a[ 11] =        19.857830136000;     BAS[ATNO][  8].d[ 11] =        -0.050782080847;
  BAS[ATNO][  8].a[ 12] =        10.061378139000;     BAS[ATNO][  8].d[ 12] =         0.084465179501;
  BAS[ATNO][  8].a[ 13] =         2.261954647700;     BAS[ATNO][  8].d[ 13] =        -0.327563581819;
  BAS[ATNO][  8].a[ 14] =         0.970988450400;     BAS[ATNO][  8].d[ 14] =        -0.249529932169;
  BAS[ATNO][  8].a[ 15] =        19.857830136000;     BAS[ATNO][  8].d[ 15] =         0.036161735726;
  BAS[ATNO][  8].a[ 16] =        10.061378139000;     BAS[ATNO][  8].d[ 16] =        -0.060147348202;
  BAS[ATNO][  8].a[ 17] =         2.261954647700;     BAS[ATNO][  8].d[ 17] =         0.233256839451;
  BAS[ATNO][  8].a[ 18] =         0.970988450400;     BAS[ATNO][  8].d[ 18] =         0.177689360347;
  BAS[ATNO][  8].a[ 19] =        19.857830136000;     BAS[ATNO][  8].d[ 19] =         0.030881937044;

  // Basis function  10 L = s
  InitBFNGauss(BAS[ATNO][  9]);
  BAS[ATNO][  9].l  = 0;
  BAS[ATNO][  9].ng = 20;
  BAS[ATNO][  9].a[  0] =        17.000000000000;     BAS[ATNO][  9].d[  0] =        -1.717112335949;
  BAS[ATNO][  9].a[  1] =        13.910581694000;     BAS[ATNO][  9].d[  1] =         3.522020070582;
  BAS[ATNO][  9].a[  2] =         5.248126528800;     BAS[ATNO][  9].d[  2] =        -3.292358839862;
  BAS[ATNO][  9].a[  3] =         1.226257592800;     BAS[ATNO][  9].d[  3] =         2.121943115395;
  BAS[ATNO][  9].a[  4] =         0.539302163500;     BAS[ATNO][  9].d[  4] =        -1.263475037799;
  BAS[ATNO][  9].a[  5] =         0.101307303800;     BAS[ATNO][  9].d[  5] =         0.359861608620;
  BAS[ATNO][  9].a[  6] =         0.037124139000;     BAS[ATNO][  9].d[  6] =        -0.153795581816;
  BAS[ATNO][  9].a[  7] =        19.857830136000;     BAS[ATNO][  9].d[  7] =        -0.000014466243;
  BAS[ATNO][  9].a[  8] =        10.061378139000;     BAS[ATNO][  9].d[  8] =         0.000024061515;
  BAS[ATNO][  9].a[  9] =         2.261954647700;     BAS[ATNO][  9].d[  9] =        -0.000093312726;
  BAS[ATNO][  9].a[ 10] =         0.970988450400;     BAS[ATNO][  9].d[ 10] =        -0.000071083354;
  BAS[ATNO][  9].a[ 11] =        19.857830136000;     BAS[ATNO][  9].d[ 11] =         0.000066761371;
  BAS[ATNO][  9].a[ 12] =        10.061378139000;     BAS[ATNO][  9].d[ 12] =        -0.000111043326;
  BAS[ATNO][  9].a[ 13] =         2.261954647700;     BAS[ATNO][  9].d[ 13] =         0.000430636031;
  BAS[ATNO][  9].a[ 14] =         0.970988450400;     BAS[ATNO][  9].d[ 14] =         0.000328048005;
  BAS[ATNO][  9].a[ 15] =        19.857830136000;     BAS[ATNO][  9].d[ 15] =        -0.000041055544;
  BAS[ATNO][  9].a[ 16] =        10.061378139000;     BAS[ATNO][  9].d[ 16] =         0.000068287156;
  BAS[ATNO][  9].a[ 17] =         2.261954647700;     BAS[ATNO][  9].d[ 17] =        -0.000264823749;
  BAS[ATNO][  9].a[ 18] =         0.970988450400;     BAS[ATNO][  9].d[ 18] =        -0.000201736261;
  BAS[ATNO][  9].a[ 19] =        19.857830136000;     BAS[ATNO][  9].d[ 19] =        -0.000037641893;

  // Basis function  11 L = s
  InitBFNGauss(BAS[ATNO][ 10]);
  BAS[ATNO][ 10].l  = 0;
  BAS[ATNO][ 10].ng = 20;
  BAS[ATNO][ 10].a[  0] =        17.000000000000;     BAS[ATNO][ 10].d[  0] =        -1.910622424085;
  BAS[ATNO][ 10].a[  1] =        13.910581694000;     BAS[ATNO][ 10].d[  1] =         3.918934355109;
  BAS[ATNO][ 10].a[  2] =         5.248126528800;     BAS[ATNO][ 10].d[  2] =        -1.540488068472;
  BAS[ATNO][ 10].a[  3] =         1.226257592800;     BAS[ATNO][ 10].d[  3] =         0.698339979930;
  BAS[ATNO][ 10].a[  4] =         0.539302163500;     BAS[ATNO][ 10].d[  4] =        -0.397144593973;
  BAS[ATNO][ 10].a[  5] =         0.101307303800;     BAS[ATNO][ 10].d[  5] =         0.112001819388;
  BAS[ATNO][ 10].a[  6] =         0.037124139000;     BAS[ATNO][ 10].d[  6] =        -0.047986335787;
  BAS[ATNO][ 10].a[  7] =        19.857830136000;     BAS[ATNO][ 10].d[  7] =        -0.000000913861;
  BAS[ATNO][ 10].a[  8] =        10.061378139000;     BAS[ATNO][ 10].d[  8] =         0.000001520013;
  BAS[ATNO][ 10].a[  9] =         2.261954647700;     BAS[ATNO][ 10].d[  9] =        -0.000005894748;
  BAS[ATNO][ 10].a[ 10] =         0.970988450400;     BAS[ATNO][ 10].d[ 10] =        -0.000004490475;
  BAS[ATNO][ 10].a[ 11] =        19.857830136000;     BAS[ATNO][ 10].d[ 11] =         0.000004220991;
  BAS[ATNO][ 10].a[ 12] =        10.061378139000;     BAS[ATNO][ 10].d[ 12] =        -0.000007020719;
  BAS[ATNO][ 10].a[ 13] =         2.261954647700;     BAS[ATNO][ 10].d[ 13] =         0.000027226981;
  BAS[ATNO][ 10].a[ 14] =         0.970988450400;     BAS[ATNO][ 10].d[ 14] =         0.000020740849;
  BAS[ATNO][ 10].a[ 15] =        19.857830136000;     BAS[ATNO][ 10].d[ 15] =        -0.000002603695;
  BAS[ATNO][ 10].a[ 16] =        10.061378139000;     BAS[ATNO][ 10].d[ 16] =         0.000004330693;
  BAS[ATNO][ 10].a[ 17] =         2.261954647700;     BAS[ATNO][ 10].d[ 17] =        -0.000016794817;
  BAS[ATNO][ 10].a[ 18] =         0.970988450400;     BAS[ATNO][ 10].d[ 18] =        -0.000012793881;
  BAS[ATNO][ 10].a[ 19] =        19.857830136000;     BAS[ATNO][ 10].d[ 19] =        -0.000002383539;

-------------------------------------------
RADIAL EXPECTATION VALUES <R**-3> TO <R**3>
-------------------------------------------
   0 :     0.000000     1.325692     1.095894     1.005648     1.114229     1.360375
   1 :     1.447943     1.141090     1.010372     1.104802     1.362390     1.875590
   2 :     1.445981     1.139814     1.009687     1.105897     1.365660     1.883795
   3 :     1.445164     1.139282     1.009401     1.106354     1.367026     1.887231
   4 :     0.837478     0.737544     0.783476     1.537560     2.854902    31.926450
   5 :     0.847511     0.744817     0.788295     1.522791     2.788356    30.606145
   6 :     0.000000     0.177689     0.359363     3.367186    13.108395    58.130034
   7 :     0.000000     0.102931     0.249576     5.331789    32.972235   221.687365
   8 :     0.846700     0.744204     0.787900     1.523942     2.793435    30.723767
   9 :     0.844610     0.742721     0.786937     1.526747     2.805758    30.959239
  10 :     0.839536     0.739112     0.784587     1.533655     2.836234    31.544095
  11 :     0.025735     0.056212     0.209069     5.494685    33.426298   221.166135
  12 :     0.025085     0.055293     0.207588     5.523476    33.729591   223.783031
  13 :     0.024820     0.054917     0.206983     5.535276    33.854052   224.858019
  14 :     0.091704     0.130139     0.301135     4.426595    24.985464   168.343025
  15 :     0.092382     0.130914     0.302328     4.401445    24.712580   165.949044
  16 :     0.092659     0.131229     0.302814     4.391154    24.600718   164.966353
  17 :     0.132241     0.160220     0.330072     3.641166    14.454707   302.745455
  18 :     0.132730     0.160578     0.330325     3.640443    14.452029   302.716287
  19 :     0.140669     0.166577     0.334581     3.624403    14.370350   300.915916
  20 :     0.133529     0.161217     0.330781     3.639104    14.446955   302.645087
  21 :     0.135518     0.162810     0.331921     3.635703    14.433792   302.452429
  22 :     0.583966     0.507467     0.600821     2.386010     8.246099    40.197454
  23 :     0.585899     0.508887     0.601794     2.381275     8.212421    39.966333
  24 :     0.586706     0.509479     0.602199     2.379309     8.198454    39.870600
  25 :     0.910247     0.697544     0.698910     2.045804     5.578038    92.915330
  26 :     0.921275     0.697254     0.698762     2.045056     5.563680    93.602298
  27 :     0.922566     0.698097     0.699269     2.043589     5.556432    93.438026
  28 :     0.920033     0.698070     0.699019     2.047462     5.586237    94.012333
  29 :     0.925651     0.700114     0.700479     2.040082     5.539118    93.045828
  30 :     0.012839     0.773495     0.742525     1.997532     6.132296    29.070798
  31 :     0.000000     5.971805     2.154762     0.600241     0.639939     1.735195
  32 :     0.000000    59.361459     6.137443     0.228905     0.100386     0.178805
Making the total density                ... o.k.
o.k.
Initializing the integrals              ... done
Making exponents                        ... done
Making rho(0)                           ... done (         0.000455127)
Integral calculation                    ... Two index integrals                     ... done
Solving the equation system             ... done
atomic density will be written to file MOR28_pr09_atom45.adf

-------
TIMINGS
-------

Total SCF time: 0 days 0 hours 0 min 0 sec 

Total time                  ....       0.764 sec
Sum of individual times     ....       0.468 sec  ( 61.3%)

Fock matrix formation       ....       0.399 sec  ( 52.3%)
Diagonalization             ....       0.063 sec  (  8.3%)
Density matrix formation    ....       0.001 sec  (  0.1%)
Population analysis         ....       0.000 sec  (  0.0%)
Initial guess               ....       0.000 sec  (  0.0%)
Orbital Transformation      ....       0.000 sec  (  0.0%)
Orbital Orthonormalization  ....       0.000 sec  (  0.0%)
DIIS solution               ....       0.004 sec  (  0.6%)

-------------------------   --------------------
FINAL SINGLE POINT ENERGY      -109.685678099790
-------------------------   --------------------


                            ***************************************
                            *     ORCA property calculations      *
                            ***************************************

                                    ---------------------
                                    Active property flags
                                    ---------------------
   (+) Dipole Moment


------------------------------------------------------------------------------
                       ORCA ELECTRIC PROPERTIES CALCULATION
------------------------------------------------------------------------------

Dipole Moment Calculation                       ... on
Quadrupole Moment Calculation                   ... off
Polarizability Calculation                      ... off
GBWName                                         ... MOR28_pr09_atom45.gbw
Electron density file                           ... MOR28_pr09_atom45.scfp
The origin for moment calculation is the CENTER OF MASS  = ( 0.000000,  0.000000  0.000000)

-------------
DIPOLE MOMENT
-------------
                                X             Y             Z
Electronic contribution:     -0.00000      -0.00000       0.00000
Nuclear contribution   :      0.00000       0.00000       0.00000
                        -----------------------------------------
Total Dipole Moment    :     -0.00000      -0.00000       0.00000
                        -----------------------------------------
Magnitude (a.u.)       :      0.00000
Magnitude (Debye)      :      0.00000



--------------------
Rotational spectrum 
--------------------
 
Rotational constants in cm-1:     0.000000     0.000000     0.000000 
Rotational constants in MHz :     0.000000     0.000000     0.000000 

 Dipole components along the rotational axes: 
x,y,z [a.u.] :    -0.000000    -0.000000     0.000000 
x,y,z [Debye]:    -0.000000    -0.000000     0.000000 

 

Timings for individual modules:

Sum of individual times         ...        1.028 sec (=   0.017 min)
GTO integral calculation        ...        0.245 sec (=   0.004 min)  23.8 %
SCF iterations                  ...        0.783 sec (=   0.013 min)  76.2 %
                             ****ORCA TERMINATED NORMALLY****
TOTAL RUN TIME: 0 days 0 hours 0 minutes 1 seconds 177 msec
