
                                 *****************
                                 * O   R   C   A *
                                 *****************

           --- An Ab Initio, DFT and Semiempirical electronic structure package ---

                  #######################################################
                  #                        -***-                        #
                  #          Department of theory and spectroscopy      #
                  #               Directorship: Frank Neese             #
                  #        Max Planck Institute fuer Kohlenforschung    #
                  #                Kaiser Wilhelm Platz 1               #
                  #                 D-45470 Muelheim/Ruhr               #
                  #                      Germany                        #
                  #                                                     #
                  #                  All rights reserved                #
                  #                        -***-                        #
                  #######################################################


                         Program Version 4.2.0 -  RELEASE  -


 With contributions from (in alphabetic order):
   Daniel Aravena         : Magnetic Suceptibility
   Michael Atanasov       : Ab Initio Ligand Field Theory (pilot matlab implementation)
   Alexander A. Auer      : GIAO ZORA, VPT2
   Ute Becker             : Parallelization
   Giovanni Bistoni       : ED, misc. LED, open-shell LED, HFLED
   Martin Brehm           : Molecular dynamics
   Dmytro Bykov           : SCF Hessian
   Vijay G. Chilkuri      : MRCI spin determinant printing, contributions to CSF-ICE
   Dipayan Datta          : RHF DLPNO-CCSD density
   Achintya Kumar Dutta   : EOM-CC, STEOM-CC
   Dmitry Ganyushin       : Spin-Orbit,Spin-Spin,Magnetic field MRCI
   Miquel Garcia          : C-PCM Hessian, Gaussian charge scheme
   Yang Guo               : DLPNO-NEVPT2, CIM, IAO-localization
   Andreas Hansen         : Spin unrestricted coupled pair/coupled cluster methods
   Benjamin Helmich-Paris : CASSCF linear response (MC-RPA)
   Lee Huntington         : MR-EOM, pCC
   Robert Izsak           : Overlap fitted RIJCOSX, COSX-SCS-MP3, EOM
   Christian Kollmar      : KDIIS, OOCD, Brueckner-CCSD(T), CCSD density
   Simone Kossmann        : Meta GGA functionals, TD-DFT gradient, OOMP2, MP2 Hessian
   Martin Krupicka        : AUTO-CI
   Lucas Lang             : DCDCAS
   Dagmar Lenk            : GEPOL surface, SMD
   Dimitrios Liakos       : Extrapolation schemes; Compound Job, initial MDCI parallelization
   Dimitrios Manganas     : Further ROCIS development; embedding schemes
   Dimitrios Pantazis     : SARC Basis sets
   Taras Petrenko         : DFT Hessian,TD-DFT gradient, ASA, ECA, R-Raman, ABS, FL, XAS/XES, NRVS
   Peter Pinski           : DLPNO-MP2, DLPNO-MP2 Gradient
   Christoph Reimann      : Effective Core Potentials
   Marius Retegan         : Local ZFS, SOC
   Christoph Riplinger    : Optimizer, TS searches, QM/MM, DLPNO-CCSD(T), (RO)-DLPNO pert. Triples
   Tobias Risthaus        : Range-separated hybrids, TD-DFT gradient, RPA, STAB
   Michael Roemelt        : Original ROCIS implementation
   Masaaki Saitow         : Open-shell DLPNO-CCSD energy and density
   Barbara Sandhoefer     : DKH picture change effects
   Avijit Sen             : IP-ROCIS
   Kantharuban Sivalingam : CASSCF convergence, NEVPT2, FIC-MRCI
   Bernardo de Souza      : ESD, SOC TD-DFT
   Georgi Stoychev        : AutoAux, RI-MP2 NMR
   Willem Van den Heuvel  : Paramagnetic NMR
   Boris Wezisla          : Elementary symmetry handling
   Frank Wennmohs         : Technical directorship


 We gratefully acknowledge several colleagues who have allowed us to
 interface, adapt or use parts of their codes:
   Stefan Grimme, W. Hujo, H. Kruse,             : VdW corrections, initial TS optimization,
                  C. Bannwarth                     DFT functionals, gCP, sTDA/sTD-DF
   Ed Valeev, F. Pavosevic, A. Kumar             : LibInt (2-el integral package), F12 methods
   Garnet Chan, S. Sharma, J. Yang, R. Olivares  : DMRG
   Ulf Ekstrom                                   : XCFun DFT Library
   Mihaly Kallay                                 : mrcc  (arbitrary order and MRCC methods)
   Andreas Klamt, Michael Diedenhofen            : otool_cosmo (COSMO solvation model)
   Jiri Pittner, Ondrej Demel                    : Mk-CCSD
   Frank Weinhold                                : gennbo (NPA and NBO analysis)
   Christopher J. Cramer and Donald G. Truhlar   : smd solvation model
   Lars Goerigk                                  : TD-DFT with DH, B97 family of functionals
   V. Asgeirsson, H. Jonsson                     : NEB implementation
   FAccTs GmbH                                   : IRC, NEB, NEB-TS, Multilevel, MM, QM/MM, CI optimization
   S Lehtola, MJT Oliveira, MAL Marques          : LibXC Library


 Your calculation uses the libint2 library for the computation of 2-el integrals
 For citations please refer to: http://libint.valeyev.net

 Your ORCA version has been built with support for libXC version: 4.2.3
 For citations please refer to: https://tddft.org/programs/libxc/

 This ORCA versions uses:
   CBLAS   interface :  Fast vector & matrix operations
   LAPACKE interface :  Fast linear algebra routines
   SCALAPACK package :  Parallel linear algebra routines


Your calculation utilizes the DFT-NL dispersion correction.
Cite in your paper:
Vydrov, O. A.; Van Voorhis, T. J. Chem. Phys. 2010, 133, 244103
Hujo, W.; Grimme, S. J. Chem. Theory Comput. 2011, 7, 3866 
   

----- Orbital basis set information -----
Your calculation utilizes the basis: def2-TZVPPD
   F. Weigend and R. Ahlrichs, Phys. Chem. Chem. Phys. 7, 3297 (2005).
   D. Rappoport and F. Furche, J. Chem. Phys. 133 134105 (2010).

----- AuxJK basis set information -----
Your calculation utilizes the auxiliary basis: def2/JK
   H-Ba, Hf-Rn: F. Weigend, J. Comput. Chem. 29, 167 (2008).

cite the ECPs for Mo [Def2-ECP] as follows:
Ce-Yb(ecp-28): M. Dolg, H. Stoll, H.Preuss, J. Chem. Phys., 1989, 90, 1730-1734.
Y-Cd(ecp-28), Hf-Hg(ecp-46): D. Andrae,U. Haeussermann, M. Dolg, H. Stoll, H. Preuss, Theor. Chim. Acta, 1990, 77, 123-141.
In-Sb(ecp-28), Tl-Bi(ecp-46): B. Metz, H. Stoll, M. Dolg, J. Chem. Phys., 2000, 113, 2563-2569.
Te-Xe(ecp-28), Po-Rn(ecp-46): K. A. Peterson, D. Figgen, E. Goll, H. Stoll, M. Dolg, J. Chem. Phys., 2003, 119, 11113-11123.
Rb(ecp-28), Cs(ecp-46): T. Leininger, A. Nicklass, W. Kuechle, H. Stoll, M. Dolg, A. Bergner, Chem. Phys. Lett., 1996, 255, 274-280.
Sr(ecp-28), Ba(ecp-46): M. Kaupp, P. V. Schleyer, H. Stoll and H. Preuss, J. Chem. Phys., 1991, 94, 1360-1366.
La(ecp-46): M. Dolg, H. Stoll, A. Savin, H. Preuss, Theor. Chim. Acta, 1989, 75, 173-194.
Lu(ecp-28): X. Cao, M. Dolg, J. Chem. Phys., 2001, 115, 7348-7355.

ECP parameters for Mo [Def2-ECP] have been obtained from:
TURBOMOLE (7.0.2)

================================================================================
                                        WARNINGS
                       Please study these warnings very carefully!
================================================================================


INFO   : the flag for use of LIBINT has been found!

================================================================================
                                       INPUT FILE
================================================================================
NAME = MOR36_pr37.in
|  1> #
|  2> # MOR36_pr37 wB97X-V/Def2-TZVPPD
|  3> #
|  4> ! wb97x-v def2-tzvppd def2/jk grid4 nofinalgrid
|  5> 
|  6> *xyz 0 1
|  7> Mo       0.000106   -0.000070   -0.471377 
|  8> C        0.514398   -1.514915   -1.646050 
|  9> C        1.055079    1.202350   -1.646249 
| 10> C       -1.568474    0.311983   -1.646660 
| 11> O       -2.484520    0.493946   -2.346732 
| 12> O        0.814970   -2.399453   -2.345765 
| 13> O        1.670957    1.904692   -2.346079 
| 14> N       -1.133555   -1.291008    0.811792 
| 15> N       -0.551576    1.627166    0.811584 
| 16> N        1.684684   -0.335905    0.812231 
| 17> C        2.623715   -0.523292    1.470917 
| 18> C       -0.858944    2.534303    1.469905 
| 19> C       -1.765652   -2.010491    1.470244 
| 20> C       -2.579903   -2.936733    2.238371 
| 21> H       -3.631237   -2.631169    2.207389 
| 22> H       -2.252645   -2.962558    3.282907 
| 23> H       -2.496617   -3.945451    1.819577 
| 24> C       -1.254401    3.702555    2.237857 
| 25> H       -0.464690    4.460832    2.206160 
| 26> H       -1.439592    3.432273    3.282594 
| 27> H       -2.170183    4.133961    1.819442 
| 28> C        3.832875   -0.764956    2.239344 
| 29> H        4.094105   -1.828181    2.208653 
| 30> H        3.691346   -0.468421    3.283785 
| 31> H        4.664793   -0.188419    1.820591 
| 32> *
| 33> 
| 34> %maxcore 5000
| 35> 
| 36> %pal
| 37> nprocs = 24
| 38> end
| 39> 
| 40> 
| 41>                          ****END OF INPUT****
================================================================================

                       ****************************
                       * Single Point Calculation *
                       ****************************

---------------------------------
CARTESIAN COORDINATES (ANGSTROEM)
---------------------------------
  Mo     0.000106   -0.000070   -0.471377
  C      0.514398   -1.514915   -1.646050
  C      1.055079    1.202350   -1.646249
  C     -1.568474    0.311983   -1.646660
  O     -2.484520    0.493946   -2.346732
  O      0.814970   -2.399453   -2.345765
  O      1.670957    1.904692   -2.346079
  N     -1.133555   -1.291008    0.811792
  N     -0.551576    1.627166    0.811584
  N      1.684684   -0.335905    0.812231
  C      2.623715   -0.523292    1.470917
  C     -0.858944    2.534303    1.469905
  C     -1.765652   -2.010491    1.470244
  C     -2.579903   -2.936733    2.238371
  H     -3.631237   -2.631169    2.207389
  H     -2.252645   -2.962558    3.282907
  H     -2.496617   -3.945451    1.819577
  C     -1.254401    3.702555    2.237857
  H     -0.464690    4.460832    2.206160
  H     -1.439592    3.432273    3.282594
  H     -2.170183    4.133961    1.819442
  C      3.832875   -0.764956    2.239344
  H      4.094105   -1.828181    2.208653
  H      3.691346   -0.468421    3.283785
  H      4.664793   -0.188419    1.820591

----------------------------
CARTESIAN COORDINATES (A.U.)
----------------------------
  NO LB      ZA    FRAG     MASS         X           Y           Z
   0 Mo   14.0000*   0    95.940    0.000200   -0.000132   -0.890773
   1 C     6.0000    0    12.011    0.972071   -2.862774   -3.110584
   2 C     6.0000    0    12.011    1.993810    2.272112   -3.110960
   3 C     6.0000    0    12.011   -2.963986    0.589562   -3.111736
   4 O     8.0000    0    15.999   -4.695062    0.933423   -4.434681
   5 O     8.0000    0    15.999    1.540070   -4.534309   -4.432853
   6 O     8.0000    0    15.999    3.157651    3.599346   -4.433447
   7 N     7.0000    0    14.007   -2.142109   -2.439652    1.534065
   8 N     7.0000    0    14.007   -1.042328    3.074898    1.533671
   9 N     7.0000    0    14.007    3.183591   -0.634768    1.534894
  10 C     6.0000    0    12.011    4.958103   -0.988879    2.779630
  11 C     6.0000    0    12.011   -1.623169    4.789139    2.777718
  12 C     6.0000    0    12.011   -3.336599   -3.799277    2.778359
  13 C     6.0000    0    12.011   -4.875310   -5.549621    4.229908
  14 H     1.0000    0     1.008   -6.862043   -4.972189    4.171361
  15 H     1.0000    0     1.008   -4.256882   -5.598423    6.203795
  16 H     1.0000    0     1.008   -4.717922   -7.455822    3.438502
  17 C     6.0000    0    12.011   -2.370474    6.996815    4.228937
  18 H     1.0000    0     1.008   -0.878137    8.429751    4.169038
  19 H     1.0000    0     1.008   -2.720435    6.486056    6.203204
  20 H     1.0000    0     1.008   -4.101052    7.812054    3.438247
  21 C     6.0000    0    12.011    7.243084   -1.445557    4.231747
  22 H     1.0000    0     1.008    7.736737   -3.454761    4.173749
  23 H     1.0000    0     1.008    6.975633   -0.885187    6.205454
  24 H     1.0000    0     1.008    8.815181   -0.356060    3.440418
* core charge reduced due to ECP

--------------------------------
INTERNAL COORDINATES (ANGSTROEM)
--------------------------------
 Mo     0   0   0     0.000000000000     0.00000000     0.00000000
 C      1   0   0     1.984718693472     0.00000000     0.00000000
 C      1   2   0     1.984718142083    88.52821499     0.00000000
 C      1   2   3     1.984719229840    88.52852908    88.56446471
 O      4   1   2     1.167198189113   179.45594567   317.10735893
 O      2   1   3     1.167198390100   179.45602869   317.02965672
 O      3   1   2     1.167198365638   179.45611457    45.61657349
 N      1   2   3     2.144348587643    91.81459848   180.30593702
 N      1   2   3     2.144350474232   179.54049399   226.71307953
 N      1   2   3     2.144350177320    91.78699754   268.23068328
 C     10   1   2     1.162222161777   177.75398670    44.05698539
 C      9   1   3     1.162221649787   177.75375258    44.07509113
 C      8   1   2     1.162222629707   177.75457570   315.42287600
 C     13   8   1     1.452910190512   177.40669965   359.91582242
 H     14  13   8     1.095277326514   110.18997744   285.66233562
 H     14  13   8     1.094906472940   110.60293907   165.46241910
 H     14  13   8     1.095370702436   110.01906894    45.38593472
 C     12   9   1     1.452910612755   177.40636648   359.88894389
 H     18  12   9     1.095277212426   110.18976884   285.69273374
 H     18  12   9     1.094907971098   110.60286905   165.49299331
 H     18  12   9     1.095371590185   110.01929112    45.41639584
 C     11  10   1     1.452910681640   177.40661353   359.90192026
 H     22  11  10     1.095276426755   110.19009660   285.63634270
 H     22  11  10     1.094906601746   110.60282438   165.43643606
 H     22  11  10     1.095370506314   110.01900162    45.36002498

---------------------------
INTERNAL COORDINATES (A.U.)
---------------------------
 Mo     0   0   0     0.000000000000     0.00000000     0.00000000
 C      1   0   0     3.750574783536     0.00000000     0.00000000
 C      1   2   0     3.750573741562    88.52821499     0.00000000
 C      1   2   3     3.750575797125    88.52852908    88.56446471
 O      4   1   2     2.205684921433   179.45594567   317.10735893
 O      2   1   3     2.205685301244   179.45602869   317.02965672
 O      3   1   2     2.205685255016   179.45611457    45.61657349
 N      1   2   3     4.052231566306    91.81459848   180.30593702
 N      1   2   3     4.052235131444   179.54049399   226.71307953
 N      1   2   3     4.052234570361    91.78699754   268.23068328
 C     10   1   2     2.196281592533   177.75398670    44.05698539
 C      9   1   3     2.196280625012   177.75375258    44.07509113
 C      8   1   2     2.196282476791   177.75457570   315.42287600
 C     13   8   1     2.745602357251   177.40669965   359.91582242
 H     14  13   8     2.069774187805   110.18997744   285.66233562
 H     14  13   8     2.069073376113   110.60293907   165.46241910
 H     14  13   8     2.069950642726   110.01906894    45.38593472
 C     12   9   1     2.745603155175   177.40636648   359.88894389
 H     18  12   9     2.069773972209   110.18976884   285.69273374
 H     18  12   9     2.069076207223   110.60286905   165.49299331
 H     18  12   9     2.069952320328   110.01929112    45.41639584
 C     11  10   1     2.745603285349   177.40661353   359.90192026
 H     22  11  10     2.069772487507   110.19009660   285.63634270
 H     22  11  10     2.069073619522   110.60282438   165.43643606
 H     22  11  10     2.069950272108   110.01900162    45.36002498

---------------------
BASIS SET INFORMATION
---------------------
There are 5 groups of distinct atoms

 Group   1 Type Mo  : 7s7p5d2f1g contracted to 6s4p3d2f1g pattern {211111/4111/311/11/1}
 Group   2 Type C   : 12s6p3d1f contracted to 6s3p3d1f pattern {621111/411/111/1}
 Group   3 Type O   : 12s7p3d1f contracted to 6s4p3d1f pattern {621111/4111/111/1}
 Group   4 Type N   : 12s6p3d1f contracted to 6s3p3d1f pattern {621111/411/111/1}
 Group   5 Type H   : 5s3p1d contracted to 3s3p1d pattern {311/111/1}

Atom   0Mo   basis set group =>   1
Atom   1C    basis set group =>   2
Atom   2C    basis set group =>   2
Atom   3C    basis set group =>   2
Atom   4O    basis set group =>   3
Atom   5O    basis set group =>   3
Atom   6O    basis set group =>   3
Atom   7N    basis set group =>   4
Atom   8N    basis set group =>   4
Atom   9N    basis set group =>   4
Atom  10C    basis set group =>   2
Atom  11C    basis set group =>   2
Atom  12C    basis set group =>   2
Atom  13C    basis set group =>   2
Atom  14H    basis set group =>   5
Atom  15H    basis set group =>   5
Atom  16H    basis set group =>   5
Atom  17C    basis set group =>   2
Atom  18H    basis set group =>   5
Atom  19H    basis set group =>   5
Atom  20H    basis set group =>   5
Atom  21C    basis set group =>   2
Atom  22H    basis set group =>   5
Atom  23H    basis set group =>   5
Atom  24H    basis set group =>   5
----------------------------------
AUXILIARY/JK BASIS SET INFORMATION
----------------------------------
There are 5 groups of distinct atoms

 Group   1 Type Mo  : 13s12p10d9f6g3h2i contracted to 11s10p9d8f6g3h2i pattern {31111111111/3111111111/211111111/21111111/111111/111/11}
 Group   2 Type C   : 14s10p6d2f1g contracted to 10s8p5d1f1g pattern {5111111111/31111111/21111/2/1}
 Group   3 Type O   : 14s10p6d2f1g contracted to 10s8p4d2f1g pattern {5111111111/31111111/3111/11/1}
 Group   4 Type N   : 14s10p6d2f1g contracted to 10s8p4d2f1g pattern {5111111111/31111111/3111/11/1}
 Group   5 Type H   : 4s2p2d contracted to 2s2p2d pattern {31/11/11}

Atom   0Mo   basis set group =>   1
Atom   1C    basis set group =>   2
Atom   2C    basis set group =>   2
Atom   3C    basis set group =>   2
Atom   4O    basis set group =>   3
Atom   5O    basis set group =>   3
Atom   6O    basis set group =>   3
Atom   7N    basis set group =>   4
Atom   8N    basis set group =>   4
Atom   9N    basis set group =>   4
Atom  10C    basis set group =>   2
Atom  11C    basis set group =>   2
Atom  12C    basis set group =>   2
Atom  13C    basis set group =>   2
Atom  14H    basis set group =>   5
Atom  15H    basis set group =>   5
Atom  16H    basis set group =>   5
Atom  17C    basis set group =>   2
Atom  18H    basis set group =>   5
Atom  19H    basis set group =>   5
Atom  20H    basis set group =>   5
Atom  21C    basis set group =>   2
Atom  22H    basis set group =>   5
Atom  23H    basis set group =>   5
Atom  24H    basis set group =>   5
-------------------------
ECP PARAMETER INFORMATION
-------------------------

 Group 1, Type Mo ECP Def2-ECP (replacing 28 core electrons, lmax=3)

Atom   0Mo   ECP group =>   1



           ************************************************************
           *        Program running with 24 parallel MPI-processes    *
           *              working on a common directory               *
           ************************************************************
------------------------------------------------------------------------------
                           ORCA GTO INTEGRAL CALCULATION
------------------------------------------------------------------------------

                         BASIS SET STATISTICS AND STARTUP INFO

 # of primitive gaussian shells          ...  436
 # of primitive gaussian functions       ... 1036
 # of contracted shells                  ...  277
 # of contracted basis functions         ...  773
 Highest angular momentum                ...    4
 Maximum contraction depth               ...    6
 Integral package used                   ... LIBINT
 Integral threshhold            Thresh   ...  1.000e-10
 Primitive cut-off              TCut     ...  1.000e-11


------------------------------ INTEGRAL EVALUATION ----------------------------


 * One electron integrals 

   ECP integrals                         ... done
 Pre-screening matrix                    ... done
 Shell pair data                         ... done (   0.008 sec)



           ************************************************************
           *        Program running with 24 parallel MPI-processes    *
           *              working on a common directory               *
           ************************************************************
-------------------------------------------------------------------------------
                                 ORCA SCF
-------------------------------------------------------------------------------

------------
SCF SETTINGS
------------
Hamiltonian:
 Density Functional     Method          .... DFT(GTOs)
 Exchange Functional    Exchange        .... WB97X-V
 Correlation Functional Correlation     .... WB97X-V
 Gradients option       PostSCFGGA      .... off
 Hybrid DFT is turned on
   Fraction HF Exchange ScalHFX         ....  0.167000
   Scaling of DF-GGA-X  ScalDFX         ....  0.000000
   Scaling of DF-GGA-C  ScalDFC         ....  1.000000
   Scaling of DF-LDA-C  ScalLDAC        ....  1.000000
   Perturbative correction              ....  0.000000
   Density functional embedding theory  .... OFF
 Long-range corrected/Screened/Range-Separated Hybrid DFT is turned on
   Amount of maximum screened exact exchange              ....  0.833000
   Range separation parameter mu (erf(mu*r12)/r12)        ....  0.300000
   NL short-range parameter             ....  6.000000
   NL long-range parameter              ....  0.010000


General Settings:
 Integral files         IntName         .... MOR36_pr37
 Hartree-Fock type      HFTyp           .... RHF
 Total Charge           Charge          ....    0
 Multiplicity           Mult            ....    1
 Number of Electrons    NEL             ....  122
 Basis Dimension        Dim             ....  773
 Nuclear Repulsion      ENuc            ....   1067.4966403648 Eh

Convergence Acceleration:
 DIIS                   CNVDIIS         .... on
   Start iteration      DIISMaxIt       ....    12
   Startup error        DIISStart       ....  0.200000
   # of expansion vecs  DIISMaxEq       ....     5
   Bias factor          DIISBfac        ....   1.050
   Max. coefficient     DIISMaxC        ....  10.000
 Newton-Raphson         CNVNR           .... off
 SOSCF                  CNVSOSCF        .... off
 Level Shifting         CNVShift        .... on
   Level shift para.    LevelShift      ....    0.2500
   Turn off err/grad.   ShiftErr        ....    0.0010
 Zerner damping         CNVZerner       .... off
 Static damping         CNVDamp         .... on
   Fraction old density DampFac         ....    0.7000
   Max. Damping (<1)    DampMax         ....    0.9800
   Min. Damping (>=0)   DampMin         ....    0.0000
   Turn off err/grad.   DampErr         ....    0.1000
 Fernandez-Rico         CNVRico         .... off

SCF Procedure:
 Maximum # iterations   MaxIter         ....   125
 SCF integral mode      SCFMode         .... Direct
   Integral package                     .... LIBINT
 Reset frequency        DirectResetFreq ....    20
 Integral Threshold     Thresh          ....  1.000e-10 Eh
 Primitive CutOff       TCut            ....  1.000e-11 Eh

Convergence Tolerance:
 Convergence Check Mode ConvCheckMode   .... Total+1el-Energy
 Convergence forced     ConvForced      .... 0
 Energy Change          TolE            ....  1.000e-06 Eh
 1-El. energy change                    ....  1.000e-03 Eh
 DIIS Error             TolErr          ....  1.000e-06


Diagonalization of the overlap matrix:
Smallest eigenvalue                        ... 4.649e-06
Time for diagonalization                   ...    0.119 sec
Threshold for overlap eigenvalues          ... 1.000e-08
Number of eigenvalues below threshold      ... 0
Time for construction of square roots      ...    0.082 sec
Total time needed                          ...    0.204 sec

-------------------
DFT GRID GENERATION
-------------------

General Integration Accuracy     IntAcc      ...  4.670
Radial Grid Type                 RadialGrid  ... Gauss-Chebyshev
Angular Grid (max. acc.)         AngularGrid ... Lebedev-302
Angular grid pruning method      GridPruning ... 3 (G Style)
Weight generation scheme         WeightScheme... Becke
Basis function cutoff            BFCut       ...    1.0000e-10
Integration weight cutoff        WCut        ...    1.0000e-14
Grids for H and He will be reduced by one unit

# of grid points (after initial pruning)     ... 134324 (   0.0 sec)
# of grid points (after weights+screening)   ... 123319 (   0.1 sec)
nearest neighbour list constructed           ...    0.0 sec
Grid point re-assignment to atoms done       ...    0.0 sec
Grid point division into batches done        ...    0.5 sec
Reduced shell lists constructed in    0.6 sec

Total number of grid points                  ...   123319
Total number of batches                      ...     1939
Average number of points per batch           ...       63
Average number of grid points per atom       ...     4933
Average number of shells per batch           ...   172.48 (62.27%)
Average number of basis functions per batch  ...   498.57 (64.50%)
Average number of large shells per batch     ...   136.94 (79.40%)
Average number of large basis fcns per batch ...   392.96 (78.82%)
Maximum spatial batch extension              ...   1.63,  1.79,  1.92 au
Average spatial batch extension              ...   0.04,  0.04,  0.04 au

Time for grid setup =    0.676 sec

------------------------------
INITIAL GUESS: MODEL POTENTIAL
------------------------------
Loading Hartree-Fock densities                     ... done
  calling /sw/apps/orca/orca_4_2_0_linux_x86-64_openmpi314/orca MOR36_pr37_atom42.inp > MOR36_pr37_atom42.out in order to generate an atomic fitting density for atom 0 (Mo with ECP) on-the-fly... 
    atom 0 (Mo), assumed electronic state with S=5: 1s2 2s2 2p6 3s2 3p6 4s2 3d10 4p6 5s2 4d4           ... done
Calculating cut-offs                               ... done
Setting up the integral package                    ... done
Initializing the effective Hamiltonian             ... done
Starting the Coulomb interaction                   ... done (   0.1 sec)
Reading the grid                                   ... done
Mapping shells                                     ... done
Starting the XC term evaluation                    ... done (   0.2 sec)
  promolecular density results
     # of electrons  =    149.996147575
     EX              =   -156.259452932
     EC              =     -7.318859524
     EX+EC           =   -163.578312456
Transforming the Hamiltonian                       ... done (   0.1 sec)
Diagonalizing the Hamiltonian                      ... done (   0.1 sec)
Back transforming the eigenvectors                 ... done (   0.0 sec)
Now organizing SCF variables                       ... done
                      ------------------
                      INITIAL GUESS DONE (   3.0 sec)
                      ------------------
--------------
SCF ITERATIONS
--------------
ITER       Energy         Delta-E        Max-DP      RMS-DP      [F,P]     Damp
               ***  Starting incremental Fock matrix formation  ***
  0   -806.7766779386   0.000000000000 0.16355931  0.00079941  0.3493867 0.7000
  1   -806.9090351297  -0.132357191125 0.10356419  0.00058706  0.2329366 0.7000
                               ***Turning on DIIS***
  2   -806.9573816789  -0.048346549160 0.14880521  0.00047651  0.1624757 0.7000
  3   -806.9932348705  -0.035853191600 0.18079204  0.00043848  0.1170211 0.7000
  4   -807.0196750801  -0.026440209683 0.50913617  0.00117263  0.0838387 0.0000
  5   -807.0830639657  -0.063388885521 0.06437329  0.00013879  0.0089757 0.0000
  6   -807.0834370855  -0.000373119830 0.02633316  0.00006556  0.0066604 0.0000
  7   -807.0836574847  -0.000220399226 0.01655446  0.00004146  0.0012949 0.0000
  8   -807.0836962346  -0.000038749837 0.02504159  0.00005339  0.0007221 0.0000
  9   -807.0837094793  -0.000013244723 0.00903253  0.00002023  0.0002797 0.0000
                 **** Energy Check signals convergence ****

               *****************************************************
               *                     SUCCESS                       *
               *           SCF CONVERGED AFTER  10 CYCLES          *
               *****************************************************


Setting up the DFT-NL grid :

General Integration Accuracy     IntAcc      ...  4.340
Radial Grid Type                 RadialGrid  ... Gauss-Chebyshev
Angular Grid (max. acc.)         AngularGrid ... Lebedev-110
Angular grid pruning method      GridPruning ... 3 (G Style)
Weight generation scheme         WeightScheme... Becke
Basis function cutoff            BFCut       ...    1.0000e-10
Integration weight cutoff        WCut        ...    1.0000e-14
Grids for H and He will be reduced by one unit

# of grid points (after initial pruning)     ...  35584 (   0.0 sec)
# of grid points (after weights+screening)   ...  33123 (   0.0 sec)
nearest neighbour list constructed           ...    0.0 sec
Grid point re-assignment to atoms done       ...    0.0 sec
Grid point division into batches done        ...    0.0 sec
Reduced shell lists constructed in    0.1 sec

Total number of grid points                  ...    33123
Total number of batches                      ...      531
Average number of points per batch           ...       62
Average number of grid points per atom       ...     1325
Average number of shells per batch           ...   174.75 (63.09%)
Average number of basis functions per batch  ...   504.08 (65.21%)
Average number of large shells per batch     ...   138.17 (79.07%)
Average number of large basis fcns per batch ...   397.92 (78.94%)
Maximum spatial batch extension              ...   2.25,  2.50,  2.44 au
Average spatial batch extension              ...   0.07,  0.07,  0.07 au

Final grid set up in    0.1 sec

-------------------------------------------------------------------------------
                         DFT-NL dispersion correction                          
-------------------------------------------------------------------------------

SC Energy -807.083710287 
NL    Energy 0.467708683 
SC+NL Energy -806.616001604 
NL done in    0.3 sec
-------------------------------------------------------------------------------

----------------
TOTAL SCF ENERGY
----------------

Total Energy       :         -806.61600160 Eh          -21949.13728 eV

Components:
Nuclear Repulsion  :         1067.49664036 Eh           29048.06036 eV
Electronic Energy  :        -1874.11264197 Eh          -50997.19764 eV
One Electron Energy:        -3244.16580460 Eh          -88278.23952 eV
Two Electron Energy:         1370.05316263 Eh           37281.04189 eV

Virial components:
Potential Energy   :        -1565.54603106 Eh          -42600.67328 eV
Kinetic Energy     :          758.93002946 Eh           20651.53601 eV
Virial Ratio       :            2.06283316


DFT components:
N(Alpha)           :       60.999993218392 electrons
N(Beta)            :       60.999993218392 electrons
N(Total)           :      121.999986436784 electrons
E(X)               :      -68.554586188538 Eh       
E(C)               :       -5.129630954244 Eh       
NL Energy, E(C,NL) :        0.467708683471 Eh       
E(XC)              :      -73.216508459312 Eh       
DFET-embed. en.    :        0.000000000000 Eh       

---------------
SCF CONVERGENCE
---------------

  Last Energy change         ...   -8.0783e-07  Tolerance :   1.0000e-06
  Last MAX-Density change    ...    6.3266e-03  Tolerance :   1.0000e-05
  Last RMS-Density change    ...    1.5209e-05  Tolerance :   1.0000e-06
  Last DIIS Error            ...    1.4052e-04  Tolerance :   1.0000e-06

             **** THE GBW FILE WAS UPDATED (MOR36_pr37.gbw) ****
             **** DENSITY FILE WAS UPDATED (MOR36_pr37.scfp) ****
             **** ENERGY FILE WAS UPDATED (MOR36_pr37.en.tmp) ****
             **** THE GBW FILE WAS UPDATED (MOR36_pr37.gbw) ****
             **** DENSITY FILE WAS UPDATED (MOR36_pr37.scfp) ****
----------------
ORBITAL ENERGIES
----------------

  NO   OCC          E(Eh)            E(eV) 
   0   2.0000     -19.213582      -522.8281 
   1   2.0000     -19.213580      -522.8281 
   2   2.0000     -19.213577      -522.8280 
   3   2.0000     -14.446387      -393.1062 
   4   2.0000     -14.446385      -393.1061 
   5   2.0000     -14.446378      -393.1059 
   6   2.0000     -10.337407      -281.2951 
   7   2.0000     -10.337407      -281.2951 
   8   2.0000     -10.337406      -281.2951 
   9   2.0000     -10.337069      -281.2860 
  10   2.0000     -10.337069      -281.2859 
  11   2.0000     -10.337069      -281.2859 
  12   2.0000     -10.317003      -280.7399 
  13   2.0000     -10.316993      -280.7397 
  14   2.0000     -10.316992      -280.7396 
  15   2.0000      -2.601108       -70.7797 
  16   2.0000      -1.607169       -43.7333 
  17   2.0000      -1.603150       -43.6239 
  18   2.0000      -1.603149       -43.6239 
  19   2.0000      -1.181506       -32.1504 
  20   2.0000      -1.180760       -32.1301 
  21   2.0000      -1.180759       -32.1301 
  22   2.0000      -1.066404       -29.0183 
  23   2.0000      -1.063744       -28.9460 
  24   2.0000      -1.063744       -28.9459 
  25   2.0000      -0.924864       -25.1668 
  26   2.0000      -0.924325       -25.1522 
  27   2.0000      -0.924325       -25.1522 
  28   2.0000      -0.661215       -17.9926 
  29   2.0000      -0.651309       -17.7230 
  30   2.0000      -0.651309       -17.7230 
  31   2.0000      -0.629545       -17.1308 
  32   2.0000      -0.612635       -16.6706 
  33   2.0000      -0.612633       -16.6706 
  34   2.0000      -0.593098       -16.1390 
  35   2.0000      -0.592343       -16.1185 
  36   2.0000      -0.592342       -16.1184 
  37   2.0000      -0.591245       -16.0886 
  38   2.0000      -0.591244       -16.0886 
  39   2.0000      -0.590672       -16.0730 
  40   2.0000      -0.574407       -15.6304 
  41   2.0000      -0.557177       -15.1616 
  42   2.0000      -0.557177       -15.1616 
  43   2.0000      -0.509555       -13.8657 
  44   2.0000      -0.506564       -13.7843 
  45   2.0000      -0.506563       -13.7843 
  46   2.0000      -0.493950       -13.4411 
  47   2.0000      -0.493949       -13.4410 
  48   2.0000      -0.490800       -13.3554 
  49   2.0000      -0.485497       -13.2110 
  50   2.0000      -0.475381       -12.9358 
  51   2.0000      -0.475380       -12.9357 
  52   2.0000      -0.462688       -12.5904 
  53   2.0000      -0.462687       -12.5903 
  54   2.0000      -0.456919       -12.4334 
  55   2.0000      -0.456364       -12.4183 
  56   2.0000      -0.447084       -12.1658 
  57   2.0000      -0.447083       -12.1658 
  58   2.0000      -0.234047        -6.3688 
  59   2.0000      -0.230610        -6.2752 
  60   2.0000      -0.230609        -6.2752 
  61   0.0000       0.030329         0.8253 
  62   0.0000       0.045479         1.2376 
  63   0.0000       0.045481         1.2376 
  64   0.0000       0.073266         1.9937 
  65   0.0000       0.073267         1.9937 
  66   0.0000       0.074544         2.0284 
  67   0.0000       0.079163         2.1541 
  68   0.0000       0.083770         2.2795 
  69   0.0000       0.086406         2.3512 
  70   0.0000       0.086416         2.3515 
  71   0.0000       0.090085         2.4513 
  72   0.0000       0.090095         2.4516 
  73   0.0000       0.090645         2.4666 
  74   0.0000       0.109863         2.9895 
  75   0.0000       0.109874         2.9898 
  76   0.0000       0.112943         3.0733 
  77   0.0000       0.118375         3.2212 
  78   0.0000       0.118382         3.2213 
  79   0.0000       0.124907         3.3989 
  80   0.0000       0.124915         3.3991 
  81   0.0000       0.132453         3.6042 
  82   0.0000       0.137618         3.7448 
  83   0.0000       0.137622         3.7449 
  84   0.0000       0.147368         4.0101 
  85   0.0000       0.150000         4.0817 
  86   0.0000       0.150011         4.0820 
  87   0.0000       0.152552         4.1511 
  88   0.0000       0.154905         4.2152 
  89   0.0000       0.156472         4.2578 
  90   0.0000       0.156480         4.2580 
  91   0.0000       0.164439         4.4746 
  92   0.0000       0.169472         4.6116 
  93   0.0000       0.171626         4.6702 
  94   0.0000       0.171635         4.6704 
  95   0.0000       0.174475         4.7477 
  96   0.0000       0.178197         4.8490 
  97   0.0000       0.178204         4.8492 
  98   0.0000       0.194137         5.2827 
  99   0.0000       0.194971         5.3054 
 100   0.0000       0.194977         5.3056 
 101   0.0000       0.198116         5.3910 
 102   0.0000       0.207819         5.6550 
 103   0.0000       0.207822         5.6551 
 104   0.0000       0.209728         5.7070 
 105   0.0000       0.216453         5.8900 
 106   0.0000       0.216467         5.8904 
 107   0.0000       0.224412         6.1066 
 108   0.0000       0.224418         6.1067 
 109   0.0000       0.236129         6.4254 
 110   0.0000       0.244087         6.6419 
 111   0.0000       0.244097         6.6422 
 112   0.0000       0.246232         6.7003 
 113   0.0000       0.256090         6.9686 
 114   0.0000       0.256109         6.9691 
 115   0.0000       0.261554         7.1172 
 116   0.0000       0.271336         7.3834 
 117   0.0000       0.271349         7.3838 
 118   0.0000       0.275303         7.4914 
 119   0.0000       0.283508         7.7146 
 120   0.0000       0.286304         7.7907 
 121   0.0000       0.286393         7.7932 
 122   0.0000       0.293511         7.9868 
 123   0.0000       0.293545         7.9878 
 124   0.0000       0.293900         7.9974 
 125   0.0000       0.302787         8.2393 
 126   0.0000       0.302821         8.2402 
 127   0.0000       0.314619         8.5612 
 128   0.0000       0.314637         8.5617 
 129   0.0000       0.318054         8.6547 
 130   0.0000       0.322403         8.7730 
 131   0.0000       0.322417         8.7734 
 132   0.0000       0.325428         8.8553 
 133   0.0000       0.325927         8.8689 
 134   0.0000       0.325965         8.8700 
 135   0.0000       0.328868         8.9490 
 136   0.0000       0.337637         9.1876 
 137   0.0000       0.337855         9.1935 
 138   0.0000       0.337874         9.1940 
 139   0.0000       0.341457         9.2915 
 140   0.0000       0.341477         9.2921 
 141   0.0000       0.341707         9.2983 
 142   0.0000       0.349471         9.5096 
 143   0.0000       0.350677         9.5424 
 144   0.0000       0.350694         9.5429 
 145   0.0000       0.352097         9.5811 
 146   0.0000       0.355470         9.6728 
 147   0.0000       0.355483         9.6732 
 148   0.0000       0.365223         9.9382 
 149   0.0000       0.365769         9.9531 
 150   0.0000       0.365794         9.9537 
 151   0.0000       0.372773        10.1437 
 152   0.0000       0.377978        10.2853 
 153   0.0000       0.378001        10.2859 
 154   0.0000       0.385596        10.4926 
 155   0.0000       0.397022        10.8035 
 156   0.0000       0.397091        10.8054 
 157   0.0000       0.399662        10.8754 
 158   0.0000       0.416702        11.3391 
 159   0.0000       0.416719        11.3395 
 160   0.0000       0.424950        11.5635 
 161   0.0000       0.427624        11.6362 
 162   0.0000       0.427640        11.6367 
 163   0.0000       0.438554        11.9337 
 164   0.0000       0.446385        12.1468 
 165   0.0000       0.446388        12.1468 
 166   0.0000       0.447091        12.1660 
 167   0.0000       0.448845        12.2137 
 168   0.0000       0.448857        12.2140 
 169   0.0000       0.453702        12.3459 
 170   0.0000       0.464445        12.6382 
 171   0.0000       0.470545        12.8042 
 172   0.0000       0.470558        12.8045 
 173   0.0000       0.480331        13.0705 
 174   0.0000       0.481239        13.0952 
 175   0.0000       0.481250        13.0955 
 176   0.0000       0.486099        13.2274 
 177   0.0000       0.491452        13.3731 
 178   0.0000       0.491463        13.3734 
 179   0.0000       0.499546        13.5933 
 180   0.0000       0.499561        13.5938 
 181   0.0000       0.516039        14.0421 
 182   0.0000       0.516057        14.0426 
 183   0.0000       0.516286        14.0489 
 184   0.0000       0.524140        14.2626 
 185   0.0000       0.539295        14.6750 
 186   0.0000       0.545869        14.8539 
 187   0.0000       0.545899        14.8547 
 188   0.0000       0.555230        15.1086 
 189   0.0000       0.567543        15.4436 
 190   0.0000       0.574516        15.6334 
 191   0.0000       0.574637        15.6367 
 192   0.0000       0.590597        16.0710 
 193   0.0000       0.590612        16.0714 
 194   0.0000       0.592164        16.1136 
 195   0.0000       0.600356        16.3365 
 196   0.0000       0.600384        16.3373 
 197   0.0000       0.606411        16.5013 
 198   0.0000       0.610558        16.6141 
 199   0.0000       0.610592        16.6151 
 200   0.0000       0.615441        16.7470 
 201   0.0000       0.617320        16.7981 
 202   0.0000       0.617342        16.7987 
 203   0.0000       0.621798        16.9200 
 204   0.0000       0.626579        17.0501 
 205   0.0000       0.626735        17.0543 
 206   0.0000       0.632693        17.2164 
 207   0.0000       0.640344        17.4246 
 208   0.0000       0.648418        17.6444 
 209   0.0000       0.648480        17.6460 
 210   0.0000       0.652325        17.7507 
 211   0.0000       0.652357        17.7515 
 212   0.0000       0.660087        17.9619 
 213   0.0000       0.678018        18.4498 
 214   0.0000       0.686398        18.6778 
 215   0.0000       0.686449        18.6792 
 216   0.0000       0.688862        18.7449 
 217   0.0000       0.694118        18.8879 
 218   0.0000       0.694137        18.8884 
 219   0.0000       0.698474        19.0064 
 220   0.0000       0.698519        19.0077 
 221   0.0000       0.702331        19.1114 
 222   0.0000       0.709598        19.3092 
 223   0.0000       0.711365        19.3572 
 224   0.0000       0.711436        19.3592 
 225   0.0000       0.715115        19.4593 
 226   0.0000       0.723096        19.6765 
 227   0.0000       0.723107        19.6767 
 228   0.0000       0.736316        20.0362 
 229   0.0000       0.736345        20.0370 
 230   0.0000       0.737322        20.0635 
 231   0.0000       0.744328        20.2542 
 232   0.0000       0.744442        20.2573 
 233   0.0000       0.751132        20.4394 
 234   0.0000       0.755248        20.5513 
 235   0.0000       0.755309        20.5530 
 236   0.0000       0.767000        20.8711 
 237   0.0000       0.767241        20.8777 
 238   0.0000       0.767295        20.8792 
 239   0.0000       0.785942        21.3866 
 240   0.0000       0.787291        21.4233 
 241   0.0000       0.787342        21.4247 
 242   0.0000       0.793573        21.5942 
 243   0.0000       0.793586        21.5946 
 244   0.0000       0.805265        21.9124 
 245   0.0000       0.807970        21.9860 
 246   0.0000       0.808048        21.9881 
 247   0.0000       0.830917        22.6104 
 248   0.0000       0.830944        22.6111 
 249   0.0000       0.832355        22.6495 
 250   0.0000       0.848321        23.0840 
 251   0.0000       0.857015        23.3206 
 252   0.0000       0.857096        23.3228 
 253   0.0000       0.859753        23.3951 
 254   0.0000       0.862604        23.4727 
 255   0.0000       0.870247        23.6806 
 256   0.0000       0.870304        23.6822 
 257   0.0000       0.885081        24.0843 
 258   0.0000       0.890748        24.2385 
 259   0.0000       0.890873        24.2419 
 260   0.0000       0.899479        24.4761 
 261   0.0000       0.912614        24.8335 
 262   0.0000       0.912644        24.8343 
 263   0.0000       0.913181        24.8489 
 264   0.0000       0.922963        25.1151 
 265   0.0000       0.922981        25.1156 
 266   0.0000       0.927503        25.2386 
 267   0.0000       0.939517        25.5656 
 268   0.0000       0.939531        25.5659 
 269   0.0000       0.948652        25.8141 
 270   0.0000       0.948693        25.8153 
 271   0.0000       0.950430        25.8625 
 272   0.0000       0.961166        26.1547 
 273   0.0000       0.973949        26.5025 
 274   0.0000       0.975067        26.5329 
 275   0.0000       0.975078        26.5332 
 276   0.0000       0.981193        26.6996 
 277   0.0000       0.981264        26.7016 
 278   0.0000       0.983791        26.7703 
 279   0.0000       0.983845        26.7718 
 280   0.0000       1.001525        27.2529 
 281   0.0000       1.004475        27.3332 
 282   0.0000       1.004532        27.3347 
 283   0.0000       1.017358        27.6837 
 284   0.0000       1.017395        27.6847 
 285   0.0000       1.027435        27.9579 
 286   0.0000       1.036356        28.2007 
 287   0.0000       1.041603        28.3435 
 288   0.0000       1.041673        28.3454 
 289   0.0000       1.058926        28.8149 
 290   0.0000       1.073348        29.2073 
 291   0.0000       1.073389        29.2084 
 292   0.0000       1.076106        29.2823 
 293   0.0000       1.076129        29.2830 
 294   0.0000       1.087625        29.5958 
 295   0.0000       1.090589        29.6764 
 296   0.0000       1.090734        29.6804 
 297   0.0000       1.090750        29.6808 
 298   0.0000       1.106362        30.1056 
 299   0.0000       1.116698        30.3869 
 300   0.0000       1.116718        30.3874 
 301   0.0000       1.120750        30.4972 
 302   0.0000       1.131297        30.7842 
 303   0.0000       1.148565        31.2540 
 304   0.0000       1.148705        31.2578 
 305   0.0000       1.159870        31.5617 
 306   0.0000       1.164972        31.7005 
 307   0.0000       1.165077        31.7034 
 308   0.0000       1.171906        31.8892 
 309   0.0000       1.195039        32.5187 
 310   0.0000       1.195046        32.5188 
 311   0.0000       1.202214        32.7139 
 312   0.0000       1.217344        33.1256 
 313   0.0000       1.217349        33.1258 
 314   0.0000       1.218493        33.1569 
 315   0.0000       1.238806        33.7096 
 316   0.0000       1.238923        33.7128 
 317   0.0000       1.239949        33.7407 
 318   0.0000       1.267554        34.4919 
 319   0.0000       1.267630        34.4940 
 320   0.0000       1.270438        34.5704 
 321   0.0000       1.282746        34.9053 
 322   0.0000       1.283519        34.9263 
 323   0.0000       1.283592        34.9283 
 324   0.0000       1.284411        34.9506 
 325   0.0000       1.290564        35.1180 
 326   0.0000       1.290596        35.1189 
 327   0.0000       1.297955        35.3191 
 328   0.0000       1.304304        35.4919 
 329   0.0000       1.304322        35.4924 
 330   0.0000       1.314702        35.7749 
 331   0.0000       1.331907        36.2430 
 332   0.0000       1.331947        36.2441 
 333   0.0000       1.335693        36.3460 
 334   0.0000       1.335783        36.3485 
 335   0.0000       1.345864        36.6228 
 336   0.0000       1.379581        37.5403 
 337   0.0000       1.387826        37.7647 
 338   0.0000       1.396318        37.9958 
 339   0.0000       1.396378        37.9974 
 340   0.0000       1.411251        38.4021 
 341   0.0000       1.411294        38.4033 
 342   0.0000       1.438278        39.1375 
 343   0.0000       1.438309        39.1384 
 344   0.0000       1.440860        39.2078 
 345   0.0000       1.453590        39.5542 
 346   0.0000       1.469714        39.9930 
 347   0.0000       1.469919        39.9985 
 348   0.0000       1.494567        40.6692 
 349   0.0000       1.494603        40.6702 
 350   0.0000       1.498099        40.7654 
 351   0.0000       1.515415        41.2365 
 352   0.0000       1.520398        41.3721 
 353   0.0000       1.520423        41.3728 
 354   0.0000       1.537399        41.8347 
 355   0.0000       1.538347        41.8605 
 356   0.0000       1.538384        41.8616 
 357   0.0000       1.570961        42.7480 
 358   0.0000       1.571019        42.7496 
 359   0.0000       1.616684        43.9922 
 360   0.0000       1.616995        44.0007 
 361   0.0000       1.617006        44.0010 
 362   0.0000       1.630213        44.3604 
 363   0.0000       1.640447        44.6388 
 364   0.0000       1.640471        44.6395 
 365   0.0000       1.650712        44.9182 
 366   0.0000       1.650726        44.9185 
 367   0.0000       1.652648        44.9708 
 368   0.0000       1.656546        45.0769 
 369   0.0000       1.661414        45.2094 
 370   0.0000       1.661434        45.2099 
 371   0.0000       1.673081        45.5269 
 372   0.0000       1.673093        45.5272 
 373   0.0000       1.678353        45.6703 
 374   0.0000       1.681907        45.7670 
 375   0.0000       1.681919        45.7673 
 376   0.0000       1.683102        45.7995 
 377   0.0000       1.708004        46.4772 
 378   0.0000       1.725604        46.9561 
 379   0.0000       1.728754        47.0418 
 380   0.0000       1.728804        47.0432 
 381   0.0000       1.769123        48.1403 
 382   0.0000       1.769216        48.1428 
 383   0.0000       1.798704        48.9452 
 384   0.0000       1.798745        48.9463 
 385   0.0000       1.804799        49.1111 
 386   0.0000       1.866914        50.8013 
 387   0.0000       1.866920        50.8015 
 388   0.0000       1.869116        50.8612 
 389   0.0000       1.871950        50.9383 
 390   0.0000       1.898522        51.6614 
 391   0.0000       1.898551        51.6622 
 392   0.0000       1.914185        52.0876 
 393   0.0000       1.930773        52.5390 
 394   0.0000       1.930785        52.5393 
 395   0.0000       1.967988        53.5517 
 396   0.0000       1.967998        53.5520 
 397   0.0000       1.970836        53.6292 
 398   0.0000       1.975990        53.7694 
 399   0.0000       1.976100        53.7724 
 400   0.0000       1.981377        53.9160 
 401   0.0000       1.981395        53.9165 
 402   0.0000       1.994554        54.2746 
 403   0.0000       2.029884        55.2360 
 404   0.0000       2.033585        55.3367 
 405   0.0000       2.041891        55.5627 
 406   0.0000       2.041902        55.5630 
 407   0.0000       2.050432        55.7951 
 408   0.0000       2.050468        55.7961 
 409   0.0000       2.063695        56.1560 
 410   0.0000       2.079477        56.5854 
 411   0.0000       2.079526        56.5868 
 412   0.0000       2.091706        56.9182 
 413   0.0000       2.110165        57.4205 
 414   0.0000       2.110181        57.4210 
 415   0.0000       2.110670        57.4343 
 416   0.0000       2.147420        58.4343 
 417   0.0000       2.149333        58.4863 
 418   0.0000       2.166480        58.9529 
 419   0.0000       2.166540        58.9546 
 420   0.0000       2.192251        59.6542 
 421   0.0000       2.192254        59.6543 
 422   0.0000       2.255281        61.3693 
 423   0.0000       2.255330        61.3706 
 424   0.0000       2.300412        62.5974 
 425   0.0000       2.300492        62.5996 
 426   0.0000       2.308081        62.8061 
 427   0.0000       2.317029        63.0496 
 428   0.0000       2.317043        63.0500 
 429   0.0000       2.339325        63.6563 
 430   0.0000       2.347333        63.8742 
 431   0.0000       2.347382        63.8755 
 432   0.0000       2.390140        65.0390 
 433   0.0000       2.403503        65.4026 
 434   0.0000       2.413909        65.6858 
 435   0.0000       2.413916        65.6860 
 436   0.0000       2.417474        65.7828 
 437   0.0000       2.451414        66.7064 
 438   0.0000       2.451426        66.7067 
 439   0.0000       2.460719        66.9596 
 440   0.0000       2.470874        67.2359 
 441   0.0000       2.470891        67.2363 
 442   0.0000       2.520200        68.5781 
 443   0.0000       2.574977        70.0687 
 444   0.0000       2.574993        70.0691 
 445   0.0000       2.627884        71.5084 
 446   0.0000       2.655376        72.2564 
 447   0.0000       2.677184        72.8499 
 448   0.0000       2.677212        72.8506 
 449   0.0000       2.686835        73.1125 
 450   0.0000       2.700231        73.4770 
 451   0.0000       2.701407        73.5090 
 452   0.0000       2.701418        73.5093 
 453   0.0000       2.710464        73.7555 
 454   0.0000       2.710482        73.7560 
 455   0.0000       2.712230        73.8035 
 456   0.0000       2.735005        74.4233 
 457   0.0000       2.735052        74.4246 
 458   0.0000       2.738680        74.5233 
 459   0.0000       2.744610        74.6846 
 460   0.0000       2.774362        75.4942 
 461   0.0000       2.774370        75.4945 
 462   0.0000       2.784022        75.7571 
 463   0.0000       2.796220        76.0890 
 464   0.0000       2.796262        76.0901 
 465   0.0000       2.824735        76.8649 
 466   0.0000       2.826220        76.9054 
 467   0.0000       2.826229        76.9056 
 468   0.0000       2.848211        77.5038 
 469   0.0000       2.848798        77.5197 
 470   0.0000       2.848813        77.5201 
 471   0.0000       2.852447        77.6190 
 472   0.0000       2.852459        77.6194 
 473   0.0000       2.860274        77.8320 
 474   0.0000       2.868421        78.0537 
 475   0.0000       2.868473        78.0551 
 476   0.0000       2.879114        78.3447 
 477   0.0000       2.888176        78.5913 
 478   0.0000       2.888211        78.5922 
 479   0.0000       2.892953        78.7212 
 480   0.0000       2.895510        78.7908 
 481   0.0000       2.895526        78.7913 
 482   0.0000       2.900587        78.9290 
 483   0.0000       2.931788        79.7780 
 484   0.0000       2.931809        79.7786 
 485   0.0000       2.933230        79.8172 
 486   0.0000       2.949737        80.2664 
 487   0.0000       2.949759        80.2670 
 488   0.0000       2.952776        80.3491 
 489   0.0000       2.955725        80.4294 
 490   0.0000       2.955733        80.4296 
 491   0.0000       2.965920        80.7068 
 492   0.0000       2.982454        81.1567 
 493   0.0000       2.984945        81.2245 
 494   0.0000       2.984949        81.2246 
 495   0.0000       2.995730        81.5180 
 496   0.0000       3.005257        81.7772 
 497   0.0000       3.005277        81.7777 
 498   0.0000       3.018502        82.1376 
 499   0.0000       3.018518        82.1380 
 500   0.0000       3.033886        82.5562 
 501   0.0000       3.056157        83.1623 
 502   0.0000       3.068156        83.4888 
 503   0.0000       3.068188        83.4896 
 504   0.0000       3.085225        83.9532 
 505   0.0000       3.087408        84.0126 
 506   0.0000       3.087412        84.0128 
 507   0.0000       3.096381        84.2568 
 508   0.0000       3.118223        84.8512 
 509   0.0000       3.122591        84.9700 
 510   0.0000       3.122606        84.9704 
 511   0.0000       3.133989        85.2802 
 512   0.0000       3.133993        85.2803 
 513   0.0000       3.145448        85.5920 
 514   0.0000       3.162981        86.0691 
 515   0.0000       3.162998        86.0695 
 516   0.0000       3.174723        86.3886 
 517   0.0000       3.174748        86.3893 
 518   0.0000       3.174874        86.3927 
 519   0.0000       3.223155        87.7065 
 520   0.0000       3.223170        87.7069 
 521   0.0000       3.225798        87.7784 
 522   0.0000       3.244155        88.2780 
 523   0.0000       3.244166        88.2783 
 524   0.0000       3.257832        88.6501 
 525   0.0000       3.257838        88.6503 
 526   0.0000       3.259323        88.6907 
 527   0.0000       3.263715        88.8102 
 528   0.0000       3.274670        89.1083 
 529   0.0000       3.274705        89.1093 
 530   0.0000       3.282206        89.3134 
 531   0.0000       3.282232        89.3141 
 532   0.0000       3.291535        89.5672 
 533   0.0000       3.298905        89.7678 
 534   0.0000       3.334982        90.7495 
 535   0.0000       3.335066        90.7518 
 536   0.0000       3.335086        90.7523 
 537   0.0000       3.363714        91.5313 
 538   0.0000       3.363726        91.5316 
 539   0.0000       3.370238        91.7088 
 540   0.0000       3.377271        91.9002 
 541   0.0000       3.388596        92.2084 
 542   0.0000       3.388603        92.2086 
 543   0.0000       3.408270        92.7437 
 544   0.0000       3.408417        92.7477 
 545   0.0000       3.408429        92.7481 
 546   0.0000       3.426938        93.2517 
 547   0.0000       3.426954        93.2521 
 548   0.0000       3.468861        94.3925 
 549   0.0000       3.468904        94.3937 
 550   0.0000       3.485194        94.8369 
 551   0.0000       3.488702        94.9324 
 552   0.0000       3.488734        94.9333 
 553   0.0000       3.495149        95.1078 
 554   0.0000       3.513306        95.6019 
 555   0.0000       3.513319        95.6023 
 556   0.0000       3.528633        96.0190 
 557   0.0000       3.531650        96.1011 
 558   0.0000       3.531678        96.1018 
 559   0.0000       3.536623        96.2364 
 560   0.0000       3.555698        96.7555 
 561   0.0000       3.567970        97.0894 
 562   0.0000       3.586313        97.5885 
 563   0.0000       3.586345        97.5894 
 564   0.0000       3.587906        97.6319 
 565   0.0000       3.587918        97.6322 
 566   0.0000       3.589002        97.6617 
 567   0.0000       3.600070        97.9629 
 568   0.0000       3.600085        97.9633 
 569   0.0000       3.602539        98.0301 
 570   0.0000       3.610433        98.2449 
 571   0.0000       3.623130        98.5904 
 572   0.0000       3.623146        98.5908 
 573   0.0000       3.628880        98.7469 
 574   0.0000       3.660477        99.6067 
 575   0.0000       3.660520        99.6078 
 576   0.0000       3.667346        99.7936 
 577   0.0000       3.701077       100.7114 
 578   0.0000       3.713723       101.0555 
 579   0.0000       3.713752       101.0563 
 580   0.0000       3.725217       101.3683 
 581   0.0000       3.725221       101.3684 
 582   0.0000       3.744171       101.8841 
 583   0.0000       3.744178       101.8843 
 584   0.0000       3.745545       101.9215 
 585   0.0000       3.782228       102.9197 
 586   0.0000       3.782231       102.9198 
 587   0.0000       3.800175       103.4080 
 588   0.0000       3.874614       105.4336 
 589   0.0000       3.893452       105.9462 
 590   0.0000       3.893498       105.9475 
 591   0.0000       3.942232       107.2736 
 592   0.0000       3.956101       107.6510 
 593   0.0000       3.956120       107.6515 
 594   0.0000       3.991668       108.6188 
 595   0.0000       3.991686       108.6193 
 596   0.0000       4.001949       108.8986 
 597   0.0000       4.021206       109.4226 
 598   0.0000       4.021235       109.4234 
 599   0.0000       4.024088       109.5010 
 600   0.0000       4.040428       109.9456 
 601   0.0000       4.040440       109.9460 
 602   0.0000       4.056143       110.3733 
 603   0.0000       4.075077       110.8885 
 604   0.0000       4.077676       110.9592 
 605   0.0000       4.077705       110.9600 
 606   0.0000       4.104802       111.6973 
 607   0.0000       4.107458       111.7696 
 608   0.0000       4.107478       111.7702 
 609   0.0000       4.121882       112.1621 
 610   0.0000       4.126572       112.2897 
 611   0.0000       4.126581       112.2900 
 612   0.0000       4.131350       112.4198 
 613   0.0000       4.132333       112.4465 
 614   0.0000       4.132352       112.4470 
 615   0.0000       4.159486       113.1854 
 616   0.0000       4.159508       113.1860 
 617   0.0000       4.178611       113.7058 
 618   0.0000       4.219189       114.8100 
 619   0.0000       4.219196       114.8101 
 620   0.0000       4.220020       114.8326 
 621   0.0000       4.222099       114.8892 
 622   0.0000       4.222111       114.8895 
 623   0.0000       4.238514       115.3358 
 624   0.0000       4.256926       115.8368 
 625   0.0000       4.256947       115.8374 
 626   0.0000       4.257214       115.8447 
 627   0.0000       4.264938       116.0549 
 628   0.0000       4.266930       116.1091 
 629   0.0000       4.266955       116.1097 
 630   0.0000       4.282433       116.5309 
 631   0.0000       4.338834       118.0657 
 632   0.0000       4.338843       118.0659 
 633   0.0000       4.348828       118.3376 
 634   0.0000       4.356252       118.5396 
 635   0.0000       4.356265       118.5400 
 636   0.0000       4.509547       122.7110 
 637   0.0000       4.509559       122.7113 
 638   0.0000       4.515923       122.8845 
 639   0.0000       4.517710       122.9331 
 640   0.0000       4.517716       122.9333 
 641   0.0000       4.526362       123.1686 
 642   0.0000       4.622174       125.7757 
 643   0.0000       4.685500       127.4989 
 644   0.0000       4.685528       127.4997 
 645   0.0000       4.702678       127.9664 
 646   0.0000       4.706901       128.0813 
 647   0.0000       4.706934       128.0822 
 648   0.0000       4.709418       128.1498 
 649   0.0000       4.717651       128.3738 
 650   0.0000       4.729829       128.7052 
 651   0.0000       4.729847       128.7057 
 652   0.0000       4.790962       130.3687 
 653   0.0000       4.791010       130.3700 
 654   0.0000       4.882630       132.8631 
 655   0.0000       4.890617       133.0805 
 656   0.0000       4.890660       133.0816 
 657   0.0000       4.899457       133.3210 
 658   0.0000       4.899468       133.3213 
 659   0.0000       4.907837       133.5490 
 660   0.0000       4.907850       133.5494 
 661   0.0000       4.908933       133.5788 
 662   0.0000       4.911710       133.6544 
 663   0.0000       4.914871       133.7404 
 664   0.0000       4.926660       134.0612 
 665   0.0000       4.926668       134.0615 
 666   0.0000       4.950136       134.7001 
 667   0.0000       4.972988       135.3219 
 668   0.0000       4.973018       135.3227 
 669   0.0000       4.974688       135.3682 
 670   0.0000       5.074685       138.0892 
 671   0.0000       5.074749       138.0909 
 672   0.0000       5.165950       140.5727 
 673   0.0000       5.165994       140.5738 
 674   0.0000       5.165998       140.5740 
 675   0.0000       5.238969       142.5596 
 676   0.0000       5.275308       143.5484 
 677   0.0000       5.275309       143.5485 
 678   0.0000       5.275500       143.5537 
 679   0.0000       5.277667       143.6126 
 680   0.0000       5.277669       143.6127 
 681   0.0000       5.278387       143.6322 
 682   0.0000       5.300328       144.2293 
 683   0.0000       5.300351       144.2299 
 684   0.0000       5.315476       144.6415 
 685   0.0000       5.324303       144.8817 
 686   0.0000       5.324327       144.8823 
 687   0.0000       5.329580       145.0252 
 688   0.0000       5.342769       145.3841 
 689   0.0000       5.342790       145.3847 
 690   0.0000       5.377068       146.3175 
 691   0.0000       5.381290       146.4324 
 692   0.0000       5.394351       146.7877 
 693   0.0000       5.394387       146.7887 
 694   0.0000       5.399816       146.9365 
 695   0.0000       5.399888       146.9384 
 696   0.0000       5.414314       147.3310 
 697   0.0000       5.414354       147.3321 
 698   0.0000       5.431805       147.8069 
 699   0.0000       5.441372       148.0673 
 700   0.0000       5.441389       148.0677 
 701   0.0000       5.443174       148.1163 
 702   0.0000       5.456272       148.4727 
 703   0.0000       5.456276       148.4728 
 704   0.0000       5.462965       148.6548 
 705   0.0000       5.652552       153.8138 
 706   0.0000       5.652553       153.8138 
 707   0.0000       5.655617       153.8972 
 708   0.0000       5.663156       154.1023 
 709   0.0000       5.663205       154.1036 
 710   0.0000       5.669063       154.2630 
 711   0.0000       5.687661       154.7691 
 712   0.0000       5.690762       154.8535 
 713   0.0000       5.690766       154.8536 
 714   0.0000       5.755874       156.6253 
 715   0.0000       5.755881       156.6255 
 716   0.0000       5.758630       156.7003 
 717   0.0000       5.763312       156.8277 
 718   0.0000       5.763324       156.8280 
 719   0.0000       5.766133       156.9045 
 720   0.0000       6.039946       164.3553 
 721   0.0000       6.039954       164.3555 
 722   0.0000       6.046406       164.5311 
 723   0.0000       6.072554       165.2426 
 724   0.0000       6.095050       165.8547 
 725   0.0000       6.095054       165.8548 
 726   0.0000       6.295329       171.3046 
 727   0.0000       6.296924       171.3480 
 728   0.0000       6.296960       171.3490 
 729   0.0000       6.409762       174.4185 
 730   0.0000       6.409807       174.4197 
 731   0.0000       6.445794       175.3990 
 732   0.0000       6.540563       177.9778 
 733   0.0000       6.547921       178.1780 
 734   0.0000       6.547927       178.1781 
 735   0.0000       6.554822       178.3658 
 736   0.0000       6.554826       178.3659 
 737   0.0000       6.559854       178.5027 
 738   0.0000       6.593121       179.4079 
 739   0.0000       6.593129       179.4082 
 740   0.0000       6.596935       179.5117 
 741   0.0000       6.628106       180.3599 
 742   0.0000       6.642317       180.7466 
 743   0.0000       6.642357       180.7477 
 744   0.0000       6.828953       185.8253 
 745   0.0000       6.828978       185.8259 
 746   0.0000       6.847152       186.3205 
 747   0.0000       7.047210       191.7643 
 748   0.0000       7.048985       191.8126 
 749   0.0000       7.049644       191.8306 
 750   0.0000       7.049646       191.8306 
 751   0.0000       7.060161       192.1167 
 752   0.0000       7.060165       192.1169 
 753   0.0000       7.353603       200.1017 
 754   0.0000       7.363652       200.3752 
 755   0.0000       7.363666       200.3755 
 756   0.0000      23.581335       641.6808 
 757   0.0000      23.581355       641.6813 
 758   0.0000      23.598946       642.1600 
 759   0.0000      23.616279       642.6316 
 760   0.0000      23.616290       642.6319 
 761   0.0000      23.734867       645.8586 
 762   0.0000      23.887015       649.9987 
 763   0.0000      23.887022       649.9989 
 764   0.0000      23.900050       650.3534 
 765   0.0000      25.758083       700.9131 
 766   0.0000      32.962413       896.9529 
 767   0.0000      33.164282       902.4460 
 768   0.0000      33.164299       902.4464 
 769   0.0000      44.316681      1205.9182 
 770   0.0000      44.448654      1209.5094 
 771   0.0000      44.448664      1209.5097 
 772   0.0000      86.226447      2346.3409 

                    ********************************
                    * MULLIKEN POPULATION ANALYSIS *
                    ********************************

-----------------------
MULLIKEN ATOMIC CHARGES
-----------------------
   0 Mo:   -0.736617
   1 C :    0.336019
   2 C :    0.335948
   3 C :    0.335848
   4 O :   -0.315389
   5 O :   -0.315492
   6 O :   -0.315452
   7 N :    0.203037
   8 N :    0.203090
   9 N :    0.203312
  10 C :   -0.020530
  11 C :   -0.020782
  12 C :   -0.020173
  13 C :   -0.240347
  14 H :    0.094823
  15 H :    0.092708
  16 H :    0.095158
  17 C :   -0.239522
  18 H :    0.094319
  19 H :    0.092458
  20 H :    0.095382
  21 C :   -0.240754
  22 H :    0.094912
  23 H :    0.092739
  24 H :    0.095303
Sum of atomic charges:   -0.0000000

--------------------------------
MULLIKEN REDUCED ORBITAL CHARGES
--------------------------------
  0 Mos       :     2.845370  s :     2.845370
      pz      :     2.345522  p :     6.740072
      px      :     2.197522
      py      :     2.197028
      dz2     :     1.314190  d :     5.054003
      dxz     :     0.759987
      dyz     :     0.760032
      dx2y2   :     1.109967
      dxy     :     1.109827
      f0      :     0.010825  f :     0.092449
      f+1     :     0.009198
      f-1     :     0.009190
      f+2     :     0.022493
      f-2     :     0.022494
      f+3     :     0.010941
      f-3     :     0.007308
      g0      :     0.000468  g :     0.004722
      g+1     :     0.000314
      g-1     :     0.000314
      g+2     :     0.000714
      g-2     :     0.000714
      g+3     :     0.000914
      g-3     :     0.000626
      g+4     :     0.000330
      g-4     :     0.000330
  1 C s       :     3.370646  s :     3.370646
      pz      :     0.709625  p :     2.123650
      px      :     0.646147
      py      :     0.767877
      dz2     :     0.040682  d :     0.152653
      dxz     :     0.016985
      dyz     :     0.022107
      dx2y2   :     0.032323
      dxy     :     0.040556
      f0      :     0.001659  f :     0.017032
      f+1     :     0.000730
      f-1     :     0.004345
      f+2     :     0.003102
      f-2     :     0.003163
      f+3     :     0.001926
      f-3     :     0.002106
  2 C s       :     3.370753  s :     3.370753
      pz      :     0.709581  p :     2.123627
      px      :     0.697008
      py      :     0.717037
      dz2     :     0.040679  d :     0.152640
      dxz     :     0.019030
      dyz     :     0.020054
      dx2y2   :     0.051857
      dxy     :     0.021020
      f0      :     0.001660  f :     0.017032
      f+1     :     0.002240
      f-1     :     0.002835
      f+2     :     0.003248
      f-2     :     0.003017
      f+3     :     0.001926
      f-3     :     0.002105
  3 C s       :     3.370888  s :     3.370888
      pz      :     0.709582  p :     2.123605
      px      :     0.777916
      py      :     0.636107
      dz2     :     0.040685  d :     0.152625
      dxz     :     0.022604
      dyz     :     0.016476
      dx2y2   :     0.025122
      dxy     :     0.047738
      f0      :     0.001661  f :     0.017033
      f+1     :     0.004643
      f-1     :     0.000433
      f+2     :     0.003048
      f-2     :     0.003219
      f+3     :     0.001925
      f-3     :     0.002104
  4 O s       :     3.903400  s :     3.903400
      pz      :     1.449918  p :     4.366128
      px      :     1.394425
      py      :     1.521786
      dz2     :     0.011828  d :     0.044250
      dxz     :     0.008604
      dyz     :     0.007190
      dx2y2   :     0.007338
      dxy     :     0.009290
      f0      :     0.000144  f :     0.001611
      f+1     :     0.000475
      f-1     :     0.000043
      f+2     :     0.000225
      f-2     :     0.000335
      f+3     :     0.000177
      f-3     :     0.000212
  5 O s       :     3.903549  s :     3.903549
      pz      :     1.449971  p :     4.366111
      px      :     1.512750
      py      :     1.403390
      dz2     :     0.011816  d :     0.044221
      dxz     :     0.007291
      dyz     :     0.008482
      dx2y2   :     0.007967
      dxy     :     0.008665
      f0      :     0.000143  f :     0.001611
      f+1     :     0.000073
      f-1     :     0.000444
      f+2     :     0.000260
      f-2     :     0.000300
      f+3     :     0.000177
      f-3     :     0.000212
  6 O s       :     3.903512  s :     3.903512
      pz      :     1.449940  p :     4.366103
      px      :     1.467074
      py      :     1.449089
      dz2     :     0.011819  d :     0.044226
      dxz     :     0.007777
      dyz     :     0.007998
      dx2y2   :     0.009644
      dxy     :     0.006988
      f0      :     0.000144  f :     0.001611
      f+1     :     0.000228
      f-1     :     0.000289
      f+2     :     0.000355
      f-2     :     0.000205
      f+3     :     0.000177
      f-3     :     0.000212
  7 N s       :     3.634649  s :     3.634649
      pz      :     1.027845  p :     3.135725
      px      :     1.060013
      py      :     1.047867
      dz2     :     0.003095  d :     0.023670
      dxz     :     0.008172
      dyz     :     0.008138
      dx2y2   :     0.001043
      dxy     :     0.003221
      f0      :     0.000193  f :     0.002919
      f+1     :     0.000450
      f-1     :     0.000570
      f+2     :     0.000668
      f-2     :     0.000245
      f+3     :     0.000345
      f-3     :     0.000448
  8 N s       :     3.634622  s :     3.634622
      pz      :     1.027692  p :     3.135742
      px      :     1.090808
      py      :     1.017243
      dz2     :     0.003085  d :     0.023628
      dxz     :     0.007853
      dyz     :     0.008470
      dx2y2   :     0.002365
      dxy     :     0.001854
      f0      :     0.000193  f :     0.002919
      f+1     :     0.000134
      f-1     :     0.000886
      f+2     :     0.000399
      f-2     :     0.000513
      f+3     :     0.000345
      f-3     :     0.000449
  9 N s       :     3.634188  s :     3.634188
      pz      :     1.027936  p :     3.135888
      px      :     1.011127
      py      :     1.096826
      dz2     :     0.003106  d :     0.023694
      dxz     :     0.008482
      dyz     :     0.007874
      dx2y2   :     0.002956
      dxy     :     0.001275
      f0      :     0.000193  f :     0.002919
      f+1     :     0.000946
      f-1     :     0.000074
      f+2     :     0.000302
      f-2     :     0.000611
      f+3     :     0.000345
      f-3     :     0.000448
 10 C s       :     3.182021  s :     3.182021
      pz      :     0.899150  p :     2.756430
      px      :     0.936528
      py      :     0.920753
      dz2     :     0.026484  d :     0.065139
      dxz     :    -0.003885
      dyz     :     0.013323
      dx2y2   :     0.005871
      dxy     :     0.023345
      f0      :     0.001186  f :     0.016940
      f+1     :     0.005151
      f-1     :     0.000314
      f+2     :     0.002361
      f-2     :     0.003261
      f+3     :     0.002128
      f-3     :     0.002539
 11 C s       :     3.181937  s :     3.181937
      pz      :     0.899031  p :     2.756688
      px      :     0.921173
      py      :     0.936483
      dz2     :     0.026492  d :     0.065219
      dxz     :     0.011856
      dyz     :    -0.002359
      dx2y2   :     0.011945
      dxy     :     0.017285
      f0      :     0.001184  f :     0.016939
      f+1     :     0.000677
      f-1     :     0.004788
      f+2     :     0.002642
      f-2     :     0.002977
      f+3     :     0.002129
      f-3     :     0.002542
 12 C s       :     3.181594  s :     3.181594
      pz      :     0.899085  p :     2.756517
      px      :     0.928442
      py      :     0.928990
      dz2     :     0.026483  d :     0.065121
      dxz     :     0.006162
      dyz     :     0.003273
      dx2y2   :     0.026022
      dxy     :     0.003182
      f0      :     0.001185  f :     0.016940
      f+1     :     0.002370
      f-1     :     0.003095
      f+2     :     0.003427
      f-2     :     0.002193
      f+3     :     0.002130
      f-3     :     0.002540
 13 C s       :     3.119869  s :     3.119869
      pz      :     1.034598  p :     3.061402
      px      :     1.024973
      py      :     1.001831
      dz2     :     0.020443  d :     0.056946
      dxz     :     0.005892
      dyz     :     0.007366
      dx2y2   :     0.017442
      dxy     :     0.005804
      f0      :     0.000425  f :     0.002130
      f+1     :     0.000298
      f-1     :     0.000181
      f+2     :     0.000201
      f-2     :     0.000348
      f+3     :     0.000307
      f-3     :     0.000369
 14 H s       :     0.863208  s :     0.863208
      pz      :     0.009238  p :     0.040006
      px      :     0.021569
      py      :     0.009199
      dz2     :     0.000096  d :     0.001964
      dxz     :     0.000747
      dyz     :     0.000052
      dx2y2   :     0.000403
      dxy     :     0.000665
 15 H s       :     0.866830  s :     0.866830
      pz      :     0.020539  p :     0.038498
      px      :     0.009411
      py      :     0.008547
      dz2     :     0.000439  d :     0.001964
      dxz     :     0.000625
      dyz     :     0.000760
      dx2y2   :     0.000082
      dxy     :     0.000056
 16 H s       :     0.862131  s :     0.862131
      pz      :     0.010672  p :     0.040748
      px      :     0.009412
      py      :     0.020663
      dz2     :     0.000336  d :     0.001963
      dxz     :     0.000089
      dyz     :     0.000541
      dx2y2   :     0.000300
      dxy     :     0.000697
 17 C s       :     3.119036  s :     3.119036
      pz      :     1.034504  p :     3.061406
      px      :     1.092805
      py      :     0.934097
      dz2     :     0.020463  d :     0.056951
      dxz     :     0.006170
      dyz     :     0.007061
      dx2y2   :     0.004065
      dxy     :     0.019192
      f0      :     0.000425  f :     0.002129
      f+1     :     0.000130
      f-1     :     0.000348
      f+2     :     0.000269
      f-2     :     0.000279
      f+3     :     0.000308
      f-3     :     0.000368
 18 H s       :     0.863667  s :     0.863667
      pz      :     0.009245  p :     0.040050
      px      :     0.015445
      py      :     0.015360
      dz2     :     0.000097  d :     0.001964
      dxz     :     0.000375
      dyz     :     0.000424
      dx2y2   :     0.000802
      dxy     :     0.000266
 19 H s       :     0.867036  s :     0.867036
      pz      :     0.020566  p :     0.038542
      px      :     0.010334
      py      :     0.007642
      dz2     :     0.000439  d :     0.001964
      dxz     :     0.000680
      dyz     :     0.000706
      dx2y2   :     0.000039
      dxy     :     0.000099
 20 H s       :     0.861881  s :     0.861881
      pz      :     0.010678  p :     0.040774
      px      :     0.019026
      py      :     0.011069
      dz2     :     0.000336  d :     0.001964
      dxz     :     0.000425
      dyz     :     0.000206
      dx2y2   :     0.000520
      dxy     :     0.000477
 21 C s       :     3.119838  s :     3.119838
      pz      :     1.034643  p :     3.061810
      px      :     0.922501
      py      :     1.104666
      dz2     :     0.020438  d :     0.056975
      dxz     :     0.007823
      dyz     :     0.005466
      dx2y2   :     0.013380
      dxy     :     0.009868
      f0      :     0.000425  f :     0.002131
      f+1     :     0.000290
      f-1     :     0.000190
      f+2     :     0.000353
      f-2     :     0.000196
      f+3     :     0.000308
      f-3     :     0.000369
 22 H s       :     0.863102  s :     0.863102
      pz      :     0.009246  p :     0.040023
      px      :     0.009135
      py      :     0.021642
      dz2     :     0.000096  d :     0.001963
      dxz     :     0.000077
      dyz     :     0.000722
      dx2y2   :     0.000397
      dxy     :     0.000671
 23 H s       :     0.866768  s :     0.866768
      pz      :     0.020548  p :     0.038529
      px      :     0.007211
      py      :     0.010770
      dz2     :     0.000439  d :     0.001963
      dxz     :     0.000774
      dyz     :     0.000611
      dx2y2   :     0.000087
      dxy     :     0.000052
 24 H s       :     0.861967  s :     0.861967
      pz      :     0.010677  p :     0.040768
      px      :     0.016704
      py      :     0.013387
      dz2     :     0.000336  d :     0.001962
      dxz     :     0.000432
      dyz     :     0.000198
      dx2y2   :     0.000675
      dxy     :     0.000322


                     *******************************
                     * LOEWDIN POPULATION ANALYSIS *
                     *******************************

----------------------
LOEWDIN ATOMIC CHARGES
----------------------
   0 Mo:    0.386639
   1 C :   -0.268031
   2 C :   -0.268032
   3 C :   -0.268037
   4 O :    0.021563
   5 O :    0.021569
   6 O :    0.021568
   7 N :    0.071795
   8 N :    0.071797
   9 N :    0.071793
  10 C :   -0.110661
  11 C :   -0.110657
  12 C :   -0.110656
  13 C :    0.153715
  14 H :    0.001688
  15 H :   -0.001994
  16 H :    0.003040
  17 C :    0.153723
  18 H :    0.001686
  19 H :   -0.001996
  20 H :    0.003039
  21 C :    0.153712
  22 H :    0.001690
  23 H :   -0.001992
  24 H :    0.003042

-------------------------------
LOEWDIN REDUCED ORBITAL CHARGES
-------------------------------
  0 Mos       :     1.858345  s :     1.858345
      pz      :     2.146072  p :     6.424704
      px      :     2.139317
      py      :     2.139314
      dz2     :     1.143736  d :     4.971692
      dxz     :     0.863415
      dyz     :     0.863575
      dx2y2   :     1.050521
      dxy     :     1.050445
      f0      :     0.040758  f :     0.335227
      f+1     :     0.031699
      f-1     :     0.031657
      f+2     :     0.084108
      f-2     :     0.084128
      f+3     :     0.038514
      f-3     :     0.024363
      g0      :     0.002828  g :     0.023394
      g+1     :     0.001205
      g-1     :     0.001206
      g+2     :     0.003385
      g-2     :     0.003385
      g+3     :     0.005335
      g-3     :     0.003247
      g+4     :     0.001402
      g-4     :     0.001402
  1 C s       :     2.955668  s :     2.955668
      pz      :     0.793583  p :     2.324454
      px      :     0.657223
      py      :     0.873648
      dz2     :     0.202380  d :     0.904479
      dxz     :     0.118400
      dyz     :     0.211877
      dx2y2   :     0.179609
      dxy     :     0.192213
      f0      :     0.008174  f :     0.083431
      f+1     :     0.003432
      f-1     :     0.020958
      f+2     :     0.015967
      f-2     :     0.015753
      f+3     :     0.009272
      f-3     :     0.009875
  2 C s       :     2.955665  s :     2.955665
      pz      :     0.793632  p :     2.324454
      px      :     0.747601
      py      :     0.783221
      dz2     :     0.202413  d :     0.904483
      dxz     :     0.157464
      dyz     :     0.172834
      dx2y2   :     0.209480
      dxy     :     0.162293
      f0      :     0.008176  f :     0.083431
      f+1     :     0.010753
      f-1     :     0.013639
      f+2     :     0.015465
      f-2     :     0.016257
      f+3     :     0.009271
      f-3     :     0.009870
  3 C s       :     2.955659  s :     2.955659
      pz      :     0.793747  p :     2.324461
      px      :     0.891372
      py      :     0.639342
      dz2     :     0.202479  d :     0.904487
      dxz     :     0.219571
      dyz     :     0.110768
      dx2y2   :     0.168553
      dxy     :     0.203116
      f0      :     0.008182  f :     0.083431
      f+1     :     0.022407
      f-1     :     0.001988
      f+2     :     0.016151
      f-2     :     0.015576
      f+3     :     0.009263
      f-3     :     0.009864
  4 O s       :     3.409596  s :     3.409596
      pz      :     1.460892  p :     4.363381
      px      :     1.510289
      py      :     1.392199
      dz2     :     0.031851  d :     0.199633
      dxz     :     0.076909
      dyz     :     0.019015
      dx2y2   :     0.040215
      dxy     :     0.031643
      f0      :     0.000612  f :     0.005827
      f+1     :     0.001371
      f-1     :     0.000107
      f+2     :     0.001575
      f-2     :     0.000928
      f+3     :     0.000648
      f-3     :     0.000585
  5 O s       :     3.409598  s :     3.409598
      pz      :     1.460814  p :     4.363377
      px      :     1.400556
      py      :     1.502007
      dz2     :     0.031829  d :     0.199629
      dxz     :     0.023106
      dyz     :     0.072788
      dx2y2   :     0.037518
      dxy     :     0.034387
      f0      :     0.000612  f :     0.005827
      f+1     :     0.000196
      f-1     :     0.001281
      f+2     :     0.001370
      f-2     :     0.001134
      f+3     :     0.000649
      f-3     :     0.000586
  6 O s       :     3.409597  s :     3.409597
      pz      :     1.460839  p :     4.363377
      px      :     1.442944
      py      :     1.459594
      dz2     :     0.031835  d :     0.199630
      dxz     :     0.043859
      dyz     :     0.052045
      dx2y2   :     0.030087
      dxy     :     0.041804
      f0      :     0.000612  f :     0.005827
      f+1     :     0.000649
      f-1     :     0.000828
      f+2     :     0.000810
      f-2     :     0.001694
      f+3     :     0.000649
      f-3     :     0.000586
  7 N s       :     3.103486  s :     3.103486
      pz      :     1.092686  p :     3.313721
      px      :     1.095487
      py      :     1.125548
      dz2     :     0.108740  d :     0.495440
      dxz     :     0.092963
      dyz     :     0.100306
      dx2y2   :     0.100553
      dxy     :     0.092878
      f0      :     0.001505  f :     0.015559
      f+1     :     0.001777
      f-1     :     0.002264
      f+2     :     0.002356
      f-2     :     0.003854
      f+3     :     0.001927
      f-3     :     0.001877
  8 N s       :     3.103485  s :     3.103485
      pz      :     1.092640  p :     3.313720
      px      :     1.018618
      py      :     1.202461
      dz2     :     0.108721  d :     0.495440
      dxz     :     0.074238
      dyz     :     0.119019
      dx2y2   :     0.095830
      dxy     :     0.097632
      f0      :     0.001504  f :     0.015559
      f+1     :     0.000500
      f-1     :     0.003540
      f+2     :     0.003307
      f-2     :     0.002903
      f+3     :     0.001928
      f-3     :     0.001877
  9 N s       :     3.103488  s :     3.103488
      pz      :     1.092767  p :     3.313728
      px      :     1.217454
      py      :     1.003507
      dz2     :     0.108770  d :     0.495433
      dxz     :     0.122697
      dyz     :     0.070596
      dx2y2   :     0.093757
      dxy     :     0.099614
      f0      :     0.001505  f :     0.015559
      f+1     :     0.003786
      f-1     :     0.000256
      f+2     :     0.003652
      f-2     :     0.002559
      f+3     :     0.001926
      f-3     :     0.001875
 10 C s       :     2.733298  s :     2.733298
      pz      :     0.857116  p :     2.597264
      px      :     0.966653
      py      :     0.773495
      dz2     :     0.152506  d :     0.717876
      dxz     :     0.191133
      dyz     :     0.067964
      dx2y2   :     0.145326
      dxy     :     0.160949
      f0      :     0.005585  f :     0.062222
      f+1     :     0.016042
      f-1     :     0.000969
      f+2     :     0.012980
      f-2     :     0.010515
      f+3     :     0.007978
      f-3     :     0.008153
 11 C s       :     2.733297  s :     2.733297
      pz      :     0.857009  p :     2.597266
      px      :     0.786961
      py      :     0.953297
      dz2     :     0.152439  d :     0.717871
      dxz     :     0.077271
      dyz     :     0.181742
      dx2y2   :     0.143364
      dxy     :     0.163055
      f0      :     0.005582  f :     0.062223
      f+1     :     0.002113
      f-1     :     0.014894
      f+2     :     0.012169
      f-2     :     0.011318
      f+3     :     0.007985
      f-3     :     0.008162
 12 C s       :     2.733296  s :     2.733296
      pz      :     0.857048  p :     2.597267
      px      :     0.856718
      py      :     0.883501
      dz2     :     0.152454  d :     0.717871
      dxz     :     0.120169
      dyz     :     0.138885
      dx2y2   :     0.170858
      dxy     :     0.135505
      f0      :     0.005583  f :     0.062223
      f+1     :     0.007363
      f-1     :     0.009645
      f+2     :     0.010085
      f-2     :     0.013405
      f+3     :     0.007984
      f-3     :     0.008157
 13 C s       :     2.643058  s :     2.643058
      pz      :     0.915304  p :     2.736913
      px      :     0.913425
      py      :     0.908184
      dz2     :     0.110875  d :     0.434942
      dxz     :     0.059817
      dyz     :     0.075130
      dx2y2   :     0.117988
      dxy     :     0.071131
      f0      :     0.004316  f :     0.031372
      f+1     :     0.005081
      f-1     :     0.002841
      f+2     :     0.004379
      f-2     :     0.005927
      f+3     :     0.003766
      f-3     :     0.005062
 14 H s       :     0.693650  s :     0.693650
      pz      :     0.072496  p :     0.275449
      px      :     0.127368
      py      :     0.075584
      dz2     :     0.002689  d :     0.029213
      dxz     :     0.008799
      dyz     :     0.000678
      dx2y2   :     0.008310
      dxy     :     0.008736
 15 H s       :     0.696566  s :     0.696566
      pz      :     0.126576  p :     0.276221
      px      :     0.077427
      py      :     0.072218
      dz2     :     0.010116  d :     0.029207
      dxz     :     0.008651
      dyz     :     0.008735
      dx2y2   :     0.000961
      dxy     :     0.000744
 16 H s       :     0.692527  s :     0.692527
      pz      :     0.080330  p :     0.275212
      px      :     0.072415
      py      :     0.122468
      dz2     :     0.004535  d :     0.029221
      dxz     :     0.001220
      dyz     :     0.008410
      dx2y2   :     0.006918
      dxy     :     0.008138
 17 C s       :     2.643057  s :     2.643057
      pz      :     0.915307  p :     2.736907
      px      :     0.929091
      py      :     0.892509
      dz2     :     0.110932  d :     0.434941
      dxz     :     0.046095
      dyz     :     0.088758
      dx2y2   :     0.068589
      dxy     :     0.120568
      f0      :     0.004319  f :     0.031372
      f+1     :     0.002609
      f-1     :     0.005307
      f+2     :     0.006079
      f-2     :     0.004229
      f+3     :     0.003772
      f-3     :     0.005056
 18 H s       :     0.693653  s :     0.693653
      pz      :     0.072498  p :     0.275447
      px      :     0.103805
      py      :     0.099144
      dz2     :     0.002691  d :     0.029213
      dxz     :     0.004777
      dyz     :     0.004698
      dx2y2   :     0.009178
      dxy     :     0.007869
 19 H s       :     0.696570  s :     0.696570
      pz      :     0.126597  p :     0.276219
      px      :     0.076699
      py      :     0.072924
      dz2     :     0.010118  d :     0.029207
      dxz     :     0.008938
      dyz     :     0.008452
      dx2y2   :     0.000572
      dxy     :     0.001126
 20 H s       :     0.692528  s :     0.692528
      pz      :     0.080316  p :     0.275213
      px      :     0.115447
      py      :     0.079449
      dz2     :     0.004532  d :     0.029220
      dxz     :     0.006814
      dyz     :     0.002814
      dx2y2   :     0.007541
      dxy     :     0.007519
 21 C s       :     2.643060  s :     2.643060
      pz      :     0.915292  p :     2.736918
      px      :     0.889895
      py      :     0.931731
      dz2     :     0.110865  d :     0.434939
      dxz     :     0.096483
      dyz     :     0.038505
      dx2y2   :     0.097146
      dxy     :     0.091939
      f0      :     0.004314  f :     0.031372
      f+1     :     0.004190
      f-1     :     0.003735
      f+2     :     0.005003
      f-2     :     0.005302
      f+3     :     0.003766
      f-3     :     0.005060
 22 H s       :     0.693648  s :     0.693648
      pz      :     0.072494  p :     0.275449
      px      :     0.073214
      py      :     0.129741
      dz2     :     0.002689  d :     0.029213
      dxz     :     0.000632
      dyz     :     0.008845
      dx2y2   :     0.008083
      dxy     :     0.008964
 23 H s       :     0.696564  s :     0.696564
      pz      :     0.126565  p :     0.276221
      px      :     0.070329
      py      :     0.079327
      dz2     :     0.010115  d :     0.029207
      dxz     :     0.008491
      dyz     :     0.008893
      dx2y2   :     0.001023
      dxy     :     0.000685
 24 H s       :     0.692525  s :     0.692525
      pz      :     0.080326  p :     0.275213
      px      :     0.104512
      py      :     0.090375
      dz2     :     0.004534  d :     0.029221
      dxz     :     0.006417
      dyz     :     0.003213
      dx2y2   :     0.008125
      dxy     :     0.006932


                      *****************************
                      * MAYER POPULATION ANALYSIS *
                      *****************************

  NA   - Mulliken gross atomic population
  ZA   - Total nuclear charge
  QA   - Mulliken gross atomic charge
  VA   - Mayer's total valence
  BVA  - Mayer's bonded valence
  FA   - Mayer's free valence

  ATOM       NA         ZA         QA         VA         BVA        FA
  0 Mo    14.7366    14.0000    -0.7366     6.4725     6.4725    -0.0000
  1 C      5.6640     6.0000     0.3360     3.3609     3.3609     0.0000
  2 C      5.6641     6.0000     0.3359     3.3607     3.3607    -0.0000
  3 C      5.6642     6.0000     0.3358     3.3605     3.3605    -0.0000
  4 O      8.3154     8.0000    -0.3154     2.1582     2.1582    -0.0000
  5 O      8.3155     8.0000    -0.3155     2.1584     2.1584     0.0000
  6 O      8.3155     8.0000    -0.3155     2.1583     2.1583    -0.0000
  7 N      6.7970     7.0000     0.2030     3.1743     3.1743    -0.0000
  8 N      6.7969     7.0000     0.2031     3.1744     3.1744    -0.0000
  9 N      6.7967     7.0000     0.2033     3.1751     3.1751    -0.0000
 10 C      6.0205     6.0000    -0.0205     3.5147     3.5147    -0.0000
 11 C      6.0208     6.0000    -0.0208     3.5158     3.5158    -0.0000
 12 C      6.0202     6.0000    -0.0202     3.5144     3.5144    -0.0000
 13 C      6.2403     6.0000    -0.2403     3.7894     3.7894    -0.0000
 14 H      0.9052     1.0000     0.0948     1.0467     1.0467     0.0000
 15 H      0.9073     1.0000     0.0927     1.0434     1.0434    -0.0000
 16 H      0.9048     1.0000     0.0952     1.0485     1.0485     0.0000
 17 C      6.2395     6.0000    -0.2395     3.7893     3.7893    -0.0000
 18 H      0.9057     1.0000     0.0943     1.0470     1.0470     0.0000
 19 H      0.9075     1.0000     0.0925     1.0437     1.0437    -0.0000
 20 H      0.9046     1.0000     0.0954     1.0484     1.0484    -0.0000
 21 C      6.2408     6.0000    -0.2408     3.7890     3.7890    -0.0000
 22 H      0.9051     1.0000     0.0949     1.0468     1.0468    -0.0000
 23 H      0.9073     1.0000     0.0927     1.0436     1.0436    -0.0000
 24 H      0.9047     1.0000     0.0953     1.0485     1.0485    -0.0000

  Mayer bond orders larger than 0.100000
B(  0-Mo,  1-C ) :   1.4130 B(  0-Mo,  2-C ) :   1.4130 B(  0-Mo,  3-C ) :   1.4127 
B(  0-Mo,  7-N ) :   0.6150 B(  0-Mo,  8-N ) :   0.6149 B(  0-Mo,  9-N ) :   0.6153 
B(  1-C ,  5-O ) :   1.9992 B(  2-C ,  6-O ) :   1.9991 B(  3-C ,  4-O ) :   1.9991 
B(  7-N , 12-C ) :   2.7175 B(  8-N , 11-C ) :   2.7177 B(  9-N , 10-C ) :   2.7179 
B( 10-C , 21-C ) :   0.8022 B( 11-C , 17-C ) :   0.8029 B( 12-C , 13-C ) :   0.8022 
B( 13-C , 14-H ) :   1.0020 B( 13-C , 15-H ) :   0.9954 B( 13-C , 16-H ) :   1.0049 
B( 17-C , 18-H ) :   1.0019 B( 17-C , 19-H ) :   0.9954 B( 17-C , 20-H ) :   1.0046 
B( 21-C , 22-H ) :   1.0019 B( 21-C , 23-H ) :   0.9955 B( 21-C , 24-H ) :   1.0048 


-------
TIMINGS
-------

Total SCF time: 0 days 0 hours 5 min 52 sec 

Total time                  ....     352.478 sec
Sum of individual times     ....     351.357 sec  ( 99.7%)

Fock matrix formation       ....     345.065 sec  ( 97.9%)
  XC integration            ....       3.715 sec  (  1.1% of F)
    Basis function eval.    ....       0.607 sec  ( 16.4% of XC)
    Density eval.           ....       0.974 sec  ( 26.2% of XC)
    XC-Functional eval.     ....       0.087 sec  (  2.3% of XC)
    XC-Potential eval.      ....       1.110 sec  ( 29.9% of XC)
Diagonalization             ....       1.895 sec  (  0.5%)
Density matrix formation    ....       0.084 sec  (  0.0%)
Population analysis         ....       0.130 sec  (  0.0%)
Initial guess               ....       2.374 sec  (  0.7%)
Orbital Transformation      ....       0.000 sec  (  0.0%)
Orbital Orthonormalization  ....       0.000 sec  (  0.0%)
DIIS solution               ....       1.039 sec  (  0.3%)
Grid generation             ....       0.770 sec  (  0.2%)

-------------------------   --------------------
FINAL SINGLE POINT ENERGY      -806.616001603643
-------------------------   --------------------


                            ***************************************
                            *     ORCA property calculations      *
                            ***************************************

                                    ---------------------
                                    Active property flags
                                    ---------------------
   (+) Dipole Moment


------------------------------------------------------------------------------
                       ORCA ELECTRIC PROPERTIES CALCULATION
------------------------------------------------------------------------------

Dipole Moment Calculation                       ... on
Quadrupole Moment Calculation                   ... off
Polarizability Calculation                      ... off
GBWName                                         ... MOR36_pr37.gbw
Electron density file                           ... MOR36_pr37.scfp
The origin for moment calculation is the CENTER OF MASS  = ( 0.000037, -0.000023 -0.170139)

-------------
DIPOLE MOMENT
-------------
                                X             Y             Z
Electronic contribution:      0.00898      -0.00578     -40.16589
Nuclear contribution   :     -0.01011       0.00649      45.69854
                        -----------------------------------------
Total Dipole Moment    :     -0.00113       0.00072       5.53266
                        -----------------------------------------
Magnitude (a.u.)       :      5.53266
Magnitude (Debye)      :     14.06290



--------------------
Rotational spectrum 
--------------------
 
Rotational constants in cm-1:     0.011429     0.011429     0.011227 
Rotational constants in MHz :   342.640201   342.631727   336.586559 

 Dipole components along the rotational axes: 
x,y,z [a.u.] :     0.001934     0.001217     5.532657 
x,y,z [Debye]:     0.004916     0.003094    14.062896 

 

Timings for individual modules:

Sum of individual times         ...      355.881 sec (=   5.931 min)
GTO integral calculation        ...        2.998 sec (=   0.050 min)   0.8 %
SCF iterations                  ...      352.883 sec (=   5.881 min)  99.2 %
                             ****ORCA TERMINATED NORMALLY****
TOTAL RUN TIME: 0 days 0 hours 5 minutes 56 seconds 488 msec
