
                                 *****************
                                 * O   R   C   A *
                                 *****************

           --- An Ab Initio, DFT and Semiempirical electronic structure package ---

                  #######################################################
                  #                        -***-                        #
                  #          Department of theory and spectroscopy      #
                  #               Directorship: Frank Neese             #
                  #        Max Planck Institute fuer Kohlenforschung    #
                  #                Kaiser Wilhelm Platz 1               #
                  #                 D-45470 Muelheim/Ruhr               #
                  #                      Germany                        #
                  #                                                     #
                  #                  All rights reserved                #
                  #                        -***-                        #
                  #######################################################


                         Program Version 4.2.0 -  RELEASE  -


 With contributions from (in alphabetic order):
   Daniel Aravena         : Magnetic Suceptibility
   Michael Atanasov       : Ab Initio Ligand Field Theory (pilot matlab implementation)
   Alexander A. Auer      : GIAO ZORA, VPT2
   Ute Becker             : Parallelization
   Giovanni Bistoni       : ED, misc. LED, open-shell LED, HFLED
   Martin Brehm           : Molecular dynamics
   Dmytro Bykov           : SCF Hessian
   Vijay G. Chilkuri      : MRCI spin determinant printing, contributions to CSF-ICE
   Dipayan Datta          : RHF DLPNO-CCSD density
   Achintya Kumar Dutta   : EOM-CC, STEOM-CC
   Dmitry Ganyushin       : Spin-Orbit,Spin-Spin,Magnetic field MRCI
   Miquel Garcia          : C-PCM Hessian, Gaussian charge scheme
   Yang Guo               : DLPNO-NEVPT2, CIM, IAO-localization
   Andreas Hansen         : Spin unrestricted coupled pair/coupled cluster methods
   Benjamin Helmich-Paris : CASSCF linear response (MC-RPA)
   Lee Huntington         : MR-EOM, pCC
   Robert Izsak           : Overlap fitted RIJCOSX, COSX-SCS-MP3, EOM
   Christian Kollmar      : KDIIS, OOCD, Brueckner-CCSD(T), CCSD density
   Simone Kossmann        : Meta GGA functionals, TD-DFT gradient, OOMP2, MP2 Hessian
   Martin Krupicka        : AUTO-CI
   Lucas Lang             : DCDCAS
   Dagmar Lenk            : GEPOL surface, SMD
   Dimitrios Liakos       : Extrapolation schemes; Compound Job, initial MDCI parallelization
   Dimitrios Manganas     : Further ROCIS development; embedding schemes
   Dimitrios Pantazis     : SARC Basis sets
   Taras Petrenko         : DFT Hessian,TD-DFT gradient, ASA, ECA, R-Raman, ABS, FL, XAS/XES, NRVS
   Peter Pinski           : DLPNO-MP2, DLPNO-MP2 Gradient
   Christoph Reimann      : Effective Core Potentials
   Marius Retegan         : Local ZFS, SOC
   Christoph Riplinger    : Optimizer, TS searches, QM/MM, DLPNO-CCSD(T), (RO)-DLPNO pert. Triples
   Tobias Risthaus        : Range-separated hybrids, TD-DFT gradient, RPA, STAB
   Michael Roemelt        : Original ROCIS implementation
   Masaaki Saitow         : Open-shell DLPNO-CCSD energy and density
   Barbara Sandhoefer     : DKH picture change effects
   Avijit Sen             : IP-ROCIS
   Kantharuban Sivalingam : CASSCF convergence, NEVPT2, FIC-MRCI
   Bernardo de Souza      : ESD, SOC TD-DFT
   Georgi Stoychev        : AutoAux, RI-MP2 NMR
   Willem Van den Heuvel  : Paramagnetic NMR
   Boris Wezisla          : Elementary symmetry handling
   Frank Wennmohs         : Technical directorship


 We gratefully acknowledge several colleagues who have allowed us to
 interface, adapt or use parts of their codes:
   Stefan Grimme, W. Hujo, H. Kruse,             : VdW corrections, initial TS optimization,
                  C. Bannwarth                     DFT functionals, gCP, sTDA/sTD-DF
   Ed Valeev, F. Pavosevic, A. Kumar             : LibInt (2-el integral package), F12 methods
   Garnet Chan, S. Sharma, J. Yang, R. Olivares  : DMRG
   Ulf Ekstrom                                   : XCFun DFT Library
   Mihaly Kallay                                 : mrcc  (arbitrary order and MRCC methods)
   Andreas Klamt, Michael Diedenhofen            : otool_cosmo (COSMO solvation model)
   Jiri Pittner, Ondrej Demel                    : Mk-CCSD
   Frank Weinhold                                : gennbo (NPA and NBO analysis)
   Christopher J. Cramer and Donald G. Truhlar   : smd solvation model
   Lars Goerigk                                  : TD-DFT with DH, B97 family of functionals
   V. Asgeirsson, H. Jonsson                     : NEB implementation
   FAccTs GmbH                                   : IRC, NEB, NEB-TS, Multilevel, MM, QM/MM, CI optimization
   S Lehtola, MJT Oliveira, MAL Marques          : LibXC Library


 Your calculation uses the libint2 library for the computation of 2-el integrals
 For citations please refer to: http://libint.valeyev.net

 Your ORCA version has been built with support for libXC version: 4.2.3
 For citations please refer to: https://tddft.org/programs/libxc/

 This ORCA versions uses:
   CBLAS   interface :  Fast vector & matrix operations
   LAPACKE interface :  Fast linear algebra routines
   SCALAPACK package :  Parallel linear algebra routines


Your calculation utilizes the DFT-NL dispersion correction.
Cite in your paper:
Vydrov, O. A.; Van Voorhis, T. J. Chem. Phys. 2010, 133, 244103
Hujo, W.; Grimme, S. J. Chem. Theory Comput. 2011, 7, 3866 
   

----- Orbital basis set information -----
Your calculation utilizes the basis: def2-TZVPPD
   F. Weigend and R. Ahlrichs, Phys. Chem. Chem. Phys. 7, 3297 (2005).
   D. Rappoport and F. Furche, J. Chem. Phys. 133 134105 (2010).

----- AuxJK basis set information -----
Your calculation utilizes the auxiliary basis: def2/JK
   H-Ba, Hf-Rn: F. Weigend, J. Comput. Chem. 29, 167 (2008).

cite the ECPs for Ru [Def2-ECP] as follows:
Ce-Yb(ecp-28): M. Dolg, H. Stoll, H.Preuss, J. Chem. Phys., 1989, 90, 1730-1734.
Y-Cd(ecp-28), Hf-Hg(ecp-46): D. Andrae,U. Haeussermann, M. Dolg, H. Stoll, H. Preuss, Theor. Chim. Acta, 1990, 77, 123-141.
In-Sb(ecp-28), Tl-Bi(ecp-46): B. Metz, H. Stoll, M. Dolg, J. Chem. Phys., 2000, 113, 2563-2569.
Te-Xe(ecp-28), Po-Rn(ecp-46): K. A. Peterson, D. Figgen, E. Goll, H. Stoll, M. Dolg, J. Chem. Phys., 2003, 119, 11113-11123.
Rb(ecp-28), Cs(ecp-46): T. Leininger, A. Nicklass, W. Kuechle, H. Stoll, M. Dolg, A. Bergner, Chem. Phys. Lett., 1996, 255, 274-280.
Sr(ecp-28), Ba(ecp-46): M. Kaupp, P. V. Schleyer, H. Stoll and H. Preuss, J. Chem. Phys., 1991, 94, 1360-1366.
La(ecp-46): M. Dolg, H. Stoll, A. Savin, H. Preuss, Theor. Chim. Acta, 1989, 75, 173-194.
Lu(ecp-28): X. Cao, M. Dolg, J. Chem. Phys., 2001, 115, 7348-7355.

ECP parameters for Ru [Def2-ECP] have been obtained from:
TURBOMOLE (7.0.2)

================================================================================
                                        WARNINGS
                       Please study these warnings very carefully!
================================================================================


INFO   : the flag for use of LIBINT has been found!

================================================================================
                                       INPUT FILE
================================================================================
NAME = MOR33_pr28.in
|  1> #
|  2> # MOR33_pr28 wB97X-V/Def2-TZVPPD
|  3> #
|  4> ! wb97x-v def2-tzvppd def2/jk grid4 nofinalgrid
|  5> 
|  6> *xyz 0 1
|  7> C        1.962238    1.228976    0.498763 
|  8> C        1.599117    0.285883    1.541183 
|  9> C        2.190996   -0.926462   -0.368778 
| 10> C        2.300550    0.493131   -0.671789 
| 11> C        2.081248    2.713946    0.664976 
| 12> H        1.434728    3.080045    1.466376 
| 13> H        1.821015    3.245065   -0.254703 
| 14> H        3.112287    2.986784    0.927647 
| 15> C        2.741378    1.051608   -1.988266 
| 16> H        2.535990    2.123448   -2.051886 
| 17> H        2.213045    0.558789   -2.809947 
| 18> H        3.820515    0.902993   -2.128525 
| 19> C        2.527241   -2.035347   -1.317221 
| 20> H        3.613873   -2.134320   -1.446849 
| 21> H        2.080344   -1.846887   -2.298459 
| 22> H        2.144835   -2.993343   -0.953257 
| 23> C        1.716574   -2.315630    1.788054 
| 24> H        2.711935   -2.577282    2.171299 
| 25> H        1.368788   -3.152284    1.175589 
| 26> H        1.050088   -2.217418    2.648594 
| 27> C        1.340513    0.619038    2.979845 
| 28> H        2.276059    0.647386    3.557074 
| 29> H        0.683714   -0.121696    3.445256 
| 30> H        0.861589    1.596880    3.080055 
| 31> Ru       0.207249   -0.005545   -0.119227 
| 32> Cl      -0.429544   -0.245973   -2.480800 
| 33> P       -1.456891    1.528216    0.068580 
| 34> C       -1.650760    2.737817   -1.304822 
| 35> H       -1.703179    2.179367   -2.242601 
| 36> H       -0.763254    3.377318   -1.338338 
| 37> H       -2.542801    3.360896   -1.175052 
| 38> C       -1.549065    2.651656    1.528190 
| 39> H       -2.472379    3.241595    1.506577 
| 40> H       -0.697323    3.336564    1.527717 
| 41> H       -1.520496    2.059136    2.446687 
| 42> C       -3.144680    0.720288    0.161598 
| 43> H       -3.432756    0.709722    1.219807 
| 44> H       -3.887248    1.321720   -0.374189 
| 45> C        1.787636   -1.042026    1.001372 
| 46> P       -1.484414   -1.469966    0.216463 
| 47> H       -2.382409   -3.625079   -0.568542 
| 48> H       -0.624918   -3.689033   -0.270965 
| 49> H       -1.236340   -2.863867   -1.723131 
| 50> C       -3.065590   -0.710530   -0.380679 
| 51> C       -1.439182   -3.076884   -0.670420 
| 52> C       -1.931261   -2.000447    1.926464 
| 53> H       -2.988264   -0.701756   -1.472521 
| 54> H       -3.935017   -1.311110   -0.088429 
| 55> H       -1.104361   -2.563780    2.366010 
| 56> H       -2.827619   -2.630913    1.925421 
| 57> H       -2.109292   -1.117280    2.546403 
| 58> *
| 59> 
| 60> %maxcore 5000
| 61> 
| 62> %pal
| 63> nprocs = 24
| 64> end
| 65> 
| 66> 
| 67>                          ****END OF INPUT****
================================================================================

                       ****************************
                       * Single Point Calculation *
                       ****************************

---------------------------------
CARTESIAN COORDINATES (ANGSTROEM)
---------------------------------
  C      1.962238    1.228976    0.498763
  C      1.599117    0.285883    1.541183
  C      2.190996   -0.926462   -0.368778
  C      2.300550    0.493131   -0.671789
  C      2.081248    2.713946    0.664976
  H      1.434728    3.080045    1.466376
  H      1.821015    3.245065   -0.254703
  H      3.112287    2.986784    0.927647
  C      2.741378    1.051608   -1.988266
  H      2.535990    2.123448   -2.051886
  H      2.213045    0.558789   -2.809947
  H      3.820515    0.902993   -2.128525
  C      2.527241   -2.035347   -1.317221
  H      3.613873   -2.134320   -1.446849
  H      2.080344   -1.846887   -2.298459
  H      2.144835   -2.993343   -0.953257
  C      1.716574   -2.315630    1.788054
  H      2.711935   -2.577282    2.171299
  H      1.368788   -3.152284    1.175589
  H      1.050088   -2.217418    2.648594
  C      1.340513    0.619038    2.979845
  H      2.276059    0.647386    3.557074
  H      0.683714   -0.121696    3.445256
  H      0.861589    1.596880    3.080055
  Ru     0.207249   -0.005545   -0.119227
  Cl    -0.429544   -0.245973   -2.480800
  P     -1.456891    1.528216    0.068580
  C     -1.650760    2.737817   -1.304822
  H     -1.703179    2.179367   -2.242601
  H     -0.763254    3.377318   -1.338338
  H     -2.542801    3.360896   -1.175052
  C     -1.549065    2.651656    1.528190
  H     -2.472379    3.241595    1.506577
  H     -0.697323    3.336564    1.527717
  H     -1.520496    2.059136    2.446687
  C     -3.144680    0.720288    0.161598
  H     -3.432756    0.709722    1.219807
  H     -3.887248    1.321720   -0.374189
  C      1.787636   -1.042026    1.001372
  P     -1.484414   -1.469966    0.216463
  H     -2.382409   -3.625079   -0.568542
  H     -0.624918   -3.689033   -0.270965
  H     -1.236340   -2.863867   -1.723131
  C     -3.065590   -0.710530   -0.380679
  C     -1.439182   -3.076884   -0.670420
  C     -1.931261   -2.000447    1.926464
  H     -2.988264   -0.701756   -1.472521
  H     -3.935017   -1.311110   -0.088429
  H     -1.104361   -2.563780    2.366010
  H     -2.827619   -2.630913    1.925421
  H     -2.109292   -1.117280    2.546403

----------------------------
CARTESIAN COORDINATES (A.U.)
----------------------------
  NO LB      ZA    FRAG     MASS         X           Y           Z
   0 C     6.0000    0    12.011    3.708092    2.322428    0.942525
   1 C     6.0000    0    12.011    3.021893    0.540241    2.912414
   2 C     6.0000    0    12.011    4.140382   -1.750759   -0.696889
   3 C     6.0000    0    12.011    4.347409    0.931883   -1.269497
   4 C     6.0000    0    12.011    3.932989    5.128615    1.256623
   5 H     1.0000    0     1.008    2.711243    5.820442    2.771049
   6 H     1.0000    0     1.008    3.441220    6.132284   -0.481319
   7 H     1.0000    0     1.008    5.881370    5.644204    1.752999
   8 C     6.0000    0    12.011    5.180454    1.987251   -3.757278
   9 H     1.0000    0     1.008    4.792327    4.012735   -3.877503
  10 H     1.0000    0     1.008    4.182049    1.055958   -5.310030
  11 H     1.0000    0     1.008    7.219727    1.706409   -4.022329
  12 C     6.0000    0    12.011    4.775793   -3.846248   -2.489187
  13 H     1.0000    0     1.008    6.829230   -4.033280   -2.734148
  14 H     1.0000    0     1.008    3.931280   -3.490111   -4.343458
  15 H     1.0000    0     1.008    4.053151   -5.656598   -1.801395
  16 C     6.0000    0    12.011    3.243855   -4.375907    3.378932
  17 H     1.0000    0     1.008    5.124814   -4.870357    4.103160
  18 H     1.0000    0     1.008    2.586634   -5.956953    2.221541
  19 H     1.0000    0     1.008    1.984379   -4.190313    5.005117
  20 C     6.0000    0    12.011    2.533202    1.169812    5.631091
  21 H     1.0000    0     1.008    4.301128    1.223382    6.721896
  22 H     1.0000    0     1.008    1.292032   -0.229972    6.510590
  23 H     1.0000    0     1.008    1.628167    3.017666    5.820460
  24 Ru   16.0000*   0   101.070    0.391644   -0.010479   -0.225306
  25 Cl   17.0000    0    35.453   -0.811721   -0.464822   -4.688033
  26 P    15.0000    0    30.974   -2.753125    2.887910    0.129597
  27 C     6.0000    0    12.011   -3.119484    5.173724   -2.465756
  28 H     1.0000    0     1.008   -3.218542    4.118407   -4.237902
  29 H     1.0000    0     1.008   -1.442341    6.382206   -2.529092
  30 H     1.0000    0     1.008   -4.805198    6.351173   -2.220526
  31 C     6.0000    0    12.011   -2.927309    5.010904    2.887861
  32 H     1.0000    0     1.008   -4.672119    6.125727    2.847018
  33 H     1.0000    0     1.008   -1.317749    6.305192    2.886967
  34 H     1.0000    0     1.008   -2.873321    3.891203    4.623568
  35 C     6.0000    0    12.011   -5.942584    1.361147    0.305376
  36 H     1.0000    0     1.008   -6.486969    1.341180    2.305101
  37 H     1.0000    0     1.008   -7.345834    2.497689   -0.707115
  38 C     6.0000    0    12.011    3.378142   -1.969144    1.892319
  39 P    15.0000    0    30.974   -2.805136   -2.777833    0.409056
  40 H     1.0000    0     1.008   -4.502101   -6.850407   -1.074389
  41 H     1.0000    0     1.008   -1.180924   -6.971262   -0.512050
  42 H     1.0000    0     1.008   -2.336344   -5.411924   -3.256246
  43 C     6.0000    0    12.011   -5.793126   -1.342707   -0.719379
  44 C     6.0000    0    12.011   -2.719660   -5.814468   -1.266910
  45 C     6.0000    0    12.011   -3.649554   -3.780297    3.640489
  46 H     1.0000    0     1.008   -5.647001   -1.326127   -2.782661
  47 H     1.0000    0     1.008   -7.436104   -2.477639   -0.167107
  48 H     1.0000    0     1.008   -2.086940   -4.844842    4.471111
  49 H     1.0000    0     1.008   -5.343426   -4.971705    3.638518
  50 H     1.0000    0     1.008   -3.985984   -2.111353    4.812004
* core charge reduced due to ECP

--------------------------------
INTERNAL COORDINATES (ANGSTROEM)
--------------------------------
 C      0   0   0     0.000000000000     0.00000000     0.00000000
 C      1   0   0     1.451868011801     0.00000000     0.00000000
 C      1   2   0     2.334709956523    72.03736279     0.00000000
 C      1   2   3     1.423416614373   108.30536822     0.99186863
 C      1   2   3     1.498974997246   125.71450130   186.10012122
 H      5   1   2     1.092821370674   111.48258670   332.58094546
 H      5   1   2     1.093443217314   111.65604889   211.34949665
 H      5   1   2     1.098397946104   110.31113232    91.63995104
 C      4   1   2     1.496441638235   126.90870027   180.30660317
 H      9   4   1     1.093193816550   111.20862433   345.26169298
 H      9   4   1     1.094150808349   110.50695045   225.46399737
 H      9   4   1     1.098314922996   110.56608239   105.29897135
 C      3   1   2     1.497408016373   160.22580427   185.92263169
 H     13   3   1     1.098803065402   111.31462369    67.98044898
 H     13   3   1     1.094560237197   110.40336559   307.70245955
 H     13   3   1     1.093828358632   111.05819004   188.13377531
 C      3   1   2     2.608982223499    99.58829371   354.42630464
 H     17   3   1     1.098217655772   104.50942137   261.72676816
 H     17   3   1     1.093644546339    90.12582841   153.55385774
 H     17   3   1     1.092876148857   135.56069201    36.60110030
 C      2   1   3     1.499205333864   125.99989216   170.90422616
 H     21   2   1     1.099655966956   111.26591449   275.00922079
 H     21   2   1     1.093928326755   111.18381507   154.89277572
 H     21   2   1     1.093428195557   111.23717134    34.89837035
 Ru     2   1   3     2.186135443358    72.57285429   298.65886170
 Cl    25   2   1     2.457709906063   155.20490977    43.61862651
 P     25   2   1     2.270915281108   108.28324077   276.47132528
 C     27  25   2     1.840367577949   117.34763191   118.47708974
 H     28  27  25     1.092723023873   108.03509549    51.72126822
 H     28  27  25     1.094418453469   108.75271875   294.57753028
 H     28  27  25     1.095812410416   111.78326537   173.73350828
 C     27  25   2     1.844200323169   120.89810995   354.95778148
 H     32  27  25     1.095903229344   110.75833146   186.42516683
 H     32  27  25     1.092960944754   110.02617034    66.32527867
 H     32  27  25     1.093404260633   109.47728610   307.00366933
 C     27  25   2     1.873507862281   111.90163552   237.27065555
 H     36  27  25     1.096770582124   106.77890217   100.25074135
 H     36  27  25     1.095534296413   110.46271035   216.73657598
 C      3   1   2     1.432956855665    72.03576268   358.16785475
 P     25   2   1     2.262507535216   116.72027651   185.25356619
 H     40  25   2     2.463156493774   142.33635759   244.51048388
 H     41  40  25     1.783652656805    67.60297736    46.74138329
 H     42  41  40     1.778629214085    60.55642386   284.94816856
 C     36  27  25     1.532174834003   109.79380307   340.73630087
 C     43  42  41     1.093033196556    35.61449590    35.11756263
 C     40  25   2     1.845314540335   120.30588536    16.80375395
 H     44  36  27     1.094611915848   110.43789331   285.44929129
 H     44  36  27     1.096362032920   112.10327020   163.63392148
 H     46  40  25     1.092844163184   109.73511792   294.95209917
 H     46  40  25     1.095876876829   111.25807992   174.45767310
 H     46  40  25     1.093619381033   109.42470283    53.46592860

---------------------------
INTERNAL COORDINATES (A.U.)
---------------------------
 C      0   0   0     0.000000000000     0.00000000     0.00000000
 C      1   0   0     2.743632924904     0.00000000     0.00000000
 C      1   2   0     4.411962419968    72.03736279     0.00000000
 C      1   2   3     2.689867575638   108.30536822     0.99186863
 C      1   2   3     2.832652226391   125.71450130   186.10012122
 H      5   1   2     2.065133103870   111.48258670   332.58094546
 H      5   1   2     2.066308223718   111.65604889   211.34949665
 H      5   1   2     2.075671304199   110.31113232    91.63995104
 C      4   1   2     2.827864871660   126.90870027   180.30660317
 H      9   4   1     2.065836924576   111.20862433   345.26169298
 H      9   4   1     2.067645376988   110.50695045   225.46399737
 H      9   4   1     2.075514413261   110.56608239   105.29897135
 C      3   1   2     2.829691061684   160.22580427   185.92263169
 H     13   3   1     2.076436868723   111.31462369    67.98044898
 H     13   3   1     2.068419085382   110.40336559   307.70245955
 H     13   3   1     2.067036035331   111.05819004   188.13377531
 C      3   1   2     4.930261890681    99.58829371   354.42630464
 H     17   3   1     2.075330604847   104.50942137   261.72676816
 H     17   3   1     2.066688680437    90.12582841   153.55385774
 H     17   3   1     2.065236619634   135.56069201    36.60110030
 C      2   1   3     2.833087499516   125.99989216   170.90422616
 H     21   2   1     2.078048619078   111.26591449   275.00922079
 H     21   2   1     2.067224947707   111.18381507   154.89277572
 H     21   2   1     2.066279836711   111.23717134    34.89837035
 Ru     2   1   3     4.131197279606    72.57285429   298.65886170
 Cl    25   2   1     4.644398639085   155.20490977    43.61862651
 P     25   2   1     4.291407954631   108.28324077   276.47132528
 C     27  25   2     3.477790708072   117.34763191   118.47708974
 H     28  27  25     2.064947255350   108.03509549    51.72126822
 H     28  27  25     2.068151152966   108.75271875   294.57753028
 H     28  27  25     2.070785349839   111.78326537   173.73350828
 C     27  25   2     3.485033546878   120.89810995   354.95778148
 H     32  27  25     2.070956972740   110.75833146   186.42516683
 H     32  27  25     2.065396860656   110.02617034    66.32527867
 H     32  27  25     2.066234606259   109.47728610   307.00366933
 C     27  25   2     3.540416769459   111.90163552   237.27065555
 H     36  27  25     2.072596031956   106.77890217   100.25074135
 H     36  27  25     2.070259790539   110.46271035   216.73657598
 C      3   1   2     2.707896018931    72.03576268   358.16785475
 P     25   2   1     4.275519617492   116.72027651   185.25356619
 H     40  25   2     4.654691198222   142.33635759   244.51048388
 H     41  40  25     3.370615039402    67.60297736    46.74138329
 H     42  41  40     3.361122108412    60.55642386   284.94816856
 C     36  27  25     2.895390825552   109.79380307   340.73630087
 C     43  42  41     2.065533396776    35.61449590    35.11756263
 C     40  25   2     3.487139112176   120.30588536    16.80375395
 H     44  36  27     2.068516743879   110.43789331   285.44929129
 H     44  36  27     2.071823985848   112.10327020   163.63392148
 H     46  40  25     2.065176175472   109.73511792   294.95209917
 H     46  40  25     2.070907173704   111.25807992   174.45767310
 H     46  40  25     2.066641124901   109.42470283    53.46592860

---------------------
BASIS SET INFORMATION
---------------------
There are 5 groups of distinct atoms

 Group   1 Type C   : 12s6p3d1f contracted to 6s3p3d1f pattern {621111/411/111/1}
 Group   2 Type H   : 5s3p1d contracted to 3s3p1d pattern {311/111/1}
 Group   3 Type Ru  : 7s7p5d2f1g contracted to 6s4p3d2f1g pattern {211111/4111/311/11/1}
 Group   4 Type Cl  : 15s10p4d1f contracted to 6s6p4d1f pattern {732111/511111/1111/1}
 Group   5 Type P   : 15s9p4d1f contracted to 6s5p4d1f pattern {732111/51111/1111/1}

Atom   0C    basis set group =>   1
Atom   1C    basis set group =>   1
Atom   2C    basis set group =>   1
Atom   3C    basis set group =>   1
Atom   4C    basis set group =>   1
Atom   5H    basis set group =>   2
Atom   6H    basis set group =>   2
Atom   7H    basis set group =>   2
Atom   8C    basis set group =>   1
Atom   9H    basis set group =>   2
Atom  10H    basis set group =>   2
Atom  11H    basis set group =>   2
Atom  12C    basis set group =>   1
Atom  13H    basis set group =>   2
Atom  14H    basis set group =>   2
Atom  15H    basis set group =>   2
Atom  16C    basis set group =>   1
Atom  17H    basis set group =>   2
Atom  18H    basis set group =>   2
Atom  19H    basis set group =>   2
Atom  20C    basis set group =>   1
Atom  21H    basis set group =>   2
Atom  22H    basis set group =>   2
Atom  23H    basis set group =>   2
Atom  24Ru   basis set group =>   3
Atom  25Cl   basis set group =>   4
Atom  26P    basis set group =>   5
Atom  27C    basis set group =>   1
Atom  28H    basis set group =>   2
Atom  29H    basis set group =>   2
Atom  30H    basis set group =>   2
Atom  31C    basis set group =>   1
Atom  32H    basis set group =>   2
Atom  33H    basis set group =>   2
Atom  34H    basis set group =>   2
Atom  35C    basis set group =>   1
Atom  36H    basis set group =>   2
Atom  37H    basis set group =>   2
Atom  38C    basis set group =>   1
Atom  39P    basis set group =>   5
Atom  40H    basis set group =>   2
Atom  41H    basis set group =>   2
Atom  42H    basis set group =>   2
Atom  43C    basis set group =>   1
Atom  44C    basis set group =>   1
Atom  45C    basis set group =>   1
Atom  46H    basis set group =>   2
Atom  47H    basis set group =>   2
Atom  48H    basis set group =>   2
Atom  49H    basis set group =>   2
Atom  50H    basis set group =>   2
----------------------------------
AUXILIARY/JK BASIS SET INFORMATION
----------------------------------
There are 5 groups of distinct atoms

 Group   1 Type C   : 14s10p6d2f1g contracted to 10s8p5d1f1g pattern {5111111111/31111111/21111/2/1}
 Group   2 Type H   : 4s2p2d contracted to 2s2p2d pattern {31/11/11}
 Group   3 Type Ru  : 13s12p10d9f6g3h2i contracted to 11s10p9d8f6g3h2i pattern {31111111111/3111111111/211111111/21111111/111111/111/11}
 Group   4 Type Cl  : 16s12p10d4f1g contracted to 13s11p9d4f1g pattern {4111111111111/21111111111/211111111/1111/1}
 Group   5 Type P   : 16s12p10d4f1g contracted to 13s11p9d4f1g pattern {4111111111111/21111111111/211111111/1111/1}

Atom   0C    basis set group =>   1
Atom   1C    basis set group =>   1
Atom   2C    basis set group =>   1
Atom   3C    basis set group =>   1
Atom   4C    basis set group =>   1
Atom   5H    basis set group =>   2
Atom   6H    basis set group =>   2
Atom   7H    basis set group =>   2
Atom   8C    basis set group =>   1
Atom   9H    basis set group =>   2
Atom  10H    basis set group =>   2
Atom  11H    basis set group =>   2
Atom  12C    basis set group =>   1
Atom  13H    basis set group =>   2
Atom  14H    basis set group =>   2
Atom  15H    basis set group =>   2
Atom  16C    basis set group =>   1
Atom  17H    basis set group =>   2
Atom  18H    basis set group =>   2
Atom  19H    basis set group =>   2
Atom  20C    basis set group =>   1
Atom  21H    basis set group =>   2
Atom  22H    basis set group =>   2
Atom  23H    basis set group =>   2
Atom  24Ru   basis set group =>   3
Atom  25Cl   basis set group =>   4
Atom  26P    basis set group =>   5
Atom  27C    basis set group =>   1
Atom  28H    basis set group =>   2
Atom  29H    basis set group =>   2
Atom  30H    basis set group =>   2
Atom  31C    basis set group =>   1
Atom  32H    basis set group =>   2
Atom  33H    basis set group =>   2
Atom  34H    basis set group =>   2
Atom  35C    basis set group =>   1
Atom  36H    basis set group =>   2
Atom  37H    basis set group =>   2
Atom  38C    basis set group =>   1
Atom  39P    basis set group =>   5
Atom  40H    basis set group =>   2
Atom  41H    basis set group =>   2
Atom  42H    basis set group =>   2
Atom  43C    basis set group =>   1
Atom  44C    basis set group =>   1
Atom  45C    basis set group =>   1
Atom  46H    basis set group =>   2
Atom  47H    basis set group =>   2
Atom  48H    basis set group =>   2
Atom  49H    basis set group =>   2
Atom  50H    basis set group =>   2
-------------------------
ECP PARAMETER INFORMATION
-------------------------

 Group 1, Type Ru ECP Def2-ECP (replacing 28 core electrons, lmax=3)

Atom  24Ru   ECP group =>   1



           ************************************************************
           *        Program running with 24 parallel MPI-processes    *
           *              working on a common directory               *
           ************************************************************
------------------------------------------------------------------------------
                           ORCA GTO INTEGRAL CALCULATION
------------------------------------------------------------------------------

                         BASIS SET STATISTICS AND STARTUP INFO

 # of primitive gaussian shells          ...  741
 # of primitive gaussian functions       ... 1707
 # of contracted shells                  ...  490
 # of contracted basis functions         ... 1322
 Highest angular momentum                ...    4
 Maximum contraction depth               ...    7
 Integral package used                   ... LIBINT
 Integral threshhold            Thresh   ...  1.000e-10
 Primitive cut-off              TCut     ...  1.000e-11


------------------------------ INTEGRAL EVALUATION ----------------------------


 * One electron integrals 

   ECP integrals                         ... done
 Pre-screening matrix                    ... done
 Shell pair data                         ... done (   0.028 sec)



           ************************************************************
           *        Program running with 24 parallel MPI-processes    *
           *              working on a common directory               *
           ************************************************************
-------------------------------------------------------------------------------
                                 ORCA SCF
-------------------------------------------------------------------------------

------------
SCF SETTINGS
------------
Hamiltonian:
 Density Functional     Method          .... DFT(GTOs)
 Exchange Functional    Exchange        .... WB97X-V
 Correlation Functional Correlation     .... WB97X-V
 Gradients option       PostSCFGGA      .... off
 Hybrid DFT is turned on
   Fraction HF Exchange ScalHFX         ....  0.167000
   Scaling of DF-GGA-X  ScalDFX         ....  0.000000
   Scaling of DF-GGA-C  ScalDFC         ....  1.000000
   Scaling of DF-LDA-C  ScalLDAC        ....  1.000000
   Perturbative correction              ....  0.000000
   Density functional embedding theory  .... OFF
 Long-range corrected/Screened/Range-Separated Hybrid DFT is turned on
   Amount of maximum screened exact exchange              ....  0.833000
   Range separation parameter mu (erf(mu*r12)/r12)        ....  0.300000
   NL short-range parameter             ....  6.000000
   NL long-range parameter              ....  0.010000


General Settings:
 Integral files         IntName         .... MOR33_pr28
 Hartree-Fock type      HFTyp           .... RHF
 Total Charge           Charge          ....    0
 Multiplicity           Mult            ....    1
 Number of Electrons    NEL             ....  190
 Basis Dimension        Dim             .... 1322
 Nuclear Repulsion      ENuc            ....   2632.2381876203 Eh

Convergence Acceleration:
 DIIS                   CNVDIIS         .... on
   Start iteration      DIISMaxIt       ....    12
   Startup error        DIISStart       ....  0.200000
   # of expansion vecs  DIISMaxEq       ....     5
   Bias factor          DIISBfac        ....   1.050
   Max. coefficient     DIISMaxC        ....  10.000
 Newton-Raphson         CNVNR           .... off
 SOSCF                  CNVSOSCF        .... off
 Level Shifting         CNVShift        .... on
   Level shift para.    LevelShift      ....    0.2500
   Turn off err/grad.   ShiftErr        ....    0.0010
 Zerner damping         CNVZerner       .... off
 Static damping         CNVDamp         .... on
   Fraction old density DampFac         ....    0.7000
   Max. Damping (<1)    DampMax         ....    0.9800
   Min. Damping (>=0)   DampMin         ....    0.0000
   Turn off err/grad.   DampErr         ....    0.1000
 Fernandez-Rico         CNVRico         .... off

SCF Procedure:
 Maximum # iterations   MaxIter         ....   125
 SCF integral mode      SCFMode         .... Direct
   Integral package                     .... LIBINT
 Reset frequency        DirectResetFreq ....    20
 Integral Threshold     Thresh          ....  1.000e-10 Eh
 Primitive CutOff       TCut            ....  1.000e-11 Eh

Convergence Tolerance:
 Convergence Check Mode ConvCheckMode   .... Total+1el-Energy
 Convergence forced     ConvForced      .... 0
 Energy Change          TolE            ....  1.000e-06 Eh
 1-El. energy change                    ....  1.000e-03 Eh
 DIIS Error             TolErr          ....  1.000e-06


Diagonalization of the overlap matrix:
Smallest eigenvalue                        ... 1.665e-07
Time for diagonalization                   ...    0.253 sec
Threshold for overlap eigenvalues          ... 1.000e-08
Number of eigenvalues below threshold      ... 0
Time for construction of square roots      ...    0.202 sec
Total time needed                          ...    0.462 sec

-------------------
DFT GRID GENERATION
-------------------

General Integration Accuracy     IntAcc      ...  4.670
Radial Grid Type                 RadialGrid  ... Gauss-Chebyshev
Angular Grid (max. acc.)         AngularGrid ... Lebedev-302
Angular grid pruning method      GridPruning ... 3 (G Style)
Weight generation scheme         WeightScheme... Becke
Basis function cutoff            BFCut       ...    1.0000e-10
Integration weight cutoff        WCut        ...    1.0000e-14
Grids for H and He will be reduced by one unit

# of grid points (after initial pruning)     ... 235550 (   0.0 sec)
# of grid points (after weights+screening)   ... 198938 (   0.3 sec)
nearest neighbour list constructed           ...    0.0 sec
Grid point re-assignment to atoms done       ...    0.0 sec
Grid point division into batches done        ...    0.5 sec
Reduced shell lists constructed in    0.8 sec

Total number of grid points                  ...   198938
Total number of batches                      ...     3133
Average number of points per batch           ...       63
Average number of grid points per atom       ...     3901
Average number of shells per batch           ...   291.39 (59.47%)
Average number of basis functions per batch  ...   781.57 (59.12%)
Average number of large shells per batch     ...   217.43 (74.62%)
Average number of large basis fcns per batch ...   586.87 (75.09%)
Maximum spatial batch extension              ...   5.52,  3.39,  3.31 au
Average spatial batch extension              ...   0.05,  0.05,  0.05 au

Time for grid setup =    1.281 sec

------------------------------
INITIAL GUESS: MODEL POTENTIAL
------------------------------
Loading Hartree-Fock densities                     ... done
  calling /sw/apps/orca/orca_4_2_0_linux_x86-64_openmpi314/orca MOR33_pr28_atom44.inp > MOR33_pr28_atom44.out in order to generate an atomic fitting density for atom 24 (Ru with ECP) on-the-fly... 
    atom 24 (Ru), assumed electronic state with S=5: 1s2 2s2 2p6 3s2 3p6 4s2 3d10 4p6 5s2 4d6           ... done
Calculating cut-offs                               ... done
Setting up the integral package                    ... done
Initializing the effective Hamiltonian             ... done
Starting the Coulomb interaction                   ... done (   0.3 sec)
Reading the grid                                   ... done
Mapping shells                                     ... done
Starting the XC term evaluation                    ... done (   1.1 sec)
  promolecular density results
     # of electrons  =    217.983829442
     EX              =   -214.618734643
     EC              =    -10.535330847
     EX+EC           =   -225.154065490
Transforming the Hamiltonian                       ... done (   0.1 sec)
Diagonalizing the Hamiltonian                      ... done (   0.2 sec)
Back transforming the eigenvectors                 ... done (   0.1 sec)
Now organizing SCF variables                       ... done
                      ------------------
                      INITIAL GUESS DONE (   4.4 sec)
                      ------------------
--------------
SCF ITERATIONS
--------------
ITER       Energy         Delta-E        Max-DP      RMS-DP      [F,P]     Damp
               ***  Starting incremental Fock matrix formation  ***
  0  -1866.2981503659   0.000000000000 1.38114701  0.00576208  0.4328176 0.7000
  1  -1866.6103395780  -0.312189212118 1.14457544  0.00389027  0.2558811 0.7000
  2  -1866.7097564386  -0.099416860605 0.87768950  0.00290455  0.2001476 0.7000
                               ***Turning on DIIS***
  3  -1866.7904588460  -0.080702407400 0.69273818  0.00224373  0.1406464 0.7000
  4  -1866.8488571603  -0.058398314352 1.77695100  0.00614822  0.0952283 0.0000
  5  -1866.9863727360  -0.137515575656 0.19124346  0.00086066  0.0221806 0.0000
  6  -1866.9878462805  -0.001473544530 0.23801557  0.00062041  0.0208112 0.0000
  7  -1866.9889961797  -0.001149899205 0.33173601  0.00136770  0.0043324 0.0000
  8  -1866.9893344230  -0.000338243266 0.20567031  0.00078011  0.0018536 0.0000
  9  -1866.9894351601  -0.000100737064 0.42929671  0.00099684  0.0009369 0.0000
 10  -1866.9894699393  -0.000034779244 0.19530369  0.00055958  0.0003438 0.0000
 11  -1866.9894722379  -0.000002298565 0.25642703  0.00077800  0.0001896 0.0000
 12  -1866.9894730815  -0.000000843659 0.30360339  0.00073459  0.0001303 0.0000
 13  -1866.9894733128  -0.000000231259 0.15592530  0.00048441  0.0001322 0.0000
 14  -1866.9894734389  -0.000000126133 0.21546173  0.00046359  0.0000605 0.0000
                 **** Energy Check signals convergence ****

               *****************************************************
               *                     SUCCESS                       *
               *           SCF CONVERGED AFTER  15 CYCLES          *
               *****************************************************


Setting up the DFT-NL grid :

General Integration Accuracy     IntAcc      ...  4.340
Radial Grid Type                 RadialGrid  ... Gauss-Chebyshev
Angular Grid (max. acc.)         AngularGrid ... Lebedev-110
Angular grid pruning method      GridPruning ... 3 (G Style)
Weight generation scheme         WeightScheme... Becke
Basis function cutoff            BFCut       ...    1.0000e-10
Integration weight cutoff        WCut        ...    1.0000e-14
Grids for H and He will be reduced by one unit

# of grid points (after initial pruning)     ...  59846 (   0.0 sec)
# of grid points (after weights+screening)   ...  51779 (   0.1 sec)
nearest neighbour list constructed           ...    0.0 sec
Grid point re-assignment to atoms done       ...    0.0 sec
Grid point division into batches done        ...    0.0 sec
Reduced shell lists constructed in    0.1 sec

Total number of grid points                  ...    51779
Total number of batches                      ...      835
Average number of points per batch           ...       62
Average number of grid points per atom       ...     1015
Average number of shells per batch           ...   295.83 (60.37%)
Average number of basis functions per batch  ...   796.67 (60.26%)
Average number of large shells per batch     ...   223.78 (75.64%)
Average number of large basis fcns per batch ...   606.33 (76.11%)
Maximum spatial batch extension              ...   4.65,  2.88,  3.59 au
Average spatial batch extension              ...   0.08,  0.07,  0.07 au

Final grid set up in    0.2 sec

-------------------------------------------------------------------------------
                         DFT-NL dispersion correction                          
-------------------------------------------------------------------------------

SC Energy -1866.989473445 
NL    Energy 0.681063991 
SC+NL Energy -1866.308409454 
NL done in    0.8 sec
-------------------------------------------------------------------------------

----------------
TOTAL SCF ENERGY
----------------

Total Energy       :        -1866.30840945 Eh          -50784.83367 eV

Components:
Nuclear Repulsion  :         2632.23818762 Eh           71626.84252 eV
Electronic Energy  :        -4498.54659707 Eh         -122411.67620 eV
One Electron Energy:        -7838.11410305 Eh         -213285.92799 eV
Two Electron Energy:         3339.56750598 Eh           90874.25180 eV

Virial components:
Potential Energy   :        -3666.52714562 Eh          -99771.27591 eV
Kinetic Energy     :         1800.21873616 Eh           48986.44223 eV
Virial Ratio       :            2.03671202


DFT components:
N(Alpha)           :       94.999695189996 electrons
N(Beta)            :       94.999695189996 electrons
N(Total)           :      189.999390379992 electrons
E(X)               :     -121.600854141777 Eh       
E(C)               :       -8.288547711177 Eh       
NL Energy, E(C,NL) :        0.681063990621 Eh       
E(XC)              :     -129.208337862333 Eh       
DFET-embed. en.    :        0.000000000000 Eh       

---------------
SCF CONVERGENCE
---------------

  Last Energy change         ...   -5.8262e-09  Tolerance :   1.0000e-06
  Last MAX-Density change    ...    3.1625e-01  Tolerance :   1.0000e-05
  Last RMS-Density change    ...    6.5576e-04  Tolerance :   1.0000e-06
  Last DIIS Error            ...    2.8457e-05  Tolerance :   1.0000e-06

             **** THE GBW FILE WAS UPDATED (MOR33_pr28.gbw) ****
             **** DENSITY FILE WAS UPDATED (MOR33_pr28.scfp) ****
             **** ENERGY FILE WAS UPDATED (MOR33_pr28.en.tmp) ****
             **** THE GBW FILE WAS UPDATED (MOR33_pr28.gbw) ****
             **** DENSITY FILE WAS UPDATED (MOR33_pr28.scfp) ****
----------------
ORBITAL ENERGIES
----------------

  NO   OCC          E(Eh)            E(eV) 
   0   2.0000    -101.414401     -2759.6261 
   1   2.0000     -77.088949     -2097.6970 
   2   2.0000     -77.088125     -2097.6745 
   3   2.0000     -10.288738      -279.9708 
   4   2.0000     -10.285137      -279.8728 
   5   2.0000     -10.281023      -279.7609 
   6   2.0000     -10.280146      -279.7370 
   7   2.0000     -10.279063      -279.7075 
   8   2.0000     -10.274365      -279.5797 
   9   2.0000     -10.274214      -279.5756 
  10   2.0000     -10.273811      -279.5646 
  11   2.0000     -10.273693      -279.5614 
  12   2.0000     -10.272109      -279.5183 
  13   2.0000     -10.270204      -279.4665 
  14   2.0000     -10.269149      -279.4377 
  15   2.0000     -10.263827      -279.2929 
  16   2.0000     -10.260384      -279.1992 
  17   2.0000     -10.254945      -279.0512 
  18   2.0000     -10.252330      -278.9801 
  19   2.0000      -9.454179      -257.2613 
  20   2.0000      -7.205864      -196.0815 
  21   2.0000      -7.201871      -195.9729 
  22   2.0000      -7.201728      -195.9690 
  23   2.0000      -6.666898      -181.4155 
  24   2.0000      -6.666403      -181.4021 
  25   2.0000      -4.820946      -131.1846 
  26   2.0000      -4.820433      -131.1706 
  27   2.0000      -4.820357      -131.1686 
  28   2.0000      -4.819941      -131.1573 
  29   2.0000      -4.816776      -131.0711 
  30   2.0000      -4.816320      -131.0587 
  31   2.0000      -3.100852       -84.3785 
  32   2.0000      -1.963655       -53.4338 
  33   2.0000      -1.938343       -52.7450 
  34   2.0000      -1.936730       -52.7011 
  35   2.0000      -1.019054       -27.7299 
  36   2.0000      -0.935739       -25.4628 
  37   2.0000      -0.911308       -24.7980 
  38   2.0000      -0.904977       -24.6257 
  39   2.0000      -0.892370       -24.2826 
  40   2.0000      -0.861370       -23.4391 
  41   2.0000      -0.850294       -23.1377 
  42   2.0000      -0.840650       -22.8752 
  43   2.0000      -0.838979       -22.8298 
  44   2.0000      -0.836693       -22.7676 
  45   2.0000      -0.825016       -22.4498 
  46   2.0000      -0.821727       -22.3603 
  47   2.0000      -0.758819       -20.6485 
  48   2.0000      -0.746456       -20.3121 
  49   2.0000      -0.739030       -20.1100 
  50   2.0000      -0.685294       -18.6478 
  51   2.0000      -0.644281       -17.5318 
  52   2.0000      -0.629761       -17.1367 
  53   2.0000      -0.628819       -17.1110 
  54   2.0000      -0.581976       -15.8364 
  55   2.0000      -0.577355       -15.7106 
  56   2.0000      -0.570918       -15.5355 
  57   2.0000      -0.563929       -15.3453 
  58   2.0000      -0.549690       -14.9578 
  59   2.0000      -0.544291       -14.8109 
  60   2.0000      -0.542864       -14.7721 
  61   2.0000      -0.538091       -14.6422 
  62   2.0000      -0.535952       -14.5840 
  63   2.0000      -0.531893       -14.4735 
  64   2.0000      -0.526542       -14.3279 
  65   2.0000      -0.522396       -14.2151 
  66   2.0000      -0.520715       -14.1694 
  67   2.0000      -0.514579       -14.0024 
  68   2.0000      -0.513886       -13.9836 
  69   2.0000      -0.508889       -13.8476 
  70   2.0000      -0.505287       -13.7496 
  71   2.0000      -0.500599       -13.6220 
  72   2.0000      -0.497968       -13.5504 
  73   2.0000      -0.495792       -13.4912 
  74   2.0000      -0.482239       -13.1224 
  75   2.0000      -0.478117       -13.0102 
  76   2.0000      -0.475431       -12.9371 
  77   2.0000      -0.474957       -12.9242 
  78   2.0000      -0.451848       -12.2954 
  79   2.0000      -0.442350       -12.0369 
  80   2.0000      -0.437493       -11.9048 
  81   2.0000      -0.433010       -11.7828 
  82   2.0000      -0.430734       -11.7209 
  83   2.0000      -0.425800       -11.5866 
  84   2.0000      -0.413839       -11.2611 
  85   2.0000      -0.392845       -10.6898 
  86   2.0000      -0.391841       -10.6625 
  87   2.0000      -0.384192       -10.4544 
  88   2.0000      -0.361275        -9.8308 
  89   2.0000      -0.357274        -9.7219 
  90   2.0000      -0.329692        -8.9714 
  91   2.0000      -0.325224        -8.8498 
  92   2.0000      -0.298442        -8.1210 
  93   2.0000      -0.279307        -7.6003 
  94   2.0000      -0.264489        -7.1971 
  95   0.0000       0.046372         1.2618 
  96   0.0000       0.055426         1.5082 
  97   0.0000       0.061234         1.6663 
  98   0.0000       0.063790         1.7358 
  99   0.0000       0.075755         2.0614 
 100   0.0000       0.077562         2.1106 
 101   0.0000       0.079977         2.1763 
 102   0.0000       0.082344         2.2407 
 103   0.0000       0.084131         2.2893 
 104   0.0000       0.089256         2.4288 
 105   0.0000       0.099007         2.6941 
 106   0.0000       0.100265         2.7283 
 107   0.0000       0.103762         2.8235 
 108   0.0000       0.104625         2.8470 
 109   0.0000       0.106177         2.8892 
 110   0.0000       0.109527         2.9804 
 111   0.0000       0.115175         3.1341 
 112   0.0000       0.120401         3.2763 
 113   0.0000       0.124879         3.3981 
 114   0.0000       0.129913         3.5351 
 115   0.0000       0.131691         3.5835 
 116   0.0000       0.136986         3.7276 
 117   0.0000       0.137397         3.7388 
 118   0.0000       0.140899         3.8341 
 119   0.0000       0.146204         3.9784 
 120   0.0000       0.146925         3.9980 
 121   0.0000       0.149521         4.0687 
 122   0.0000       0.152667         4.1543 
 123   0.0000       0.154731         4.2104 
 124   0.0000       0.156660         4.2629 
 125   0.0000       0.158347         4.3088 
 126   0.0000       0.161349         4.3905 
 127   0.0000       0.164503         4.4764 
 128   0.0000       0.172621         4.6972 
 129   0.0000       0.175136         4.7657 
 130   0.0000       0.176431         4.8009 
 131   0.0000       0.179475         4.8838 
 132   0.0000       0.182771         4.9734 
 133   0.0000       0.186136         5.0650 
 134   0.0000       0.189545         5.1578 
 135   0.0000       0.193340         5.2611 
 136   0.0000       0.195763         5.3270 
 137   0.0000       0.198873         5.4116 
 138   0.0000       0.206303         5.6138 
 139   0.0000       0.209058         5.6888 
 140   0.0000       0.210403         5.7254 
 141   0.0000       0.212537         5.7834 
 142   0.0000       0.217370         5.9149 
 143   0.0000       0.218612         5.9487 
 144   0.0000       0.218879         5.9560 
 145   0.0000       0.224166         6.0999 
 146   0.0000       0.225378         6.1329 
 147   0.0000       0.231006         6.2860 
 148   0.0000       0.232611         6.3297 
 149   0.0000       0.236009         6.4221 
 150   0.0000       0.239786         6.5249 
 151   0.0000       0.244209         6.6453 
 152   0.0000       0.247978         6.7478 
 153   0.0000       0.251386         6.8406 
 154   0.0000       0.254327         6.9206 
 155   0.0000       0.255390         6.9495 
 156   0.0000       0.256794         6.9877 
 157   0.0000       0.262973         7.1559 
 158   0.0000       0.265575         7.2267 
 159   0.0000       0.269584         7.3357 
 160   0.0000       0.272636         7.4188 
 161   0.0000       0.273182         7.4337 
 162   0.0000       0.276003         7.5104 
 163   0.0000       0.278442         7.5768 
 164   0.0000       0.279737         7.6120 
 165   0.0000       0.280007         7.6194 
 166   0.0000       0.285216         7.7611 
 167   0.0000       0.286494         7.7959 
 168   0.0000       0.289020         7.8646 
 169   0.0000       0.290310         7.8997 
 170   0.0000       0.293951         7.9988 
 171   0.0000       0.297363         8.0917 
 172   0.0000       0.300532         8.1779 
 173   0.0000       0.303075         8.2471 
 174   0.0000       0.304410         8.2834 
 175   0.0000       0.308023         8.3817 
 176   0.0000       0.308100         8.3838 
 177   0.0000       0.312920         8.5150 
 178   0.0000       0.317594         8.6422 
 179   0.0000       0.318149         8.6573 
 180   0.0000       0.319010         8.6807 
 181   0.0000       0.319856         8.7037 
 182   0.0000       0.323820         8.8116 
 183   0.0000       0.324371         8.8266 
 184   0.0000       0.326833         8.8936 
 185   0.0000       0.329221         8.9586 
 186   0.0000       0.330270         8.9871 
 187   0.0000       0.333832         9.0840 
 188   0.0000       0.334912         9.1134 
 189   0.0000       0.336981         9.1697 
 190   0.0000       0.337321         9.1790 
 191   0.0000       0.339203         9.2302 
 192   0.0000       0.342090         9.3087 
 193   0.0000       0.344302         9.3689 
 194   0.0000       0.348356         9.4793 
 195   0.0000       0.350316         9.5326 
 196   0.0000       0.352934         9.6038 
 197   0.0000       0.353664         9.6237 
 198   0.0000       0.356317         9.6959 
 199   0.0000       0.358200         9.7471 
 200   0.0000       0.361565         9.8387 
 201   0.0000       0.364998         9.9321 
 202   0.0000       0.365962         9.9583 
 203   0.0000       0.367729        10.0064 
 204   0.0000       0.370603        10.0846 
 205   0.0000       0.372431        10.1344 
 206   0.0000       0.373593        10.1660 
 207   0.0000       0.374415        10.1884 
 208   0.0000       0.379042        10.3143 
 209   0.0000       0.383940        10.4475 
 210   0.0000       0.385476        10.4893 
 211   0.0000       0.387909        10.5555 
 212   0.0000       0.391042        10.6408 
 213   0.0000       0.392616        10.6836 
 214   0.0000       0.395121        10.7518 
 215   0.0000       0.396858        10.7991 
 216   0.0000       0.397889        10.8271 
 217   0.0000       0.401904        10.9364 
 218   0.0000       0.403588        10.9822 
 219   0.0000       0.404136        10.9971 
 220   0.0000       0.407853        11.0982 
 221   0.0000       0.410232        11.1630 
 222   0.0000       0.411400        11.1948 
 223   0.0000       0.415196        11.2981 
 224   0.0000       0.415754        11.3132 
 225   0.0000       0.419249        11.4083 
 226   0.0000       0.423791        11.5320 
 227   0.0000       0.426139        11.5958 
 228   0.0000       0.427212        11.6250 
 229   0.0000       0.428466        11.6592 
 230   0.0000       0.432598        11.7716 
 231   0.0000       0.434820        11.8321 
 232   0.0000       0.436678        11.8826 
 233   0.0000       0.437409        11.9025 
 234   0.0000       0.438836        11.9413 
 235   0.0000       0.443277        12.0622 
 236   0.0000       0.447575        12.1791 
 237   0.0000       0.449768        12.2388 
 238   0.0000       0.452421        12.3110 
 239   0.0000       0.454727        12.3737 
 240   0.0000       0.458576        12.4785 
 241   0.0000       0.459771        12.5110 
 242   0.0000       0.461576        12.5601 
 243   0.0000       0.464103        12.6289 
 244   0.0000       0.466084        12.6828 
 245   0.0000       0.469876        12.7860 
 246   0.0000       0.471154        12.8207 
 247   0.0000       0.473808        12.8930 
 248   0.0000       0.476471        12.9654 
 249   0.0000       0.479521        13.0484 
 250   0.0000       0.480802        13.0833 
 251   0.0000       0.483741        13.1633 
 252   0.0000       0.487052        13.2534 
 253   0.0000       0.488751        13.2996 
 254   0.0000       0.492456        13.4004 
 255   0.0000       0.495077        13.4717 
 256   0.0000       0.497228        13.5303 
 257   0.0000       0.499464        13.5911 
 258   0.0000       0.501638        13.6503 
 259   0.0000       0.502312        13.6686 
 260   0.0000       0.506054        13.7704 
 261   0.0000       0.506872        13.7927 
 262   0.0000       0.513725        13.9792 
 263   0.0000       0.514820        14.0090 
 264   0.0000       0.516374        14.0513 
 265   0.0000       0.518506        14.1093 
 266   0.0000       0.520771        14.1709 
 267   0.0000       0.523322        14.2403 
 268   0.0000       0.527923        14.3655 
 269   0.0000       0.529330        14.4038 
 270   0.0000       0.531286        14.4570 
 271   0.0000       0.534682        14.5494 
 272   0.0000       0.535901        14.5826 
 273   0.0000       0.536245        14.5920 
 274   0.0000       0.539478        14.6799 
 275   0.0000       0.541748        14.7417 
 276   0.0000       0.544956        14.8290 
 277   0.0000       0.548045        14.9131 
 278   0.0000       0.550229        14.9725 
 279   0.0000       0.552436        15.0325 
 280   0.0000       0.558227        15.1901 
 281   0.0000       0.560277        15.2459 
 282   0.0000       0.561684        15.2842 
 283   0.0000       0.564710        15.3665 
 284   0.0000       0.566090        15.4041 
 285   0.0000       0.567940        15.4544 
 286   0.0000       0.571239        15.5442 
 287   0.0000       0.576772        15.6948 
 288   0.0000       0.580976        15.8092 
 289   0.0000       0.581226        15.8160 
 290   0.0000       0.582897        15.8614 
 291   0.0000       0.586455        15.9583 
 292   0.0000       0.588871        16.0240 
 293   0.0000       0.595121        16.1941 
 294   0.0000       0.596597        16.2342 
 295   0.0000       0.599858        16.3230 
 296   0.0000       0.604062        16.4374 
 297   0.0000       0.606261        16.4972 
 298   0.0000       0.606873        16.5139 
 299   0.0000       0.611396        16.6369 
 300   0.0000       0.612972        16.6798 
 301   0.0000       0.616132        16.7658 
 302   0.0000       0.618932        16.8420 
 303   0.0000       0.620958        16.8971 
 304   0.0000       0.624846        17.0029 
 305   0.0000       0.627940        17.0871 
 306   0.0000       0.630097        17.1458 
 307   0.0000       0.630923        17.1683 
 308   0.0000       0.635103        17.2820 
 309   0.0000       0.638585        17.3768 
 310   0.0000       0.639049        17.3894 
 311   0.0000       0.644880        17.5481 
 312   0.0000       0.647704        17.6249 
 313   0.0000       0.648200        17.6384 
 314   0.0000       0.650176        17.6922 
 315   0.0000       0.650939        17.7129 
 316   0.0000       0.655792        17.8450 
 317   0.0000       0.660001        17.9596 
 318   0.0000       0.661797        18.0084 
 319   0.0000       0.668044        18.1784 
 320   0.0000       0.669615        18.2212 
 321   0.0000       0.672870        18.3097 
 322   0.0000       0.675665        18.3858 
 323   0.0000       0.678655        18.4671 
 324   0.0000       0.679181        18.4814 
 325   0.0000       0.681798        18.5527 
 326   0.0000       0.683419        18.5968 
 327   0.0000       0.687391        18.7049 
 328   0.0000       0.691017        18.8035 
 329   0.0000       0.694162        18.8891 
 330   0.0000       0.696152        18.9432 
 331   0.0000       0.699373        19.0309 
 332   0.0000       0.702070        19.1043 
 333   0.0000       0.706493        19.2246 
 334   0.0000       0.707534        19.2530 
 335   0.0000       0.709479        19.3059 
 336   0.0000       0.713164        19.4062 
 337   0.0000       0.713465        19.4144 
 338   0.0000       0.715417        19.4675 
 339   0.0000       0.719301        19.5732 
 340   0.0000       0.724046        19.7023 
 341   0.0000       0.725668        19.7464 
 342   0.0000       0.727167        19.7872 
 343   0.0000       0.729456        19.8495 
 344   0.0000       0.732348        19.9282 
 345   0.0000       0.736003        20.0277 
 346   0.0000       0.736936        20.0531 
 347   0.0000       0.738343        20.0913 
 348   0.0000       0.742435        20.2027 
 349   0.0000       0.745140        20.2763 
 350   0.0000       0.746202        20.3052 
 351   0.0000       0.749060        20.3829 
 352   0.0000       0.750225        20.4147 
 353   0.0000       0.751603        20.4522 
 354   0.0000       0.754641        20.5348 
 355   0.0000       0.757990        20.6260 
 356   0.0000       0.758377        20.6365 
 357   0.0000       0.759563        20.6687 
 358   0.0000       0.761751        20.7283 
 359   0.0000       0.762826        20.7575 
 360   0.0000       0.763916        20.7872 
 361   0.0000       0.768837        20.9211 
 362   0.0000       0.769451        20.9378 
 363   0.0000       0.772776        21.0283 
 364   0.0000       0.776364        21.1259 
 365   0.0000       0.779503        21.2113 
 366   0.0000       0.780223        21.2310 
 367   0.0000       0.783887        21.3306 
 368   0.0000       0.787323        21.4241 
 369   0.0000       0.788424        21.4541 
 370   0.0000       0.790614        21.5137 
 371   0.0000       0.792327        21.5603 
 372   0.0000       0.794205        21.6114 
 373   0.0000       0.796520        21.6744 
 374   0.0000       0.798808        21.7367 
 375   0.0000       0.801542        21.8111 
 376   0.0000       0.804021        21.8785 
 377   0.0000       0.805854        21.9284 
 378   0.0000       0.806489        21.9457 
 379   0.0000       0.809609        22.0306 
 380   0.0000       0.811851        22.0916 
 381   0.0000       0.815230        22.1835 
 382   0.0000       0.817950        22.2576 
 383   0.0000       0.821007        22.3407 
 384   0.0000       0.825114        22.4525 
 385   0.0000       0.828004        22.5311 
 386   0.0000       0.830629        22.6026 
 387   0.0000       0.832565        22.6552 
 388   0.0000       0.833562        22.6824 
 389   0.0000       0.835315        22.7301 
 390   0.0000       0.839041        22.8315 
 391   0.0000       0.840677        22.8760 
 392   0.0000       0.844258        22.9734 
 393   0.0000       0.847356        23.0577 
 394   0.0000       0.848284        23.0830 
 395   0.0000       0.849034        23.1034 
 396   0.0000       0.851910        23.1816 
 397   0.0000       0.854398        23.2494 
 398   0.0000       0.859304        23.3828 
 399   0.0000       0.862452        23.4685 
 400   0.0000       0.862587        23.4722 
 401   0.0000       0.864786        23.5320 
 402   0.0000       0.867695        23.6112 
 403   0.0000       0.869052        23.6481 
 404   0.0000       0.874635        23.8000 
 405   0.0000       0.877165        23.8689 
 406   0.0000       0.880623        23.9630 
 407   0.0000       0.884231        24.0611 
 408   0.0000       0.885968        24.1084 
 409   0.0000       0.890795        24.2398 
 410   0.0000       0.892084        24.2748 
 411   0.0000       0.892917        24.2975 
 412   0.0000       0.894592        24.3431 
 413   0.0000       0.900426        24.5018 
 414   0.0000       0.901326        24.5263 
 415   0.0000       0.905394        24.6370 
 416   0.0000       0.908669        24.7261 
 417   0.0000       0.909736        24.7552 
 418   0.0000       0.913930        24.8693 
 419   0.0000       0.916611        24.9423 
 420   0.0000       0.920916        25.0594 
 421   0.0000       0.924902        25.1679 
 422   0.0000       0.926033        25.1986 
 423   0.0000       0.929700        25.2984 
 424   0.0000       0.931527        25.3481 
 425   0.0000       0.933484        25.4014 
 426   0.0000       0.938334        25.5334 
 427   0.0000       0.939790        25.5730 
 428   0.0000       0.940678        25.5972 
 429   0.0000       0.945240        25.7213 
 430   0.0000       0.946170        25.7466 
 431   0.0000       0.950996        25.8779 
 432   0.0000       0.954142        25.9635 
 433   0.0000       0.959672        26.1140 
 434   0.0000       0.960417        26.1343 
 435   0.0000       0.967656        26.3312 
 436   0.0000       0.970238        26.4015 
 437   0.0000       0.973982        26.5034 
 438   0.0000       0.975831        26.5537 
 439   0.0000       0.977092        26.5880 
 440   0.0000       0.981586        26.7103 
 441   0.0000       0.983449        26.7610 
 442   0.0000       0.990735        26.9593 
 443   0.0000       0.995433        27.0871 
 444   0.0000       1.000671        27.2297 
 445   0.0000       1.001900        27.2631 
 446   0.0000       1.009793        27.4779 
 447   0.0000       1.011797        27.5324 
 448   0.0000       1.015831        27.6422 
 449   0.0000       1.020029        27.7564 
 450   0.0000       1.020853        27.7788 
 451   0.0000       1.024838        27.8873 
 452   0.0000       1.027689        27.9648 
 453   0.0000       1.032433        28.0939 
 454   0.0000       1.036822        28.2133 
 455   0.0000       1.037914        28.2431 
 456   0.0000       1.046624        28.4801 
 457   0.0000       1.050217        28.5779 
 458   0.0000       1.058220        28.7956 
 459   0.0000       1.063689        28.9444 
 460   0.0000       1.064913        28.9778 
 461   0.0000       1.071193        29.1486 
 462   0.0000       1.075278        29.2598 
 463   0.0000       1.080192        29.3935 
 464   0.0000       1.082377        29.4530 
 465   0.0000       1.088990        29.6329 
 466   0.0000       1.091011        29.6879 
 467   0.0000       1.094594        29.7854 
 468   0.0000       1.095429        29.8082 
 469   0.0000       1.100472        29.9454 
 470   0.0000       1.105007        30.0688 
 471   0.0000       1.107373        30.1332 
 472   0.0000       1.114415        30.3248 
 473   0.0000       1.118215        30.4282 
 474   0.0000       1.124603        30.6020 
 475   0.0000       1.129028        30.7224 
 476   0.0000       1.136193        30.9174 
 477   0.0000       1.136860        30.9355 
 478   0.0000       1.139511        31.0077 
 479   0.0000       1.144431        31.1416 
 480   0.0000       1.147962        31.2376 
 481   0.0000       1.157199        31.4890 
 482   0.0000       1.163295        31.6549 
 483   0.0000       1.165046        31.7025 
 484   0.0000       1.171343        31.8739 
 485   0.0000       1.173005        31.9191 
 486   0.0000       1.180049        32.1108 
 487   0.0000       1.182798        32.1856 
 488   0.0000       1.188718        32.3467 
 489   0.0000       1.191680        32.4273 
 490   0.0000       1.198975        32.6258 
 491   0.0000       1.203701        32.7544 
 492   0.0000       1.211258        32.9600 
 493   0.0000       1.214521        33.0488 
 494   0.0000       1.218018        33.1439 
 495   0.0000       1.223286        33.2873 
 496   0.0000       1.225207        33.3396 
 497   0.0000       1.230698        33.4890 
 498   0.0000       1.234463        33.5915 
 499   0.0000       1.238134        33.6913 
 500   0.0000       1.245486        33.8914 
 501   0.0000       1.250166        34.0188 
 502   0.0000       1.256895        34.2018 
 503   0.0000       1.262341        34.3500 
 504   0.0000       1.264906        34.4198 
 505   0.0000       1.268620        34.5209 
 506   0.0000       1.271409        34.5968 
 507   0.0000       1.272751        34.6333 
 508   0.0000       1.283362        34.9221 
 509   0.0000       1.286179        34.9987 
 510   0.0000       1.288325        35.0571 
 511   0.0000       1.294463        35.2241 
 512   0.0000       1.301084        35.4043 
 513   0.0000       1.303453        35.4688 
 514   0.0000       1.310384        35.6574 
 515   0.0000       1.319448        35.9040 
 516   0.0000       1.322445        35.9856 
 517   0.0000       1.325050        36.0564 
 518   0.0000       1.330576        36.2068 
 519   0.0000       1.332051        36.2470 
 520   0.0000       1.338382        36.4192 
 521   0.0000       1.350437        36.7473 
 522   0.0000       1.356193        36.9039 
 523   0.0000       1.358588        36.9691 
 524   0.0000       1.364166        37.1208 
 525   0.0000       1.367185        37.2030 
 526   0.0000       1.369274        37.2598 
 527   0.0000       1.372212        37.3398 
 528   0.0000       1.377818        37.4923 
 529   0.0000       1.380604        37.5682 
 530   0.0000       1.387215        37.7480 
 531   0.0000       1.389557        37.8118 
 532   0.0000       1.395689        37.9786 
 533   0.0000       1.398121        38.0448 
 534   0.0000       1.406288        38.2671 
 535   0.0000       1.406996        38.2863 
 536   0.0000       1.409157        38.3451 
 537   0.0000       1.414351        38.4865 
 538   0.0000       1.419573        38.6285 
 539   0.0000       1.422583        38.7104 
 540   0.0000       1.424750        38.7694 
 541   0.0000       1.431757        38.9601 
 542   0.0000       1.436477        39.0885 
 543   0.0000       1.442092        39.2413 
 544   0.0000       1.447010        39.3752 
 545   0.0000       1.449846        39.4523 
 546   0.0000       1.455595        39.6088 
 547   0.0000       1.459056        39.7029 
 548   0.0000       1.462537        39.7977 
 549   0.0000       1.468677        39.9647 
 550   0.0000       1.474097        40.1122 
 551   0.0000       1.476468        40.1767 
 552   0.0000       1.477198        40.1966 
 553   0.0000       1.481815        40.3222 
 554   0.0000       1.484134        40.3853 
 555   0.0000       1.485500        40.4225 
 556   0.0000       1.489152        40.5219 
 557   0.0000       1.494644        40.6713 
 558   0.0000       1.498403        40.7736 
 559   0.0000       1.500686        40.8357 
 560   0.0000       1.504329        40.9349 
 561   0.0000       1.506125        40.9837 
 562   0.0000       1.509398        41.0728 
 563   0.0000       1.515733        41.2452 
 564   0.0000       1.519619        41.3509 
 565   0.0000       1.523373        41.4531 
 566   0.0000       1.524958        41.4962 
 567   0.0000       1.533559        41.7303 
 568   0.0000       1.542414        41.9712 
 569   0.0000       1.544814        42.0365 
 570   0.0000       1.545846        42.0646 
 571   0.0000       1.549212        42.1562 
 572   0.0000       1.551923        42.2300 
 573   0.0000       1.555842        42.3366 
 574   0.0000       1.559142        42.4264 
 575   0.0000       1.564380        42.5690 
 576   0.0000       1.569127        42.6981 
 577   0.0000       1.575648        42.8756 
 578   0.0000       1.576794        42.9067 
 579   0.0000       1.583763        43.0964 
 580   0.0000       1.585875        43.1539 
 581   0.0000       1.586910        43.1820 
 582   0.0000       1.590337        43.2753 
 583   0.0000       1.598273        43.4912 
 584   0.0000       1.602524        43.6069 
 585   0.0000       1.604429        43.6587 
 586   0.0000       1.610565        43.8257 
 587   0.0000       1.615061        43.9481 
 588   0.0000       1.618289        44.0359 
 589   0.0000       1.618423        44.0395 
 590   0.0000       1.622510        44.1507 
 591   0.0000       1.629399        44.3382 
 592   0.0000       1.633813        44.4583 
 593   0.0000       1.637129        44.5486 
 594   0.0000       1.642446        44.6932 
 595   0.0000       1.645113        44.7658 
 596   0.0000       1.651508        44.9398 
 597   0.0000       1.653833        45.0031 
 598   0.0000       1.660652        45.1886 
 599   0.0000       1.663320        45.2612 
 600   0.0000       1.667506        45.3752 
 601   0.0000       1.673940        45.5502 
 602   0.0000       1.682599        45.7858 
 603   0.0000       1.688049        45.9342 
 604   0.0000       1.689760        45.9807 
 605   0.0000       1.694444        46.1082 
 606   0.0000       1.697641        46.1952 
 607   0.0000       1.701964        46.3128 
 608   0.0000       1.707406        46.4609 
 609   0.0000       1.709529        46.5186 
 610   0.0000       1.713964        46.6393 
 611   0.0000       1.722591        46.8741 
 612   0.0000       1.725685        46.9583 
 613   0.0000       1.728127        47.0247 
 614   0.0000       1.729913        47.0733 
 615   0.0000       1.740344        47.3572 
 616   0.0000       1.746506        47.5249 
 617   0.0000       1.752438        47.6863 
 618   0.0000       1.754511        47.7427 
 619   0.0000       1.761123        47.9226 
 620   0.0000       1.764644        48.0184 
 621   0.0000       1.770347        48.1736 
 622   0.0000       1.779980        48.4357 
 623   0.0000       1.784588        48.5611 
 624   0.0000       1.792925        48.7880 
 625   0.0000       1.796160        48.8760 
 626   0.0000       1.797805        48.9208 
 627   0.0000       1.800486        48.9937 
 628   0.0000       1.803831        49.0847 
 629   0.0000       1.806163        49.1482 
 630   0.0000       1.815991        49.4156 
 631   0.0000       1.817099        49.4458 
 632   0.0000       1.824862        49.6570 
 633   0.0000       1.828648        49.7601 
 634   0.0000       1.831083        49.8263 
 635   0.0000       1.834405        49.9167 
 636   0.0000       1.844926        50.2030 
 637   0.0000       1.850713        50.3605 
 638   0.0000       1.853616        50.4394 
 639   0.0000       1.857600        50.5479 
 640   0.0000       1.862148        50.6716 
 641   0.0000       1.869329        50.8670 
 642   0.0000       1.875419        51.0327 
 643   0.0000       1.880217        51.1633 
 644   0.0000       1.883077        51.2411 
 645   0.0000       1.886298        51.3288 
 646   0.0000       1.890635        51.4468 
 647   0.0000       1.894653        51.5561 
 648   0.0000       1.897525        51.6343 
 649   0.0000       1.904570        51.8260 
 650   0.0000       1.907156        51.8963 
 651   0.0000       1.914070        52.0845 
 652   0.0000       1.920039        52.2469 
 653   0.0000       1.924341        52.3640 
 654   0.0000       1.925996        52.4090 
 655   0.0000       1.933308        52.6080 
 656   0.0000       1.943018        52.8722 
 657   0.0000       1.947282        52.9882 
 658   0.0000       1.952628        53.1337 
 659   0.0000       1.954103        53.1738 
 660   0.0000       1.958492        53.2933 
 661   0.0000       1.966133        53.5012 
 662   0.0000       1.967360        53.5346 
 663   0.0000       1.974708        53.7345 
 664   0.0000       1.977788        53.8184 
 665   0.0000       1.985385        54.0251 
 666   0.0000       1.987370        54.0791 
 667   0.0000       1.997745        54.3614 
 668   0.0000       1.999346        54.4050 
 669   0.0000       2.006920        54.6111 
 670   0.0000       2.009143        54.6716 
 671   0.0000       2.016330        54.8671 
 672   0.0000       2.022184        55.0264 
 673   0.0000       2.028329        55.1936 
 674   0.0000       2.031438        55.2782 
 675   0.0000       2.037662        55.4476 
 676   0.0000       2.048144        55.7328 
 677   0.0000       2.051331        55.8196 
 678   0.0000       2.054844        55.9152 
 679   0.0000       2.075844        56.4866 
 680   0.0000       2.078446        56.5574 
 681   0.0000       2.080880        56.6236 
 682   0.0000       2.084132        56.7121 
 683   0.0000       2.087339        56.7994 
 684   0.0000       2.089395        56.8553 
 685   0.0000       2.091320        56.9077 
 686   0.0000       2.103564        57.2409 
 687   0.0000       2.110562        57.4313 
 688   0.0000       2.115729        57.5719 
 689   0.0000       2.125175        57.8289 
 690   0.0000       2.125851        57.8473 
 691   0.0000       2.135676        58.1147 
 692   0.0000       2.138311        58.1864 
 693   0.0000       2.154382        58.6237 
 694   0.0000       2.157735        58.7149 
 695   0.0000       2.163022        58.8588 
 696   0.0000       2.165497        58.9262 
 697   0.0000       2.178661        59.2844 
 698   0.0000       2.194835        59.7245 
 699   0.0000       2.196954        59.7821 
 700   0.0000       2.198764        59.8314 
 701   0.0000       2.212658        60.2095 
 702   0.0000       2.214147        60.2500 
 703   0.0000       2.219091        60.3845 
 704   0.0000       2.226431        60.5843 
 705   0.0000       2.240329        60.9625 
 706   0.0000       2.253839        61.3301 
 707   0.0000       2.261249        61.5317 
 708   0.0000       2.275605        61.9224 
 709   0.0000       2.291896        62.3657 
 710   0.0000       2.298149        62.5358 
 711   0.0000       2.312414        62.9240 
 712   0.0000       2.316739        63.0417 
 713   0.0000       2.326906        63.3183 
 714   0.0000       2.331562        63.4450 
 715   0.0000       2.339517        63.6615 
 716   0.0000       2.345301        63.8189 
 717   0.0000       2.347817        63.8873 
 718   0.0000       2.355361        64.0926 
 719   0.0000       2.362018        64.2738 
 720   0.0000       2.370978        64.5176 
 721   0.0000       2.378441        64.7207 
 722   0.0000       2.384257        64.8789 
 723   0.0000       2.388332        64.9898 
 724   0.0000       2.397400        65.2366 
 725   0.0000       2.404867        65.4398 
 726   0.0000       2.407806        65.5197 
 727   0.0000       2.415805        65.7374 
 728   0.0000       2.420817        65.8738 
 729   0.0000       2.434993        66.2595 
 730   0.0000       2.438289        66.3492 
 731   0.0000       2.450132        66.6715 
 732   0.0000       2.469733        67.2049 
 733   0.0000       2.470122        67.2154 
 734   0.0000       2.478912        67.4546 
 735   0.0000       2.490002        67.7564 
 736   0.0000       2.492887        67.8349 
 737   0.0000       2.499754        68.0218 
 738   0.0000       2.503941        68.1357 
 739   0.0000       2.516553        68.4789 
 740   0.0000       2.523828        68.6768 
 741   0.0000       2.535952        69.0068 
 742   0.0000       2.539658        69.1076 
 743   0.0000       2.554474        69.5108 
 744   0.0000       2.558031        69.6076 
 745   0.0000       2.563557        69.7579 
 746   0.0000       2.569028        69.9068 
 747   0.0000       2.574964        70.0683 
 748   0.0000       2.582569        70.2753 
 749   0.0000       2.589568        70.4657 
 750   0.0000       2.595565        70.6289 
 751   0.0000       2.602879        70.8279 
 752   0.0000       2.607767        70.9610 
 753   0.0000       2.631199        71.5986 
 754   0.0000       2.633032        71.6484 
 755   0.0000       2.640645        71.8556 
 756   0.0000       2.648607        72.0723 
 757   0.0000       2.657589        72.3167 
 758   0.0000       2.697239        73.3956 
 759   0.0000       2.712416        73.8086 
 760   0.0000       2.725262        74.1581 
 761   0.0000       2.728043        74.2338 
 762   0.0000       2.733850        74.3918 
 763   0.0000       2.738178        74.5096 
 764   0.0000       2.742211        74.6193 
 765   0.0000       2.745036        74.6962 
 766   0.0000       2.765604        75.2559 
 767   0.0000       2.769877        75.3722 
 768   0.0000       2.772298        75.4381 
 769   0.0000       2.779625        75.6374 
 770   0.0000       2.795763        76.0766 
 771   0.0000       2.802470        76.2591 
 772   0.0000       2.812423        76.5299 
 773   0.0000       2.827316        76.9352 
 774   0.0000       2.828638        76.9711 
 775   0.0000       2.836880        77.1954 
 776   0.0000       2.850162        77.5568 
 777   0.0000       2.858502        77.7838 
 778   0.0000       2.871989        78.1508 
 779   0.0000       2.879628        78.3587 
 780   0.0000       2.886483        78.5452 
 781   0.0000       2.896686        78.8228 
 782   0.0000       2.907024        79.1042 
 783   0.0000       2.927841        79.6706 
 784   0.0000       2.933040        79.8121 
 785   0.0000       2.940631        80.0186 
 786   0.0000       2.955333        80.4187 
 787   0.0000       2.965026        80.6825 
 788   0.0000       2.972245        80.8789 
 789   0.0000       2.976809        81.0031 
 790   0.0000       2.987856        81.3037 
 791   0.0000       2.995474        81.5110 
 792   0.0000       2.999162        81.6113 
 793   0.0000       3.000859        81.6575 
 794   0.0000       3.002147        81.6926 
 795   0.0000       3.006007        81.7976 
 796   0.0000       3.012751        81.9811 
 797   0.0000       3.016283        82.0772 
 798   0.0000       3.019517        82.1652 
 799   0.0000       3.023869        82.2836 
 800   0.0000       3.026402        82.3526 
 801   0.0000       3.032740        82.5250 
 802   0.0000       3.037805        82.6629 
 803   0.0000       3.039513        82.7093 
 804   0.0000       3.045829        82.8812 
 805   0.0000       3.049430        82.9792 
 806   0.0000       3.054321        83.1123 
 807   0.0000       3.060793        83.2884 
 808   0.0000       3.061984        83.3208 
 809   0.0000       3.069149        83.5158 
 810   0.0000       3.073371        83.6307 
 811   0.0000       3.079897        83.8082 
 812   0.0000       3.085158        83.9514 
 813   0.0000       3.091641        84.1278 
 814   0.0000       3.093025        84.1655 
 815   0.0000       3.100741        84.3754 
 816   0.0000       3.105923        84.5165 
 817   0.0000       3.110228        84.6336 
 818   0.0000       3.111471        84.6674 
 819   0.0000       3.118973        84.8716 
 820   0.0000       3.123289        84.9890 
 821   0.0000       3.128233        85.1236 
 822   0.0000       3.128522        85.1314 
 823   0.0000       3.136927        85.3601 
 824   0.0000       3.148913        85.6863 
 825   0.0000       3.150133        85.7195 
 826   0.0000       3.159440        85.9727 
 827   0.0000       3.161665        86.0333 
 828   0.0000       3.168974        86.2322 
 829   0.0000       3.169751        86.2533 
 830   0.0000       3.172570        86.3300 
 831   0.0000       3.178946        86.5035 
 832   0.0000       3.183521        86.6280 
 833   0.0000       3.190269        86.8116 
 834   0.0000       3.193040        86.8870 
[...]
      dx2y2   :     0.261395
      dxy     :     0.224712
      f0      :     0.019140  f :     0.128059
      f+1     :     0.011744
      f-1     :     0.019923
      f+2     :     0.019019
      f-2     :     0.020939
      f+3     :     0.018897
      f-3     :     0.018397
 27 C s       :     2.685738  s :     2.685738
      pz      :     0.949673  p :     2.836802
      px      :     0.941036
      py      :     0.946093
      dz2     :     0.120321  d :     0.484738
      dxz     :     0.045684
      dyz     :     0.131373
      dx2y2   :     0.050475
      dxy     :     0.136886
      f0      :     0.001995  f :     0.020136
      f+1     :     0.003094
      f-1     :     0.004300
      f+2     :     0.003522
      f-2     :     0.001293
      f+3     :     0.001316
      f-3     :     0.004615
 28 H s       :     0.699293  s :     0.699293
      pz      :     0.134276  p :     0.366574
      px      :     0.091966
      py      :     0.140332
      dz2     :     0.010683  d :     0.030772
      dxz     :     0.006764
      dyz     :     0.008183
      dx2y2   :     0.002111
      dxy     :     0.003031
 29 H s       :     0.710171  s :     0.710171
      pz      :     0.087399  p :     0.315901
      px      :     0.123970
      py      :     0.104532
      dz2     :     0.002559  d :     0.030483
      dxz     :     0.006428
      dyz     :     0.004033
      dx2y2   :     0.009220
      dxy     :     0.008244
 30 H s       :     0.711681  s :     0.711681
      pz      :     0.086701  p :     0.308715
      px      :     0.120030
      py      :     0.101984
      dz2     :     0.002892  d :     0.030242
      dxz     :     0.006258
      dyz     :     0.003687
      dx2y2   :     0.009072
      dxy     :     0.008333
 31 C s       :     2.682802  s :     2.682802
      pz      :     0.942071  p :     2.826807
      px      :     0.937438
      py      :     0.947298
      dz2     :     0.127775  d :     0.481362
      dxz     :     0.048126
      dyz     :     0.128009
      dx2y2   :     0.046956
      dxy     :     0.130497
      f0      :     0.001829  f :     0.020346
      f+1     :     0.003161
      f-1     :     0.004681
      f+2     :     0.003461
      f-2     :     0.001143
      f+3     :     0.001379
      f-3     :     0.004690
 32 H s       :     0.707535  s :     0.707535
      pz      :     0.086587  p :     0.307610
      px      :     0.121309
      py      :     0.099715
      dz2     :     0.002633  d :     0.030331
      dxz     :     0.006713
      dyz     :     0.003303
      dx2y2   :     0.009095
      dxy     :     0.008586
 33 H s       :     0.700937  s :     0.700937
      pz      :     0.088224  p :     0.337937
      px      :     0.141175
      py      :     0.108538
      dz2     :     0.002580  d :     0.030581
      dxz     :     0.005751
      dyz     :     0.004478
      dx2y2   :     0.009623
      dxy     :     0.008150
 34 H s       :     0.707842  s :     0.707842
      pz      :     0.127799  p :     0.319878
      px      :     0.088671
      py      :     0.103408
      dz2     :     0.010372  d :     0.030592
      dxz     :     0.006509
      dyz     :     0.007998
      dx2y2   :     0.002403
      dxy     :     0.003311
 35 C s       :     2.662353  s :     2.662353
      pz      :     0.921540  p :     2.750383
      px      :     0.933304
      py      :     0.895538
      dz2     :     0.149280  d :     0.753015
      dxz     :     0.085400
      dyz     :     0.137842
      dx2y2   :     0.166935
      dxy     :     0.213558
      f0      :     0.004478  f :     0.031964
      f+1     :     0.003065
      f-1     :     0.004584
      f+2     :     0.004182
      f-2     :     0.004438
      f+3     :     0.006045
      f-3     :     0.005173
 36 H s       :     0.689416  s :     0.689416
      pz      :     0.133250  p :     0.309661
      px      :     0.092963
      py      :     0.083448
      dz2     :     0.010234  d :     0.031017
      dxz     :     0.010051
      dyz     :     0.009189
      dx2y2   :     0.000839
      dxy     :     0.000703
 37 H s       :     0.695143  s :     0.695143
      pz      :     0.089726  p :     0.292940
      px      :     0.108826
      py      :     0.094389
      dz2     :     0.006070  d :     0.030789
      dxz     :     0.005751
      dyz     :     0.004528
      dx2y2   :     0.007938
      dxy     :     0.006503
 38 C s       :     2.603335  s :     2.603335
      pz      :     0.885843  p :     2.526136
      px      :     0.748658
      py      :     0.891634
      dz2     :     0.227941  d :     1.068546
      dxz     :     0.184107
      dyz     :     0.288626
      dx2y2   :     0.182931
      dxy     :     0.184942
      f0      :     0.008584  f :     0.061997
      f+1     :     0.007335
      f-1     :     0.016886
      f+2     :     0.006263
      f-2     :     0.007878
      f+3     :     0.008094
      f-3     :     0.006956
 39 P s       :     4.621971  s :     4.621971
      pz      :     2.663649  p :     8.183106
      px      :     2.782431
      py      :     2.737027
      dz2     :     0.278558  d :     1.269388
      dxz     :     0.217881
      dyz     :     0.271099
      dx2y2   :     0.279587
      dxy     :     0.222262
      f0      :     0.017844  f :     0.131246
      f+1     :     0.016931
      f-1     :     0.020803
      f+2     :     0.017856
      f-2     :     0.018263
      f+3     :     0.021122
      f-3     :     0.018427
 40 H s       :     0.710744  s :     0.710744
      pz      :     0.084048  p :     0.306106
      px      :     0.123885
      py      :     0.098174
      dz2     :     0.002880  d :     0.030233
      dxz     :     0.007192
      dyz     :     0.002567
      dx2y2   :     0.008951
      dxy     :     0.008642
 41 H s       :     0.708620  s :     0.708620
      pz      :     0.095957  p :     0.322571
      px      :     0.121479
      py      :     0.105135
      dz2     :     0.004848  d :     0.030499
      dxz     :     0.005732
      dyz     :     0.004067
      dx2y2   :     0.008385
      dxy     :     0.007468
 42 H s       :     0.698012  s :     0.698012
      pz      :     0.148207  p :     0.354227
      px      :     0.086427
      py      :     0.119593
      dz2     :     0.010901  d :     0.030753
      dxz     :     0.008924
      dyz     :     0.009408
      dx2y2   :     0.000641
      dxy     :     0.000879
 43 C s       :     2.661619  s :     2.661619
      pz      :     0.938204  p :     2.758493
      px      :     0.930944
      py      :     0.889345
      dz2     :     0.172185  d :     0.774595
      dxz     :     0.093531
      dyz     :     0.122872
      dx2y2   :     0.168382
      dxy     :     0.217625
      f0      :     0.005141  f :     0.031661
      f+1     :     0.001956
      f-1     :     0.004503
      f+2     :     0.004921
      f-2     :     0.004049
      f+3     :     0.005681
      f-3     :     0.005410
 44 C s       :     2.683441  s :     2.683441
      pz      :     0.952266  p :     2.834148
      px      :     0.938439
      py      :     0.943443
      dz2     :     0.115321  d :     0.474435
      dxz     :     0.044188
      dyz     :     0.101523
      dx2y2   :     0.079560
      dxy     :     0.133843
      f0      :     0.003838  f :     0.020208
      f+1     :     0.002432
      f-1     :     0.002000
      f+2     :     0.003360
      f-2     :     0.002405
      f+3     :     0.001673
      f-3     :     0.004500
 45 C s       :     2.683310  s :     2.683310
      pz      :     0.945711  p :     2.825477
      px      :     0.939597
      py      :     0.940168
      dz2     :     0.109815  d :     0.466881
      dxz     :     0.092848
      dyz     :     0.122590
      dx2y2   :     0.044120
      dxy     :     0.097508
      f0      :     0.002852  f :     0.020271
      f+1     :     0.003077
      f-1     :     0.002791
      f+2     :     0.003146
      f-2     :     0.003074
      f+3     :     0.000795
      f-3     :     0.004536
 46 H s       :     0.681609  s :     0.681609
      pz      :     0.149525  p :     0.341510
      px      :     0.114924
      py      :     0.077061
      dz2     :     0.011232  d :     0.031248
      dxz     :     0.010107
      dyz     :     0.009630
      dx2y2   :     0.000147
      dxy     :     0.000131
 47 H s       :     0.698147  s :     0.698147
      pz      :     0.083046  p :     0.288832
      px      :     0.115023
      py      :     0.090763
      dz2     :     0.004179  d :     0.030613
      dxz     :     0.006191
      dyz     :     0.003271
      dx2y2   :     0.009324
      dxy     :     0.007648
 48 H s       :     0.701103  s :     0.701103
      pz      :     0.099539  p :     0.339481
      px      :     0.139920
      py      :     0.100022
      dz2     :     0.004894  d :     0.030622
      dxz     :     0.006510
      dyz     :     0.004266
      dx2y2   :     0.007877
      dxy     :     0.007076
 49 H s       :     0.709239  s :     0.709239
      pz      :     0.088177  p :     0.307207
      px      :     0.119716
      py      :     0.099314
      dz2     :     0.002605  d :     0.030274
      dxz     :     0.006707
      dyz     :     0.003505
      dx2y2   :     0.009361
      dxy     :     0.008096
 50 H s       :     0.708896  s :     0.708896
      pz      :     0.106731  p :     0.317278
      px      :     0.085519
      py      :     0.125028
      dz2     :     0.007069  d :     0.030579
      dxz     :     0.003143
      dyz     :     0.008065
      dx2y2   :     0.005372
      dxy     :     0.006930


                      *****************************
                      * MAYER POPULATION ANALYSIS *
                      *****************************

  NA   - Mulliken gross atomic population
  ZA   - Total nuclear charge
  QA   - Mulliken gross atomic charge
  VA   - Mayer's total valence
  BVA  - Mayer's bonded valence
  FA   - Mayer's free valence

  ATOM       NA         ZA         QA         VA         BVA        FA
  0 C      5.8285     6.0000     0.1715     2.1155     2.1155     0.0000
  1 C      5.2222     6.0000     0.7778     0.8856     0.8856    -0.0000
  2 C      5.4412     6.0000     0.5588     1.6057     1.6057    -0.0000
  3 C      5.2804     6.0000     0.7196     1.9327     1.9327     0.0000
  4 C      6.3212     6.0000    -0.3212     4.0849     4.0849    -0.0000
  5 H      1.0196     1.0000    -0.0196     1.0707     1.0707    -0.0000
  6 H      0.9278     1.0000     0.0722     1.0169     1.0169    -0.0000
  7 H      0.8996     1.0000     0.1004     0.9760     0.9760    -0.0000
  8 C      6.6257     6.0000    -0.6257     4.4872     4.4872     0.0000
  9 H      0.9365     1.0000     0.0635     0.9804     0.9804     0.0000
 10 H      0.9449     1.0000     0.0551     1.0880     1.0880     0.0000
 11 H      0.8804     1.0000     0.1196     0.9834     0.9834     0.0000
 12 C      6.7039     6.0000    -0.7039     4.5379     4.5379    -0.0000
 13 H      0.8690     1.0000     0.1310     0.9536     0.9536    -0.0000
 14 H      0.9452     1.0000     0.0548     1.0694     1.0694    -0.0000
 15 H      0.9452     1.0000     0.0548     0.9897     0.9897    -0.0000
 16 C      6.3152     6.0000    -0.3152     4.1675     4.1675     0.0000
 17 H      0.8976     1.0000     0.1024     0.9676     0.9676    -0.0000
 18 H      0.9378     1.0000     0.0622     1.0284     1.0284     0.0000
 19 H      0.9958     1.0000     0.0042     1.0563     1.0563     0.0000
 20 C      6.6211     6.0000    -0.6211     4.2264     4.2264    -0.0000
 21 H      0.9102     1.0000     0.0898     0.9699     0.9699    -0.0000
 22 H      0.9438     1.0000     0.0562     0.9884     0.9884    -0.0000
 23 H      0.9454     1.0000     0.0546     0.9943     0.9943    -0.0000
 24 Ru    18.0063    16.0000    -2.0063     6.7698     6.7698     0.0000
 25 Cl    17.5600    17.0000    -0.5600     0.8045     0.8045     0.0000
 26 P     13.6720    15.0000     1.3280     2.9280     2.9280     0.0000
 27 C      6.6899     6.0000    -0.6899     4.2284     4.2284    -0.0000
 28 H      0.9340     1.0000     0.0660     1.1365     1.1365    -0.0000
 29 H      0.9161     1.0000     0.0839     1.0976     1.0976    -0.0000
 30 H      0.8263     1.0000     0.1737     1.0111     1.0111     0.0000
 31 C      6.5314     6.0000    -0.5314     4.2087     4.2087     0.0000
 32 H      0.8488     1.0000     0.1512     1.0436     1.0436     0.0000
 33 H      0.9549     1.0000     0.0451     1.1106     1.1106    -0.0000
 34 H      0.9691     1.0000     0.0309     1.1104     1.1104     0.0000
 35 C      6.3266     6.0000    -0.3266     4.1947     4.1947     0.0000
 36 H      0.8580     1.0000     0.1420     1.0329     1.0329     0.0000
 37 H      0.8034     1.0000     0.1966     0.9186     0.9186     0.0000
 38 C      5.7372     6.0000     0.2628     2.4394     2.4394     0.0000
 39 P     13.8568    15.0000     1.1432     3.2980     3.2980     0.0000
 40 H      0.8346     1.0000     0.1654     1.0210     1.0210    -0.0000
 41 H      0.9036     1.0000     0.0964     1.0667     1.0667    -0.0000
 42 H      0.9502     1.0000     0.0498     1.1941     1.1941    -0.0000
 43 C      5.9913     6.0000     0.0087     3.5545     3.5545     0.0000
 44 C      6.5552     6.0000    -0.5552     4.0858     4.0858    -0.0000
 45 C      6.5722     6.0000    -0.5722     4.1595     4.1595     0.0000
 46 H      0.8076     1.0000     0.1924     0.9274     0.9274    -0.0000
 47 H      0.8296     1.0000     0.1704     0.9950     0.9950     0.0000
 48 H      0.9077     1.0000     0.0923     1.0806     1.0806    -0.0000
 49 H      0.8449     1.0000     0.1551     1.0282     1.0282     0.0000
 50 H      0.9544     1.0000     0.0456     1.1018     1.1018    -0.0000

  Mayer bond orders larger than 0.100000
B(  0-C ,  1-C ) :  -0.2187 B(  0-C ,  2-C ) :  -0.3003 B(  0-C ,  3-C ) :   0.4167 
B(  0-C ,  4-C ) :   0.9628 B(  0-C ,  6-H ) :  -0.1023 B(  0-C ,  8-C ) :  -0.1483 
B(  0-C , 12-C ) :   0.1044 B(  0-C , 24-Ru) :   1.0007 B(  0-C , 38-C ) :   0.2405 
B(  1-C ,  4-C ) :  -0.1491 B(  1-C , 20-C ) :   0.9591 B(  1-C , 22-H ) :  -0.1524 
B(  1-C , 23-H ) :  -0.1188 B(  1-C , 26-P ) :   0.2576 B(  1-C , 38-C ) :   0.1319 
B(  2-C ,  3-C ) :   0.7519 B(  2-C ,  8-C ) :  -0.1360 B(  2-C , 12-C ) :   1.2047 
B(  2-C , 14-H ) :  -0.1029 B(  2-C , 20-C ) :   0.1022 B(  2-C , 25-Cl) :  -0.1330 
B(  2-C , 38-C ) :   0.3100 B(  3-C ,  8-C ) :   1.1633 B(  3-C , 12-C ) :  -0.2321 
B(  3-C , 14-H ) :   0.1110 B(  3-C , 38-C ) :  -0.2674 B(  4-C ,  5-H ) :   0.9619 
B(  4-C ,  6-H ) :   0.9785 B(  4-C ,  7-H ) :   0.9563 B(  4-C ,  8-C ) :   0.1359 
B(  4-C , 20-C ) :   0.1259 B(  4-C , 24-Ru) :   0.1223 B(  8-C ,  9-H ) :   0.9562 
B(  8-C , 10-H ) :   0.9566 B(  8-C , 11-H ) :   0.9480 B(  8-C , 12-C ) :   0.2506 
B(  8-C , 24-Ru) :   0.2461 B(  8-C , 38-C ) :   0.1198 B( 12-C , 13-H ) :   0.9372 
B( 12-C , 14-H ) :   0.9693 B( 12-C , 15-H ) :   0.9773 B( 12-C , 16-C ) :   0.1008 
B( 12-C , 24-Ru) :   0.3520 B( 12-C , 38-C ) :  -0.1741 B( 16-C , 17-H ) :   0.9703 
B( 16-C , 18-H ) :   0.9673 B( 16-C , 19-H ) :   0.9634 B( 16-C , 20-C ) :   0.1090 
B( 16-C , 38-C ) :   0.9455 B( 18-H , 19-H ) :   0.1028 B( 20-C , 21-H ) :   0.9354 
B( 20-C , 22-H ) :   1.0353 B( 20-C , 23-H ) :   0.9930 B( 20-C , 24-Ru) :   0.1339 
B( 20-C , 38-C ) :  -0.2335 B( 24-Ru, 25-Cl) :   0.8067 B( 24-Ru, 26-P ) :   0.9327 
B( 24-Ru, 27-C ) :   0.2007 B( 24-Ru, 31-C ) :   0.1733 B( 24-Ru, 38-C ) :   1.2265 
B( 24-Ru, 39-P ) :   0.9668 B( 24-Ru, 44-C ) :   0.1482 B( 24-Ru, 45-C ) :   0.2100 
B( 25-Cl, 26-P ) :  -0.1580 B( 25-Cl, 39-P ) :   0.1264 B( 26-P , 27-C ) :   0.8206 
B( 26-P , 31-C ) :   0.8136 B( 26-P , 35-C ) :   0.5050 B( 26-P , 39-P ) :  -0.3278 
B( 26-P , 43-C ) :   0.1819 B( 27-C , 28-H ) :   1.0136 B( 27-C , 29-H ) :   0.9951 
B( 27-C , 30-H ) :   0.9492 B( 27-C , 31-C ) :   0.1570 B( 27-C , 35-C ) :   0.1510 
B( 31-C , 32-H ) :   0.9760 B( 31-C , 33-H ) :   0.9568 B( 31-C , 34-H ) :   1.0007 
B( 31-C , 35-C ) :   0.1592 B( 35-C , 36-H ) :   0.8997 B( 35-C , 37-H ) :   0.8695 
B( 35-C , 39-P ) :   0.5347 B( 35-C , 43-C ) :   0.9861 B( 39-P , 43-C ) :   0.2671 
B( 39-P , 44-C ) :   0.8686 B( 39-P , 45-C ) :   0.7427 B( 40-H , 44-C ) :   0.9439 
B( 41-H , 44-C ) :   0.9625 B( 42-H , 44-C ) :   0.9582 B( 43-C , 45-C ) :   0.1680 
B( 43-C , 46-H ) :   0.9207 B( 43-C , 47-H ) :   0.9095 B( 44-C , 45-C ) :   0.1372 
B( 45-C , 48-H ) :   0.9795 B( 45-C , 49-H ) :   0.9605 B( 45-C , 50-H ) :   0.9923 


-------
TIMINGS
-------

Total SCF time: 0 days 1 hours 6 min 57 sec 

Total time                  ....    4017.962 sec
Sum of individual times     ....    4014.889 sec  ( 99.9%)

Fock matrix formation       ....    3999.855 sec  ( 99.5%)
  XC integration            ....      20.367 sec  (  0.5% of F)
    Basis function eval.    ....       3.262 sec  ( 16.0% of XC)
    Density eval.           ....       8.365 sec  ( 41.1% of XC)
    XC-Functional eval.     ....       0.177 sec  (  0.9% of XC)
    XC-Potential eval.      ....       6.694 sec  ( 32.9% of XC)
Diagonalization             ....       4.826 sec  (  0.1%)
Density matrix formation    ....       0.271 sec  (  0.0%)
Population analysis         ....       0.425 sec  (  0.0%)
Initial guess               ....       3.115 sec  (  0.1%)
Orbital Transformation      ....       0.000 sec  (  0.0%)
Orbital Orthonormalization  ....       0.000 sec  (  0.0%)
DIIS solution               ....       4.867 sec  (  0.1%)
Grid generation             ....       1.530 sec  (  0.0%)

-------------------------   --------------------
FINAL SINGLE POINT ENERGY     -1866.308409454119
-------------------------   --------------------


                            ***************************************
                            *     ORCA property calculations      *
                            ***************************************

                                    ---------------------
                                    Active property flags
                                    ---------------------
   (+) Dipole Moment


------------------------------------------------------------------------------
                       ORCA ELECTRIC PROPERTIES CALCULATION
------------------------------------------------------------------------------

Dipole Moment Calculation                       ... on
Quadrupole Moment Calculation                   ... off
Polarizability Calculation                      ... off
GBWName                                         ... MOR33_pr28.gbw
Electron density file                           ... MOR33_pr28.scfp
The origin for moment calculation is the CENTER OF MASS  = ( 0.007976, -0.006902 -0.069662)

-------------
DIPOLE MOMENT
-------------
                                X             Y             Z
Electronic contribution:     11.96711      -1.42804     -17.64033
Nuclear contribution   :    -12.48154       1.60484      19.54441
                        -----------------------------------------
Total Dipole Moment    :     -0.51442       0.17680       1.90408
                        -----------------------------------------
Magnitude (a.u.)       :      1.98025
Magnitude (Debye)      :      5.03340



--------------------
Rotational spectrum 
--------------------
 
Rotational constants in cm-1:     0.010225     0.008868     0.007900 
Rotational constants in MHz :   306.523373   265.843264   236.824033 

 Dipole components along the rotational axes: 
x,y,z [a.u.] :    -0.462878    -0.202644     1.914701 
x,y,z [Debye]:    -1.176542    -0.515080     4.866783 

 

Timings for individual modules:

Sum of individual times         ...     4026.369 sec (=  67.106 min)
GTO integral calculation        ...        8.007 sec (=   0.133 min)   0.2 %
SCF iterations                  ...     4018.361 sec (=  66.973 min)  99.8 %
                             ****ORCA TERMINATED NORMALLY****
TOTAL RUN TIME: 0 days 1 hours 7 minutes 7 seconds 136 msec
