
                                 *****************
                                 * O   R   C   A *
                                 *****************

           --- An Ab Initio, DFT and Semiempirical electronic structure package ---

                  #######################################################
                  #                        -***-                        #
                  #          Department of theory and spectroscopy      #
                  #               Directorship: Frank Neese             #
                  #        Max Planck Institute fuer Kohlenforschung    #
                  #                Kaiser Wilhelm Platz 1               #
                  #                 D-45470 Muelheim/Ruhr               #
                  #                      Germany                        #
                  #                                                     #
                  #                  All rights reserved                #
                  #                        -***-                        #
                  #######################################################


                         Program Version 4.2.0 -  RELEASE  -


 With contributions from (in alphabetic order):
   Daniel Aravena         : Magnetic Suceptibility
   Michael Atanasov       : Ab Initio Ligand Field Theory (pilot matlab implementation)
   Alexander A. Auer      : GIAO ZORA, VPT2
   Ute Becker             : Parallelization
   Giovanni Bistoni       : ED, misc. LED, open-shell LED, HFLED
   Martin Brehm           : Molecular dynamics
   Dmytro Bykov           : SCF Hessian
   Vijay G. Chilkuri      : MRCI spin determinant printing, contributions to CSF-ICE
   Dipayan Datta          : RHF DLPNO-CCSD density
   Achintya Kumar Dutta   : EOM-CC, STEOM-CC
   Dmitry Ganyushin       : Spin-Orbit,Spin-Spin,Magnetic field MRCI
   Miquel Garcia          : C-PCM Hessian, Gaussian charge scheme
   Yang Guo               : DLPNO-NEVPT2, CIM, IAO-localization
   Andreas Hansen         : Spin unrestricted coupled pair/coupled cluster methods
   Benjamin Helmich-Paris : CASSCF linear response (MC-RPA)
   Lee Huntington         : MR-EOM, pCC
   Robert Izsak           : Overlap fitted RIJCOSX, COSX-SCS-MP3, EOM
   Christian Kollmar      : KDIIS, OOCD, Brueckner-CCSD(T), CCSD density
   Simone Kossmann        : Meta GGA functionals, TD-DFT gradient, OOMP2, MP2 Hessian
   Martin Krupicka        : AUTO-CI
   Lucas Lang             : DCDCAS
   Dagmar Lenk            : GEPOL surface, SMD
   Dimitrios Liakos       : Extrapolation schemes; Compound Job, initial MDCI parallelization
   Dimitrios Manganas     : Further ROCIS development; embedding schemes
   Dimitrios Pantazis     : SARC Basis sets
   Taras Petrenko         : DFT Hessian,TD-DFT gradient, ASA, ECA, R-Raman, ABS, FL, XAS/XES, NRVS
   Peter Pinski           : DLPNO-MP2, DLPNO-MP2 Gradient
   Christoph Reimann      : Effective Core Potentials
   Marius Retegan         : Local ZFS, SOC
   Christoph Riplinger    : Optimizer, TS searches, QM/MM, DLPNO-CCSD(T), (RO)-DLPNO pert. Triples
   Tobias Risthaus        : Range-separated hybrids, TD-DFT gradient, RPA, STAB
   Michael Roemelt        : Original ROCIS implementation
   Masaaki Saitow         : Open-shell DLPNO-CCSD energy and density
   Barbara Sandhoefer     : DKH picture change effects
   Avijit Sen             : IP-ROCIS
   Kantharuban Sivalingam : CASSCF convergence, NEVPT2, FIC-MRCI
   Bernardo de Souza      : ESD, SOC TD-DFT
   Georgi Stoychev        : AutoAux, RI-MP2 NMR
   Willem Van den Heuvel  : Paramagnetic NMR
   Boris Wezisla          : Elementary symmetry handling
   Frank Wennmohs         : Technical directorship


 We gratefully acknowledge several colleagues who have allowed us to
 interface, adapt or use parts of their codes:
   Stefan Grimme, W. Hujo, H. Kruse,             : VdW corrections, initial TS optimization,
                  C. Bannwarth                     DFT functionals, gCP, sTDA/sTD-DF
   Ed Valeev, F. Pavosevic, A. Kumar             : LibInt (2-el integral package), F12 methods
   Garnet Chan, S. Sharma, J. Yang, R. Olivares  : DMRG
   Ulf Ekstrom                                   : XCFun DFT Library
   Mihaly Kallay                                 : mrcc  (arbitrary order and MRCC methods)
   Andreas Klamt, Michael Diedenhofen            : otool_cosmo (COSMO solvation model)
   Jiri Pittner, Ondrej Demel                    : Mk-CCSD
   Frank Weinhold                                : gennbo (NPA and NBO analysis)
   Christopher J. Cramer and Donald G. Truhlar   : smd solvation model
   Lars Goerigk                                  : TD-DFT with DH, B97 family of functionals
   V. Asgeirsson, H. Jonsson                     : NEB implementation
   FAccTs GmbH                                   : IRC, NEB, NEB-TS, Multilevel, MM, QM/MM, CI optimization
   S Lehtola, MJT Oliveira, MAL Marques          : LibXC Library


 Your calculation uses the libint2 library for the computation of 2-el integrals
 For citations please refer to: http://libint.valeyev.net

 Your ORCA version has been built with support for libXC version: 4.2.3
 For citations please refer to: https://tddft.org/programs/libxc/

 This ORCA versions uses:
   CBLAS   interface :  Fast vector & matrix operations
   LAPACKE interface :  Fast linear algebra routines
   SCALAPACK package :  Parallel linear algebra routines


----- Orbital basis set information -----
Your calculation utilizes the basis: def2-SVP
   F. Weigend and R. Ahlrichs, Phys. Chem. Chem. Phys. 7, 3297 (2005).

----- AuxJ basis set information -----
Your calculation utilizes the auxiliary basis: def2/J
   F. Weigend, Phys. Chem. Chem. Phys. 8, 1057 (2006).

================================================================================
                                        WARNINGS
                       Please study these warnings very carefully!
================================================================================


INFO   : the flag for use of LIBINT has been found!

================================================================================
                                       INPUT FILE
================================================================================
NAME = MOR32_pr24_atom44.inp
|  1> # input to generate an atomic fitting density for Ru
|  2> # this file is use internally by ORCA
|  3> #
|  4> # atomic ground state (S=5): 1s2 2s2 2p6 3s2 3p6 4s2 3d10 4p6 5s2 4d6 
|  5> #
|  6> ! RHF AllowRHF def2-SVP def2/J  NoMulliken NoLoewdin NoMayer NoPrintMOs 
|  7> 
|  8> %output print[p_atomdensfit] 2 end
|  9> 
| 10> %scf
| 11>   guess hcore
| 12>   maxiter 1000
| 13>   maxdisk 500000
| 14>   SCFMode Conventional
| 15>   lshift 1.000000
| 16>   hftyp rohf
| 17>   rohf_case sahf
| 18>   rohf_numop   2
| 19>   rohf_norb[1] 5
| 20>   rohf_nel[1]  6
| 21> end
| 22> 
| 23> %basis
| 24>   NewECP 44
| 25>     N_core 28
| 26>     lmax f
| 27>     s 4
| 28>       1      11.1052693000    209.8229712000  2
| 29>       2       5.4147454000     30.6547264000  2
| 30>       3      11.3600000000     28.3406163000  2
| 31>       4       5.6800000000      4.9446292000  2
| 32>     p 4
| 33>       1       9.7712707000    146.3361823000  2
| 34>       2       5.0739908000     24.1278772000  2
| 35>       3      11.3600000000     28.3406163000  2
| 36>       4       5.6800000000      4.9446292000  2
| 37>     d 4
| 38>       1       7.6714231000     67.5158967000  2
| 39>       2       4.1365647000      9.8701041000  2
| 40>       3      11.3600000000     28.3406163000  2
| 41>       4       5.6800000000      4.9446292000  2
| 42>     f 2
| 43>       1      11.3600000000    -28.3406163000  2
| 44>       2       5.6800000000     -4.9446292000  2
| 45>   end
| 46>   NewGTO 44
| 47>     s 2 
| 48>      1      16.0000000000     -1.5737642279
| 49>      2      13.9105816940      2.5589062345
| 50>     s 1 
| 51>      1       4.7967971407      1.0000000000
| 52>     s 1 
| 53>      1       1.1555425594      1.0000000000
| 54>     s 1 
| 55>      1       0.5245574118      1.0000000000
| 56>     s 1 
| 57>      1       0.1073457265      1.0000000000
| 58>     s 1 
| 59>      1       0.0394327602      1.0000000000
| 60>     p 4 
| 61>      1      11.1872086710      0.0614129072
| 62>      2       6.2477688734     -0.2622856795
| 63>      3       1.6279472859      0.5523344774
| 64>      4       0.7932649354      0.5793783366
| 65>     p 1 
| 66>      1       0.3670727686      1.0000000000
| 67>     p 1 
| 68>      1       0.1150000000      1.0000000000
| 69>     p 1 
| 70>      1       0.0370000000      1.0000000000
| 71>     d 3 
| 72>      1       5.7341846619     -0.0576319015
| 73>      2       2.2483686294      0.3562966266
| 74>      3       0.9837697836      0.7306439889
| 75>     d 1 
| 76>      1       0.4037944558      1.0000000000
| 77>     d 1 
| 78>      1       0.1497861817      1.0000000000
| 79>   end
| 80>   NewAuxGTO 44
| 81>     S 1
| 82>      1 1310.72 1.0
| 83>     S 1
| 84>      1  655.36 1.0
| 85>     S 1
| 86>      1  327.68 1.0
| 87>     S 1
| 88>      1  163.84 1.0
| 89>     S 1
| 90>      1   81.82 1.0
| 91>     S 1
| 92>      1   40.96 1.0
| 93>     S 1
| 94>      1   20.48 1.0
| 95>     S 1
| 96>      1   10.24 1.0
| 97>     S 1
| 98>      1    5.12 1.0
| 99>     S 1
|100>      1    2.56 1.0
|101>     S 1
|102>      1    1.28 1.0
|103>     S 1
|104>      1    0.64 1.0
|105>     S 1
|106>      1    0.32 1.0
|107>     S 1
|108>      1    0.16 1.0
|109>     S 1
|110>      1    0.08 1.0
|111>     S 1
|112>      1    0.04 1.0
|113>     S 1
|114>      1    0.02 1.0
|115>     S 1
|116>      1    0.01 1.0
|117>   end
|118> end
|119> 
|120> * xyz 0 5
|121> 44  0.0 0.0 0.0
|122> *
|123> 
|124> 
|125>                          ****END OF INPUT****
================================================================================

                       ****************************
                       * Single Point Calculation *
                       ****************************

---------------------------------
CARTESIAN COORDINATES (ANGSTROEM)
---------------------------------
  Ru     0.000000    0.000000    0.000000

----------------------------
CARTESIAN COORDINATES (A.U.)
----------------------------
  NO LB      ZA    FRAG     MASS         X           Y           Z
   0 Ru   16.0000*   0   101.070    0.000000    0.000000    0.000000
* core charge reduced due to ECP

--------------------------------
INTERNAL COORDINATES (ANGSTROEM)
--------------------------------
 Ru     0   0   0     0.000000000000     0.00000000     0.00000000

---------------------------
INTERNAL COORDINATES (A.U.)
---------------------------
 Ru     0   0   0     0.000000000000     0.00000000     0.00000000

---------------------
BASIS SET INFORMATION
---------------------
There are 1 groups of distinct atoms

 Group   1 Type Ru  : 7s7p5d contracted to 6s4p3d pattern {211111/4111/311}

Atom   0Ru   basis set group =>   1
---------------------------------
AUXILIARY/J BASIS SET INFORMATION
---------------------------------
There are 1 groups of distinct atoms

 Group   1 Type Ru  : 18s contracted to 18s pattern {111111111111111111}

Atom   0Ru   basis set group =>   1
-------------------------
ECP PARAMETER INFORMATION
-------------------------

 Group 1, Type Ru ECP (replacing 28 core electrons, lmax=3)

Atom   0Ru   ECP group =>   1

------------------------------------------------------------------------------
                           ORCA GTO INTEGRAL CALCULATION
------------------------------------------------------------------------------

                         BASIS SET STATISTICS AND STARTUP INFO

 # of primitive gaussian shells          ...   19
 # of primitive gaussian functions       ...   53
 # of contracted shells                  ...   13
 # of contracted basis functions         ...   33
 Highest angular momentum                ...    2
 Maximum contraction depth               ...    4
 Integral package used                   ... LIBINT
 Integral threshhold            Thresh   ...  1.000e-10
 Primitive cut-off              TCut     ...  1.000e-11
 Storage cut-off                TCutStore... -1.000e+00
 Buffer length                           ... 1048576 integrals/buffer
 Generate file with integrals 4 distinct ...false


------------------------------ INTEGRAL EVALUATION ----------------------------


 * One electron integrals 

   ECP integrals                         ... done
 Pre-screening matrix                    ... done
 Shell pair data                         ... done (   0.000 sec)
 Statistics run                          ... done
 Maximum amount of storage needed        ...     1 MB
 Maximum amount of storage dedicated     ... 500000 MB
 Beginning two electron integral evaluation:
 Starting repulsion integrals
  <ss|ss>  ...          231 b.         0 skpd (  0.0%)     0.000 s. (  0.000 ms/b)
  <ss|sp>  ...          504 b.         0 skpd (  0.0%)     0.000 s. (  0.000 ms/b)
  <ss|sd>  ...          378 b.         0 skpd (  0.0%)     0.000 s. (  0.001 ms/b)
  <ss|pp>  ...          210 b.         0 skpd (  0.0%)     0.000 s. (  0.001 ms/b)
  <ss|pd>  ...          252 b.         0 skpd (  0.0%)     0.000 s. (  0.001 ms/b)
  <ss|dd>  ...          126 b.         0 skpd (  0.0%)     0.000 s. (  0.002 ms/b)
  <sp|sp>  ...          300 b.         0 skpd (  0.0%)     0.000 s. (  0.001 ms/b)
  <sp|sd>  ...          432 b.         0 skpd (  0.0%)     0.000 s. (  0.001 ms/b)
  <sp|pp>  ...          240 b.         0 skpd (  0.0%)     0.000 s. (  0.002 ms/b)
  <sp|pd>  ...          288 b.         0 skpd (  0.0%)     0.001 s. (  0.003 ms/b)
  <sp|dd>  ...          144 b.         0 skpd (  0.0%)     0.001 s. (  0.005 ms/b)
  <sd|sd>  ...          171 b.         0 skpd (  0.0%)     0.000 s. (  0.002 ms/b)
  <sd|pp>  ...          180 b.         0 skpd (  0.0%)     0.001 s. (  0.003 ms/b)
  <sd|pd>  ...          216 b.         0 skpd (  0.0%)     0.001 s. (  0.006 ms/b)
  <sd|dd>  ...          108 b.         0 skpd (  0.0%)     0.001 s. (  0.011 ms/b)
  <pp|pp>  ...           55 b.         0 skpd (  0.0%)     0.000 s. (  0.007 ms/b)
  <pp|pd>  ...          120 b.         0 skpd (  0.0%)     0.001 s. (  0.010 ms/b)
  <pp|dd>  ...           60 b.         0 skpd (  0.0%)     0.001 s. (  0.019 ms/b)
  <pd|pd>  ...           78 b.         0 skpd (  0.0%)     0.002 s. (  0.021 ms/b)
  <pd|dd>  ...           72 b.         0 skpd (  0.0%)     0.003 s. (  0.037 ms/b)
  <dd|dd>  ...           21 b.         0 skpd (  0.0%)     0.002 s. (  0.089 ms/b)


                                      INTEGRAL STATISTICS

Integral type statistics:
 Number of integrals retained            ...     157641 
 One   Center Integrals retained         ...     157641 (100.0%)
 Two   Center Integrals retained         ...          0 (  0.0%)
 Three Center Integrals retained         ...          0 (  0.0%)
 Four  Center Integrals retained         ...          0 (  0.0%)

Storage statistics:
 Number of char integrals                ...          0 (  0.0%)
 Number of short int integrals           ...          0 (  0.0%)
 Number of double/float integrals        ...     157641 (100.0%)
 Amount of memory used                   ...          1 MB
 Amount of memory estimated              ...          1 MB ( 94.1%)

Prescreening statistics:
 Total number of shell quadruples        ...       4186 
 Number of skipped shell quadruples      ...          0 (  0.0%)
 # of negligible batches done            ...          0 (  0.0%)

Timings:
 Total evaluation time               ...     0.186 sec (   0.003 min)
 One electron matrix time            ...     0.015 sec (   0.000 min) =  8.2%
 Schwartz matrix evaluation time     ...     0.075 sec (   0.001 min) = 40.2%
 Statistics run                      ...     0.002 sec (   0.000 min) =  1.0%
 Repulsion integral time             ...     0.016 sec (   0.000 min) =  8.6%

-------------------------------------------------------------------------------
                                 ORCA SCF
-------------------------------------------------------------------------------

------------
SCF SETTINGS
------------
Hamiltonian:
 Ab initio Hamiltonian  Method          .... Hartree-Fock(GTOs)


General Settings:
 Integral files         IntName         .... MOR32_pr24_atom44
 Hartree-Fock type      HFTyp           .... ROHF
 Total Charge           Charge          ....    0
 Multiplicity           Mult            ....    5
 Number of Electrons    NEL             ....   16
 Basis Dimension        Dim             ....   33
 Nuclear Repulsion      ENuc            ....      0.0000000000 Eh

Convergence Acceleration:
 DIIS                   CNVDIIS         .... on
   Start iteration      DIISMaxIt       ....    12
   Startup error        DIISStart       ....  0.200000
   # of expansion vecs  DIISMaxEq       ....     5
   Bias factor          DIISBfac        ....   1.050
   Max. coefficient     DIISMaxC        ....  10.000
 Newton-Raphson         CNVNR           .... off
 SOSCF                  CNVSOSCF        .... off
 Level Shifting         CNVShift        .... on
   Level shift para.    LevelShift      ....    1.0000
   Turn off err/grad.   ShiftErr        ....    0.0010
 Zerner damping         CNVZerner       .... off
 Static damping         CNVDamp         .... on
   Fraction old density DampFac         ....    0.7000
   Max. Damping (<1)    DampMax         ....    0.9800
   Min. Damping (>=0)   DampMin         ....    0.0000
   Turn off err/grad.   DampErr         ....    0.1000
 Fernandez-Rico         CNVRico         .... off

SCF Procedure:
 Maximum # iterations   MaxIter         ....  1000
 SCF integral mode      SCFMode         .... Conventional
 Integral Threshold     Thresh          ....  1.000e-10 Eh
 Primitive CutOff       TCut            ....  1.000e-11 Eh
 Integral Buffer length BufferLength    .... 1048576
 Integral index format  IndFormat       ....     0
 Integral value format  ValFormat       ....     0
 Integral Storage       Thresh          ....  1.000e-10 Eh

Convergence Tolerance:
 Convergence Check Mode ConvCheckMode   .... Total+1el-Energy
 Convergence forced     ConvForced      .... 0
 Energy Change          TolE            ....  1.000e-06 Eh
 1-El. energy change                    ....  1.000e-03 Eh
 DIIS Error             TolErr          ....  1.000e-06


Diagonalization of the overlap matrix:
Smallest eigenvalue                        ... 1.927e-02
Time for diagonalization                   ...    0.001 sec
Threshold for overlap eigenvalues          ... 1.000e-08
Number of eigenvalues below threshold      ... 0
Time for construction of square roots      ...    0.021 sec
Total time needed                          ...    0.022 sec

--------------------
INITIAL GUESS: HCORE
--------------------
AVERAGE-CONFIGURATION (SAHF) CASE FOUND

-------------------
FINAL ROHF SETTINGS
-------------------
Number of operators             ... 2
  operator   0:   5 orbitals  10 electrons n(mue)= 2.000
  operator   1:   5 orbitals   6 electrons n(mue)= 1.200
Vector coupling coefficients a and b (Zerner convention):
   1.000    1.000           1.000    1.000 
   1.000    0.972           1.000    1.389 

                      -----------------
                      INTIAL GUESS DONE 
                      -----------------

 InCore treatment chosen:
   Memory dedicated               ...    1024 MB
   Memory needed                  ...      1 MB
   Number of tiny    integrals    ...       0
   Number of small   integrals    ...       0
   Number of regular integrals    ...  157641

--------------
SCF ITERATIONS
--------------
ITER       Energy         Delta-E        Max-DP      RMS-DP      [F,P]     Damp
  0    -85.7850831527   0.000000000000 2.17224503  0.09383316  1.0155360 0.7000
  1    -91.2962065295  -5.511123376801 1.62652321  0.06953505  0.3877918 0.7000
                            ****Activating DIIS****
  2    -91.0812168608   0.214989668712 3.85269179  0.16351578  0.0894493 0.0000
  3    -90.2367344938   0.844482366950 0.03454413  0.00144243  0.2776128 0.7000
  4    -90.2959782370  -0.059243743231 0.03481405  0.00146698  0.2421968 0.7000
  5    -90.3238261426  -0.027847905522 0.03101431  0.00128339  0.2307981 0.7000
  6    -90.3393480429  -0.015521900348 0.02151192  0.00092330  0.2232966 0.7000
  7    -90.2743503920   0.064997650902 1.13506773  0.04230845  0.2671226 0.7000
  8    -93.3529978074  -3.078647415353 2.65733964  0.09799571  0.0734967 0.0000
  9    -93.1842945369   0.168703270498 0.06746420  0.00242019  0.3759750 0.7000
 10    -93.0186997604   0.165594776476 0.04851061  0.00174976  0.4378348 0.7000
 11    -92.9859276666   0.032772093805 0.03387501  0.00122738  0.4433326 0.7000
 12    -92.9648613286   0.021066338012 0.00540425  0.00021843  0.4458192 0.7000
 13    -92.9925719610  -0.027710632433 0.25154133  0.01058791  0.4311966 0.7000
 14    -93.7007532504  -0.708181289402 0.22208211  0.01008168  0.1197919 0.7000
 15    -93.8533115382  -0.152558287770 0.49245530  0.02279318  0.0615458 0.0000
 16    -94.0403380209  -0.187026482706 0.19437024  0.00806907  0.0888875 0.0000
 17    -94.0656165432  -0.025278522284 0.17168810  0.00459288  0.0373648 0.0000
 18    -94.0770851794  -0.011468636188 0.10873347  0.00298609  0.0290270 0.0000
 19    -94.0816393332  -0.004554153890 0.09617071  0.00247288  0.0230290 0.0000
 20    -94.0837881215  -0.002148788289 0.11647442  0.00300807  0.0188466 0.0000
 21    -94.0859830332  -0.002194911665 0.14896343  0.00397870  0.0143913 0.0000
 22    -94.0879776330  -0.001994599783 0.08568369  0.00240737  0.0075119 0.0000
 23    -94.0886095257  -0.000631892707 0.05329558  0.00156941  0.0031451 0.0000
 24    -94.0887563561  -0.000146830378 0.00870988  0.00026481  0.0004121 0.0000
 25    -94.0887591806  -0.000002824509 0.00197154  0.00006132  0.0002259 0.0000
 26    -94.0887599365  -0.000000755947 0.00122143  0.00003767  0.0002238 0.0000
                 **** Energy Check signals convergence ****

               *****************************************************
               *                     SUCCESS                       *
               *           SCF CONVERGED AFTER  27 CYCLES          *
               *****************************************************


----------------
TOTAL SCF ENERGY
----------------

Total Energy       :          -94.08876015 Eh           -2560.28533 eV

Components:
Nuclear Repulsion  :            0.00000000 Eh               0.00000 eV
Electronic Energy  :          -94.08876015 Eh           -2560.28533 eV
One Electron Energy:         -164.81309220 Eh           -4484.79224 eV
Two Electron Energy:           70.72433206 Eh            1924.50692 eV

Virial components:
Potential Energy   :         -128.51260264 Eh           -3497.00570 eV
Kinetic Energy     :           34.42384249 Eh             936.72038 eV
Virial Ratio       :            3.73324398


---------------
SCF CONVERGENCE
---------------

  Last Energy change         ...   -2.0924e-07  Tolerance :   1.0000e-06
  Last MAX-Density change    ...    3.4737e-04  Tolerance :   1.0000e-05
  Last RMS-Density change    ...    1.1728e-05  Tolerance :   1.0000e-06
  Last DIIS Error            ...    2.2226e-04  Tolerance :   1.0000e-06

             **** THE GBW FILE WAS UPDATED (MOR32_pr24_atom44.gbw) ****
             **** DENSITY FILE WAS UPDATED (MOR32_pr24_atom44.scfp) ****
             **** ENERGY FILE WAS UPDATED (MOR32_pr24_atom44.en.tmp) ****
             **** THE GBW FILE WAS UPDATED (MOR32_pr24_atom44.gbw) ****
             **** DENSITY FILE WAS UPDATED (MOR32_pr24_atom44.scfp) ****
----------------
ORBITAL ENERGIES
----------------

  NO   OCC          E(Eh)            E(eV) 
   0   2.0000      -3.516546       -95.6901 
   1   2.0000      -2.211313       -60.1729 
   2   2.0000      -2.210204       -60.1427 
   3   2.0000      -2.202170       -59.9241 
   4   2.0000      -0.370472       -10.0811 
   5   1.2000      -0.436805       -11.8861 
   6   1.2000      -0.436713       -11.8836 
   7   1.2000      -0.417804       -11.3690 
   8   1.2000      -0.415180       -11.2976 
   9   1.2000      -0.246283        -6.7017 
  10   0.0000       0.012304         0.3348 
  11   0.0000       0.012966         0.3528 
  12   0.0000       0.017643         0.4801 
  13   0.0000       0.161081         4.3832 
  14   0.0000       0.220378         5.9968 
  15   0.0000       0.221705         6.0329 
  16   0.0000       0.231316         6.2944 
  17   0.0000       0.449378        12.2282 
  18   0.0000       0.449409        12.2290 
  19   0.0000       0.460769        12.5382 
  20   0.0000       0.456750        12.4288 
  21   0.0000       0.457774        12.4567 
  22   0.0000       1.561611        42.4936 
  23   0.0000       1.564926        42.5838 
  24   0.0000       1.588790        43.2332 
  25   0.0000       1.953930        53.1691 
  26   0.0000       2.077751        56.5385 
  27   0.0000       2.077788        56.5395 
  28   0.0000       2.107202        57.3399 
  29   0.0000       2.091975        56.9255 
  30   0.0000       2.093942        56.9791 
  31   0.0000      28.294878       769.9428 
  32   0.0000      96.889252      2636.4906 
CleanUpVectors: The p-vectors have cracked symmetry
CleanUpVectors: The p-vectors have cracked symmetry
CleanUpVectors: The p-vectors have cracked symmetry
CleanUpVectors: The d-vectors have cracked symmetry at i=4
CleanUpVectors: The d-vectors have cracked symmetry at i=5
CleanUpVectors: The d-vectors have cracked symmetry at i=6
CleanUpVectors: The d-vectors have cracked symmetry at i=7
CleanUpVectors: The d-vectors have cracked symmetry at i=8
CleanUpVectors: The p-vectors have cracked symmetry
CleanUpVectors: The p-vectors have cracked symmetry
CleanUpVectors: The p-vectors have cracked symmetry
CleanUpVectors: The p-vectors have cracked symmetry
CleanUpVectors: The p-vectors have cracked symmetry
CleanUpVectors: The p-vectors have cracked symmetry
CleanUpVectors: The d-vectors have cracked symmetry at i=17
CleanUpVectors: The d-vectors have cracked symmetry at i=18
CleanUpVectors: The d-vectors have cracked symmetry at i=19
CleanUpVectors: The d-vectors have cracked symmetry at i=20
CleanUpVectors: The d-vectors have cracked symmetry at i=21
CleanUpVectors: The p-vectors have cracked symmetry
CleanUpVectors: The p-vectors have cracked symmetry
CleanUpVectors: The p-vectors have cracked symmetry
CleanUpVectors: The d-vectors have cracked symmetry at i=26
CleanUpVectors: The d-vectors have cracked symmetry at i=27
CleanUpVectors: The d-vectors have cracked symmetry at i=28
--------------------------
ATOM BASIS FOR ELEMENT Ru
--------------------------
 NewGTO Ru
 S 7
    1         16.000000000000        -0.243565927589
    2         13.910581694000         0.396032874282
    3          4.796797140700        -0.651904924081
    4          1.155542559400         0.848408070712
    5          0.524557411800         0.453039699033
    6          0.107345726500         0.015963712440
    7          0.039432760200        -0.004004444276
 P 19
    1         11.187208671000         0.004341841004
    2          6.247768873400        -0.018543377442
    3          1.627947285900         0.039049584057
    4          0.793264935400         0.040961562209
    5         11.187208671000        -0.052083965087
    6          6.247768873400         0.222443111663
    7          1.627947285900        -0.468431978696
    8          0.793264935400        -0.491367734103
    9         11.187208671000         0.006783461366
   10          6.247768873400        -0.028971186269
   11          1.627947285900         0.061008992402
   12          0.793264935400         0.063996165334
   13          0.367072768600         0.014532920371
   14          0.367072768600        -0.174334370259
   15          0.367072768600         0.022705461527
   16          0.115000000000         0.000847160506
   17          0.115000000000        -0.010162389220
   18          0.115000000000         0.001323558499
   19          0.037000000000        -0.000069506981
 D 19
    1         16.000000000000         0.000032138972
    2         13.910581694000        -0.000060106491
    3          4.796797140700         0.000308652608
    4          1.155542559400        -0.002779320792
    5          0.524557411800         0.001089592614
    6          0.107345726500         0.025593213122
    7          0.039432760200        -0.059977678221
    8          5.734184661900         0.014218312695
    9          2.248368629400        -0.087901608613
   10          0.983769783600        -0.180256497404
   11          5.734184661900        -0.000901768292
   12          2.248368629400         0.005574985242
   13          0.983769783600         0.011432410950
   14          5.734184661900        -0.028481197701
   15          2.248368629400         0.176078775789
   16          0.983769783600         0.361078072310
   17          5.734184661900        -0.009129189934
   18          2.248368629400         0.056439220161
   19          0.983769783600         0.115737769797
 D 19
    1          5.734184661900         0.002892211018
    2          2.248368629400        -0.017880462078
    3          0.983769783600        -0.036666785933
    4          5.734184661900        -0.019608194232
    5          2.248368629400         0.121223372415
    6          0.983769783600         0.248588175572
    7          5.734184661900         0.004785265538
    8          2.248368629400        -0.029583857621
    9          0.983769783600        -0.060666495626
   10          5.734184661900        -0.008470494030
   11          2.248368629400         0.052366976798
   12          0.983769783600         0.107386974666
   13          5.734184661900        -0.025447725602
   14          2.248368629400         0.157324997971
   15          0.983769783600         0.322620410887
   16          0.403794455800        -0.034445522678
   17          0.403794455800         0.233528776009
   18          0.403794455800        -0.056991336920
   19          0.403794455800         0.100881502893
 P 19
    1         11.187208671000        -0.006288856144
    2          6.247768873400         0.026858798618
    3          1.627947285900        -0.056560619423
    4          0.793264935400        -0.059329987425
    5         11.187208671000         0.000101587765
    6          6.247768873400        -0.000433866708
    7          1.627947285900         0.000913658504
    8          0.793264935400         0.000958393810
    9         11.187208671000         0.004805261695
   10          6.247768873400        -0.020522580452
   11          1.627947285900         0.043217490068
   12          0.793264935400         0.045333540694
   13          0.367072768600         0.014896203754
   14          0.367072768600        -0.000240627549
   15          0.367072768600        -0.011382063074
   16          0.115000000000        -0.038547768080
   17          0.115000000000         0.000622685827
   18          0.115000000000         0.029454022978
   19          0.037000000000         0.819374377172
 P 19
    1         11.187208671000        -0.011506718178
    2          6.247768873400         0.049143535681
    3          1.627947285900        -0.103488948194
    4          0.793264935400        -0.108556059986
    5         11.187208671000         0.000185875102
    6          6.247768873400        -0.000793845784
    7          1.627947285900         0.001671720687
    8          0.793264935400         0.001753572863
    9         11.187208671000         0.008792185865
   10          6.247768873400        -0.037550159225
   11          1.627947285900         0.079075028463
   12          0.793264935400         0.082946765650
   13          0.367072768600        -0.265755590523
   14          0.367072768600         0.004292913650
   15          0.367072768600         0.203061594997
   16          0.115000000000         1.314669615594
   17          0.115000000000        -0.021236667597
   18          0.115000000000        -1.004527914204
   19          0.037000000000        -0.801723870063
 D 19
    1         16.000000000000         0.000040037840
    2         13.910581694000        -0.000074878999
    3          4.796797140700         0.000384833594
    4          1.155542559400        -0.003799123378
    5          0.524557411800         0.001866290427
    6          0.107345726500         0.034059996942
    7          0.039432760200        -0.014447780890
    8          5.734184661900         0.006425944878
    9          2.248368629400        -0.039726998817
   10          0.983769783600        -0.081466650863
   11          5.734184661900        -0.000404177545
   12          2.248368629400         0.002498739279
   13          0.983769783600         0.005124069939
   14          5.734184661900        -0.012853149295
   15          2.248368629400         0.079461784457
   16          0.983769783600         0.162949269867
   17          5.734184661900        -0.004136063264
   18          2.248368629400         0.025570306551
   19          0.983769783600         0.052436058557
 P 19
    1         11.187208671000        -0.068877497140
    2          6.247768873400         0.294165867782
    3          1.627947285900        -0.619469393679
    4          0.793264935400        -0.649800368381
    5         11.187208671000         0.001112620612
    6          6.247768873400        -0.004751842347
    7          1.627947285900         0.010006670454
    8          0.793264935400         0.010496625360
    9         11.187208671000         0.052628711972
   10          6.247768873400        -0.224769647132
   11          1.627947285900         0.473331315003
   12          0.793264935400         0.496506955782
   13          0.367072768600         1.798066391993
   14          0.367072768600        -0.029045273299
   15          0.367072768600        -1.373887295271
   16          0.115000000000        -1.069239998475
   17          0.115000000000         0.017272091907
   18          0.115000000000         0.816997223263
   19          0.037000000000         0.360549916913
 D 19
    1         16.000000000000         0.000371051240
    2         13.910581694000        -0.000693942172
    3          4.796797140700         0.003546366685
    4          1.155542559400        -0.052282625836
    5          0.524557411800         0.114382564687
    6          0.107345726500        -0.216445050243
    7          0.039432760200         0.241386692863
    8          5.734184661900         0.030236191629
    9          2.248368629400        -0.186928641922
   10          0.983769783600        -0.383327481589
   11          5.734184661900        -0.001817558406
   12          2.248368629400         0.011236657338
   13          0.983769783600         0.023042587345
   14          5.734184661900        -0.060007035325
   15          2.248368629400         0.370980372016
   16          0.983769783600         0.760755389126
   17          5.734184661900        -0.019714580854
   18          2.248368629400         0.121881084440
   19          0.983769783600         0.249936920696
 end
  // -----------------------------------------------
  // The basis set
  // -----------------------------------------------
  BAS[ATNO] = new BFNGauss[NSH];
  // Basis function   1 L = s
  InitBFNGauss(BAS[ATNO][  0]);
  BAS[ATNO][  0].l  = 0;
  BAS[ATNO][  0].ng = 7;
  BAS[ATNO][  0].a[  0] =        16.000000000000;     BAS[ATNO][  0].d[  0] =        -0.243565927589;
  BAS[ATNO][  0].a[  1] =        13.910581694000;     BAS[ATNO][  0].d[  1] =         0.396032874282;
  BAS[ATNO][  0].a[  2] =         4.796797140700;     BAS[ATNO][  0].d[  2] =        -0.651904924081;
  BAS[ATNO][  0].a[  3] =         1.155542559400;     BAS[ATNO][  0].d[  3] =         0.848408070712;
  BAS[ATNO][  0].a[  4] =         0.524557411800;     BAS[ATNO][  0].d[  4] =         0.453039699033;
  BAS[ATNO][  0].a[  5] =         0.107345726500;     BAS[ATNO][  0].d[  5] =         0.015963712440;
  BAS[ATNO][  0].a[  6] =         0.039432760200;     BAS[ATNO][  0].d[  6] =        -0.004004444276;

  // Basis function   2 L = p
  InitBFNGauss(BAS[ATNO][  1]);
  BAS[ATNO][  1].l  = 1;
  BAS[ATNO][  1].ng = 19;
  BAS[ATNO][  1].a[  0] =        11.187208671000;     BAS[ATNO][  1].d[  0] =        -0.004341841004;
  BAS[ATNO][  1].a[  1] =         6.247768873400;     BAS[ATNO][  1].d[  1] =         0.018543377442;
  BAS[ATNO][  1].a[  2] =         1.627947285900;     BAS[ATNO][  1].d[  2] =        -0.039049584057;
  BAS[ATNO][  1].a[  3] =         0.793264935400;     BAS[ATNO][  1].d[  3] =        -0.040961562209;
  BAS[ATNO][  1].a[  4] =        11.187208671000;     BAS[ATNO][  1].d[  4] =         0.052083965087;
  BAS[ATNO][  1].a[  5] =         6.247768873400;     BAS[ATNO][  1].d[  5] =        -0.222443111663;
  BAS[ATNO][  1].a[  6] =         1.627947285900;     BAS[ATNO][  1].d[  6] =         0.468431978696;
  BAS[ATNO][  1].a[  7] =         0.793264935400;     BAS[ATNO][  1].d[  7] =         0.491367734103;
  BAS[ATNO][  1].a[  8] =        11.187208671000;     BAS[ATNO][  1].d[  8] =        -0.006783461366;
  BAS[ATNO][  1].a[  9] =         6.247768873400;     BAS[ATNO][  1].d[  9] =         0.028971186269;
  BAS[ATNO][  1].a[ 10] =         1.627947285900;     BAS[ATNO][  1].d[ 10] =        -0.061008992402;
  BAS[ATNO][  1].a[ 11] =         0.793264935400;     BAS[ATNO][  1].d[ 11] =        -0.063996165334;
  BAS[ATNO][  1].a[ 12] =         0.367072768600;     BAS[ATNO][  1].d[ 12] =        -0.014532920371;
  BAS[ATNO][  1].a[ 13] =         0.367072768600;     BAS[ATNO][  1].d[ 13] =         0.174334370259;
  BAS[ATNO][  1].a[ 14] =         0.367072768600;     BAS[ATNO][  1].d[ 14] =        -0.022705461527;
  BAS[ATNO][  1].a[ 15] =         0.115000000000;     BAS[ATNO][  1].d[ 15] =        -0.000847160506;
  BAS[ATNO][  1].a[ 16] =         0.115000000000;     BAS[ATNO][  1].d[ 16] =         0.010162389220;
  BAS[ATNO][  1].a[ 17] =         0.115000000000;     BAS[ATNO][  1].d[ 17] =        -0.001323558499;
  BAS[ATNO][  1].a[ 18] =         0.037000000000;     BAS[ATNO][  1].d[ 18] =         0.000069506981;

  // Basis function   3 L = d
  InitBFNGauss(BAS[ATNO][  2]);
  BAS[ATNO][  2].l  = 2;
  BAS[ATNO][  2].ng = 19;
  BAS[ATNO][  2].a[  0] =        16.000000000000;     BAS[ATNO][  2].d[  0] =         0.000032138972;
  BAS[ATNO][  2].a[  1] =        13.910581694000;     BAS[ATNO][  2].d[  1] =        -0.000060106491;
  BAS[ATNO][  2].a[  2] =         4.796797140700;     BAS[ATNO][  2].d[  2] =         0.000308652608;
  BAS[ATNO][  2].a[  3] =         1.155542559400;     BAS[ATNO][  2].d[  3] =        -0.002779320792;
  BAS[ATNO][  2].a[  4] =         0.524557411800;     BAS[ATNO][  2].d[  4] =         0.001089592614;
  BAS[ATNO][  2].a[  5] =         0.107345726500;     BAS[ATNO][  2].d[  5] =         0.025593213122;
  BAS[ATNO][  2].a[  6] =         0.039432760200;     BAS[ATNO][  2].d[  6] =        -0.059977678221;
  BAS[ATNO][  2].a[  7] =         5.734184661900;     BAS[ATNO][  2].d[  7] =         0.014218312695;
  BAS[ATNO][  2].a[  8] =         2.248368629400;     BAS[ATNO][  2].d[  8] =        -0.087901608613;
  BAS[ATNO][  2].a[  9] =         0.983769783600;     BAS[ATNO][  2].d[  9] =        -0.180256497404;
  BAS[ATNO][  2].a[ 10] =         5.734184661900;     BAS[ATNO][  2].d[ 10] =        -0.000901768292;
  BAS[ATNO][  2].a[ 11] =         2.248368629400;     BAS[ATNO][  2].d[ 11] =         0.005574985242;
  BAS[ATNO][  2].a[ 12] =         0.983769783600;     BAS[ATNO][  2].d[ 12] =         0.011432410950;
  BAS[ATNO][  2].a[ 13] =         5.734184661900;     BAS[ATNO][  2].d[ 13] =        -0.028481197701;
  BAS[ATNO][  2].a[ 14] =         2.248368629400;     BAS[ATNO][  2].d[ 14] =         0.176078775789;
  BAS[ATNO][  2].a[ 15] =         0.983769783600;     BAS[ATNO][  2].d[ 15] =         0.361078072310;
  BAS[ATNO][  2].a[ 16] =         5.734184661900;     BAS[ATNO][  2].d[ 16] =        -0.009129189934;
  BAS[ATNO][  2].a[ 17] =         2.248368629400;     BAS[ATNO][  2].d[ 17] =         0.056439220161;
  BAS[ATNO][  2].a[ 18] =         0.983769783600;     BAS[ATNO][  2].d[ 18] =         0.115737769797;

  // Basis function   4 L = d
  InitBFNGauss(BAS[ATNO][  3]);
  BAS[ATNO][  3].l  = 2;
  BAS[ATNO][  3].ng = 19;
  BAS[ATNO][  3].a[  0] =         5.734184661900;     BAS[ATNO][  3].d[  0] =         0.002892211018;
  BAS[ATNO][  3].a[  1] =         2.248368629400;     BAS[ATNO][  3].d[  1] =        -0.017880462078;
  BAS[ATNO][  3].a[  2] =         0.983769783600;     BAS[ATNO][  3].d[  2] =        -0.036666785933;
  BAS[ATNO][  3].a[  3] =         5.734184661900;     BAS[ATNO][  3].d[  3] =        -0.019608194232;
  BAS[ATNO][  3].a[  4] =         2.248368629400;     BAS[ATNO][  3].d[  4] =         0.121223372415;
  BAS[ATNO][  3].a[  5] =         0.983769783600;     BAS[ATNO][  3].d[  5] =         0.248588175572;
  BAS[ATNO][  3].a[  6] =         5.734184661900;     BAS[ATNO][  3].d[  6] =         0.004785265538;
  BAS[ATNO][  3].a[  7] =         2.248368629400;     BAS[ATNO][  3].d[  7] =        -0.029583857621;
  BAS[ATNO][  3].a[  8] =         0.983769783600;     BAS[ATNO][  3].d[  8] =        -0.060666495626;
  BAS[ATNO][  3].a[  9] =         5.734184661900;     BAS[ATNO][  3].d[  9] =        -0.008470494030;
  BAS[ATNO][  3].a[ 10] =         2.248368629400;     BAS[ATNO][  3].d[ 10] =         0.052366976798;
  BAS[ATNO][  3].a[ 11] =         0.983769783600;     BAS[ATNO][  3].d[ 11] =         0.107386974666;
  BAS[ATNO][  3].a[ 12] =         5.734184661900;     BAS[ATNO][  3].d[ 12] =        -0.025447725602;
  BAS[ATNO][  3].a[ 13] =         2.248368629400;     BAS[ATNO][  3].d[ 13] =         0.157324997971;
  BAS[ATNO][  3].a[ 14] =         0.983769783600;     BAS[ATNO][  3].d[ 14] =         0.322620410887;
  BAS[ATNO][  3].a[ 15] =         0.403794455800;     BAS[ATNO][  3].d[ 15] =        -0.034445522678;
  BAS[ATNO][  3].a[ 16] =         0.403794455800;     BAS[ATNO][  3].d[ 16] =         0.233528776009;
  BAS[ATNO][  3].a[ 17] =         0.403794455800;     BAS[ATNO][  3].d[ 17] =        -0.056991336920;
  BAS[ATNO][  3].a[ 18] =         0.403794455800;     BAS[ATNO][  3].d[ 18] =         0.100881502893;

  // Basis function   5 L = p
  InitBFNGauss(BAS[ATNO][  4]);
  BAS[ATNO][  4].l  = 1;
  BAS[ATNO][  4].ng = 19;
  BAS[ATNO][  4].a[  0] =        11.187208671000;     BAS[ATNO][  4].d[  0] =        -0.006288856144;
  BAS[ATNO][  4].a[  1] =         6.247768873400;     BAS[ATNO][  4].d[  1] =         0.026858798618;
  BAS[ATNO][  4].a[  2] =         1.627947285900;     BAS[ATNO][  4].d[  2] =        -0.056560619423;
  BAS[ATNO][  4].a[  3] =         0.793264935400;     BAS[ATNO][  4].d[  3] =        -0.059329987425;
  BAS[ATNO][  4].a[  4] =        11.187208671000;     BAS[ATNO][  4].d[  4] =         0.000101587765;
  BAS[ATNO][  4].a[  5] =         6.247768873400;     BAS[ATNO][  4].d[  5] =        -0.000433866708;
  BAS[ATNO][  4].a[  6] =         1.627947285900;     BAS[ATNO][  4].d[  6] =         0.000913658504;
  BAS[ATNO][  4].a[  7] =         0.793264935400;     BAS[ATNO][  4].d[  7] =         0.000958393810;
  BAS[ATNO][  4].a[  8] =        11.187208671000;     BAS[ATNO][  4].d[  8] =         0.004805261695;
  BAS[ATNO][  4].a[  9] =         6.247768873400;     BAS[ATNO][  4].d[  9] =        -0.020522580452;
  BAS[ATNO][  4].a[ 10] =         1.627947285900;     BAS[ATNO][  4].d[ 10] =         0.043217490068;
  BAS[ATNO][  4].a[ 11] =         0.793264935400;     BAS[ATNO][  4].d[ 11] =         0.045333540694;
  BAS[ATNO][  4].a[ 12] =         0.367072768600;     BAS[ATNO][  4].d[ 12] =         0.014896203754;
  BAS[ATNO][  4].a[ 13] =         0.367072768600;     BAS[ATNO][  4].d[ 13] =        -0.000240627549;
  BAS[ATNO][  4].a[ 14] =         0.367072768600;     BAS[ATNO][  4].d[ 14] =        -0.011382063074;
  BAS[ATNO][  4].a[ 15] =         0.115000000000;     BAS[ATNO][  4].d[ 15] =        -0.038547768080;
  BAS[ATNO][  4].a[ 16] =         0.115000000000;     BAS[ATNO][  4].d[ 16] =         0.000622685827;
  BAS[ATNO][  4].a[ 17] =         0.115000000000;     BAS[ATNO][  4].d[ 17] =         0.029454022978;
  BAS[ATNO][  4].a[ 18] =         0.037000000000;     BAS[ATNO][  4].d[ 18] =         0.819374377172;

  // Basis function   6 L = p
  InitBFNGauss(BAS[ATNO][  5]);
  BAS[ATNO][  5].l  = 1;
  BAS[ATNO][  5].ng = 19;
  BAS[ATNO][  5].a[  0] =        11.187208671000;     BAS[ATNO][  5].d[  0] =        -0.011506718178;
  BAS[ATNO][  5].a[  1] =         6.247768873400;     BAS[ATNO][  5].d[  1] =         0.049143535681;
  BAS[ATNO][  5].a[  2] =         1.627947285900;     BAS[ATNO][  5].d[  2] =        -0.103488948194;
  BAS[ATNO][  5].a[  3] =         0.793264935400;     BAS[ATNO][  5].d[  3] =        -0.108556059986;
  BAS[ATNO][  5].a[  4] =        11.187208671000;     BAS[ATNO][  5].d[  4] =         0.000185875102;
  BAS[ATNO][  5].a[  5] =         6.247768873400;     BAS[ATNO][  5].d[  5] =        -0.000793845784;
  BAS[ATNO][  5].a[  6] =         1.627947285900;     BAS[ATNO][  5].d[  6] =         0.001671720687;
  BAS[ATNO][  5].a[  7] =         0.793264935400;     BAS[ATNO][  5].d[  7] =         0.001753572863;
  BAS[ATNO][  5].a[  8] =        11.187208671000;     BAS[ATNO][  5].d[  8] =         0.008792185865;
  BAS[ATNO][  5].a[  9] =         6.247768873400;     BAS[ATNO][  5].d[  9] =        -0.037550159225;
  BAS[ATNO][  5].a[ 10] =         1.627947285900;     BAS[ATNO][  5].d[ 10] =         0.079075028463;
  BAS[ATNO][  5].a[ 11] =         0.793264935400;     BAS[ATNO][  5].d[ 11] =         0.082946765650;
  BAS[ATNO][  5].a[ 12] =         0.367072768600;     BAS[ATNO][  5].d[ 12] =        -0.265755590523;
  BAS[ATNO][  5].a[ 13] =         0.367072768600;     BAS[ATNO][  5].d[ 13] =         0.004292913650;
  BAS[ATNO][  5].a[ 14] =         0.367072768600;     BAS[ATNO][  5].d[ 14] =         0.203061594997;
  BAS[ATNO][  5].a[ 15] =         0.115000000000;     BAS[ATNO][  5].d[ 15] =         1.314669615594;
  BAS[ATNO][  5].a[ 16] =         0.115000000000;     BAS[ATNO][  5].d[ 16] =        -0.021236667597;
  BAS[ATNO][  5].a[ 17] =         0.115000000000;     BAS[ATNO][  5].d[ 17] =        -1.004527914204;
  BAS[ATNO][  5].a[ 18] =         0.037000000000;     BAS[ATNO][  5].d[ 18] =        -0.801723870063;

  // Basis function   7 L = d
  InitBFNGauss(BAS[ATNO][  6]);
  BAS[ATNO][  6].l  = 2;
  BAS[ATNO][  6].ng = 19;
  BAS[ATNO][  6].a[  0] =        16.000000000000;     BAS[ATNO][  6].d[  0] =         0.000040037840;
  BAS[ATNO][  6].a[  1] =        13.910581694000;     BAS[ATNO][  6].d[  1] =        -0.000074878999;
  BAS[ATNO][  6].a[  2] =         4.796797140700;     BAS[ATNO][  6].d[  2] =         0.000384833594;
  BAS[ATNO][  6].a[  3] =         1.155542559400;     BAS[ATNO][  6].d[  3] =        -0.003799123378;
  BAS[ATNO][  6].a[  4] =         0.524557411800;     BAS[ATNO][  6].d[  4] =         0.001866290427;
  BAS[ATNO][  6].a[  5] =         0.107345726500;     BAS[ATNO][  6].d[  5] =         0.034059996942;
  BAS[ATNO][  6].a[  6] =         0.039432760200;     BAS[ATNO][  6].d[  6] =        -0.014447780890;
  BAS[ATNO][  6].a[  7] =         5.734184661900;     BAS[ATNO][  6].d[  7] =         0.006425944878;
  BAS[ATNO][  6].a[  8] =         2.248368629400;     BAS[ATNO][  6].d[  8] =        -0.039726998817;
  BAS[ATNO][  6].a[  9] =         0.983769783600;     BAS[ATNO][  6].d[  9] =        -0.081466650863;
  BAS[ATNO][  6].a[ 10] =         5.734184661900;     BAS[ATNO][  6].d[ 10] =        -0.000404177545;
  BAS[ATNO][  6].a[ 11] =         2.248368629400;     BAS[ATNO][  6].d[ 11] =         0.002498739279;
  BAS[ATNO][  6].a[ 12] =         0.983769783600;     BAS[ATNO][  6].d[ 12] =         0.005124069939;
  BAS[ATNO][  6].a[ 13] =         5.734184661900;     BAS[ATNO][  6].d[ 13] =        -0.012853149295;
  BAS[ATNO][  6].a[ 14] =         2.248368629400;     BAS[ATNO][  6].d[ 14] =         0.079461784457;
  BAS[ATNO][  6].a[ 15] =         0.983769783600;     BAS[ATNO][  6].d[ 15] =         0.162949269867;
  BAS[ATNO][  6].a[ 16] =         5.734184661900;     BAS[ATNO][  6].d[ 16] =        -0.004136063264;
  BAS[ATNO][  6].a[ 17] =         2.248368629400;     BAS[ATNO][  6].d[ 17] =         0.025570306551;
  BAS[ATNO][  6].a[ 18] =         0.983769783600;     BAS[ATNO][  6].d[ 18] =         0.052436058557;

  // Basis function   8 L = p
  InitBFNGauss(BAS[ATNO][  7]);
  BAS[ATNO][  7].l  = 1;
  BAS[ATNO][  7].ng = 19;
  BAS[ATNO][  7].a[  0] =        11.187208671000;     BAS[ATNO][  7].d[  0] =        -0.068877497140;
  BAS[ATNO][  7].a[  1] =         6.247768873400;     BAS[ATNO][  7].d[  1] =         0.294165867782;
  BAS[ATNO][  7].a[  2] =         1.627947285900;     BAS[ATNO][  7].d[  2] =        -0.619469393679;
  BAS[ATNO][  7].a[  3] =         0.793264935400;     BAS[ATNO][  7].d[  3] =        -0.649800368381;
  BAS[ATNO][  7].a[  4] =        11.187208671000;     BAS[ATNO][  7].d[  4] =         0.001112620612;
  BAS[ATNO][  7].a[  5] =         6.247768873400;     BAS[ATNO][  7].d[  5] =        -0.004751842347;
  BAS[ATNO][  7].a[  6] =         1.627947285900;     BAS[ATNO][  7].d[  6] =         0.010006670454;
  BAS[ATNO][  7].a[  7] =         0.793264935400;     BAS[ATNO][  7].d[  7] =         0.010496625360;
  BAS[ATNO][  7].a[  8] =        11.187208671000;     BAS[ATNO][  7].d[  8] =         0.052628711972;
  BAS[ATNO][  7].a[  9] =         6.247768873400;     BAS[ATNO][  7].d[  9] =        -0.224769647132;
  BAS[ATNO][  7].a[ 10] =         1.627947285900;     BAS[ATNO][  7].d[ 10] =         0.473331315003;
  BAS[ATNO][  7].a[ 11] =         0.793264935400;     BAS[ATNO][  7].d[ 11] =         0.496506955782;
  BAS[ATNO][  7].a[ 12] =         0.367072768600;     BAS[ATNO][  7].d[ 12] =         1.798066391993;
  BAS[ATNO][  7].a[ 13] =         0.367072768600;     BAS[ATNO][  7].d[ 13] =        -0.029045273299;
  BAS[ATNO][  7].a[ 14] =         0.367072768600;     BAS[ATNO][  7].d[ 14] =        -1.373887295271;
  BAS[ATNO][  7].a[ 15] =         0.115000000000;     BAS[ATNO][  7].d[ 15] =        -1.069239998475;
  BAS[ATNO][  7].a[ 16] =         0.115000000000;     BAS[ATNO][  7].d[ 16] =         0.017272091907;
  BAS[ATNO][  7].a[ 17] =         0.115000000000;     BAS[ATNO][  7].d[ 17] =         0.816997223263;
  BAS[ATNO][  7].a[ 18] =         0.037000000000;     BAS[ATNO][  7].d[ 18] =         0.360549916913;

  // Basis function   9 L = d
  InitBFNGauss(BAS[ATNO][  8]);
  BAS[ATNO][  8].l  = 2;
  BAS[ATNO][  8].ng = 19;
  BAS[ATNO][  8].a[  0] =        16.000000000000;     BAS[ATNO][  8].d[  0] =         0.000371051240;
  BAS[ATNO][  8].a[  1] =        13.910581694000;     BAS[ATNO][  8].d[  1] =        -0.000693942172;
  BAS[ATNO][  8].a[  2] =         4.796797140700;     BAS[ATNO][  8].d[  2] =         0.003546366685;
  BAS[ATNO][  8].a[  3] =         1.155542559400;     BAS[ATNO][  8].d[  3] =        -0.052282625836;
  BAS[ATNO][  8].a[  4] =         0.524557411800;     BAS[ATNO][  8].d[  4] =         0.114382564687;
  BAS[ATNO][  8].a[  5] =         0.107345726500;     BAS[ATNO][  8].d[  5] =        -0.216445050243;
  BAS[ATNO][  8].a[  6] =         0.039432760200;     BAS[ATNO][  8].d[  6] =         0.241386692863;
  BAS[ATNO][  8].a[  7] =         5.734184661900;     BAS[ATNO][  8].d[  7] =         0.030236191629;
  BAS[ATNO][  8].a[  8] =         2.248368629400;     BAS[ATNO][  8].d[  8] =        -0.186928641922;
  BAS[ATNO][  8].a[  9] =         0.983769783600;     BAS[ATNO][  8].d[  9] =        -0.383327481589;
  BAS[ATNO][  8].a[ 10] =         5.734184661900;     BAS[ATNO][  8].d[ 10] =        -0.001817558406;
  BAS[ATNO][  8].a[ 11] =         2.248368629400;     BAS[ATNO][  8].d[ 11] =         0.011236657338;
  BAS[ATNO][  8].a[ 12] =         0.983769783600;     BAS[ATNO][  8].d[ 12] =         0.023042587345;
  BAS[ATNO][  8].a[ 13] =         5.734184661900;     BAS[ATNO][  8].d[ 13] =        -0.060007035325;
  BAS[ATNO][  8].a[ 14] =         2.248368629400;     BAS[ATNO][  8].d[ 14] =         0.370980372016;
  BAS[ATNO][  8].a[ 15] =         0.983769783600;     BAS[ATNO][  8].d[ 15] =         0.760755389126;
  BAS[ATNO][  8].a[ 16] =         5.734184661900;     BAS[ATNO][  8].d[ 16] =        -0.019714580854;
  BAS[ATNO][  8].a[ 17] =         2.248368629400;     BAS[ATNO][  8].d[ 17] =         0.121881084440;
  BAS[ATNO][  8].a[ 18] =         0.983769783600;     BAS[ATNO][  8].d[ 18] =         0.249936920696;

-------------------------------------------
RADIAL EXPECTATION VALUES <R**-3> TO <R**3>
-------------------------------------------
   0 :     0.000000     1.233050     1.056489     1.043674     1.200286     1.520594
   1 :     1.294070     1.057012     0.971738     1.150237     1.478583     2.124437
   2 :     1.293671     1.056743     0.971587     1.150499     1.479404     2.126607
   3 :     1.290814     1.054816     0.970509     1.152380     1.485313     2.142267
   4 :     0.645738     0.624673     0.722005     1.668715     3.359301    40.461504
   5 :     0.662840     0.638197     0.731699     1.635490     3.204694    37.394419
   6 :     0.000000     0.165938     0.347627     3.477936    13.970038    63.776896
   7 :     0.000000     0.113806     0.264290     5.081307    30.310659   197.961727
   8 :     0.000000     0.750684     0.731850     1.998202     6.087257    27.160340
   9 :     0.662876     0.638217     0.731715     1.635421     3.204325    37.396441
  10 :     0.657360     0.633904     0.728677     1.645443     3.250102    38.291359
  11 :     0.656594     0.633303     0.728251     1.646861     3.256614    38.419245
  12 :     0.023569     0.053326     0.204379     5.585781    34.378629   229.330532
  13 :     0.023461     0.053164     0.204107     5.591276    34.437135   229.839186
  14 :     0.022701     0.052026     0.202200     5.629959    34.849544   233.428593
  15 :     0.090756     0.129734     0.301317     4.392730    24.528325   163.917560
  16 :     0.090912     0.129900     0.301554     4.387896    24.475670   163.453296
  17 :     0.091998     0.131049     0.303202     4.354000    24.105537   160.184106
  18 :     0.149227     0.183265     0.354930     3.449036    13.115751   263.994141
  19 :     0.149243     0.183276     0.354938     3.449007    13.115628   263.992409
  20 :     0.164236     0.195629     0.364163     3.413857    12.942559   260.352007
  21 :     0.151813     0.185518     0.356662     3.443045    13.089920   263.544103
  22 :     0.152181     0.185839     0.356910     3.442180    13.086156   263.477527
  23 :     0.553304     0.490301     0.591357     2.419825     8.445286    41.337711
  24 :     0.553655     0.490566     0.591543     2.418902     8.438614    41.291151
  25 :     0.556186     0.492482     0.592881     2.412234     8.390429    40.955275
  26 :     0.849419     0.688819     0.709027     1.973019     5.166309    83.655645
  27 :     0.849542     0.688817     0.709028     1.973005     5.166168    83.660057
  28 :     0.847885     0.690375     0.709669     1.974744     5.186161    84.009243
  29 :     0.852488     0.690889     0.710342     1.968946     5.146099    83.213444
  30 :     0.852886     0.691169     0.710520     1.968393     5.143352    83.152136
  31 :     0.000000     5.596849     2.093081     0.619129     0.680224     1.848444
  32 :     0.000000    56.363631     5.982519     0.234895     0.105996     0.190247
Making the total density                ... o.k.
o.k.
Initializing the integrals              ... done
Making exponents                        ... done
Making rho(0)                           ... done (         0.000358766)
Integral calculation                    ... Two index integrals                     ... done
Solving the equation system             ... done
atomic density will be written to file MOR32_pr24_atom44.adf

-------
TIMINGS
-------

Total SCF time: 0 days 0 hours 0 min 0 sec 

Total time                  ....       0.771 sec
Sum of individual times     ....       0.352 sec  ( 45.7%)

Fock matrix formation       ....       0.328 sec  ( 42.5%)
Diagonalization             ....       0.014 sec  (  1.8%)
Density matrix formation    ....       0.001 sec  (  0.1%)
Population analysis         ....       0.000 sec  (  0.0%)
Initial guess               ....       0.000 sec  (  0.1%)
Orbital Transformation      ....       0.000 sec  (  0.0%)
Orbital Orthonormalization  ....       0.000 sec  (  0.0%)
DIIS solution               ....       0.009 sec  (  1.2%)

-------------------------   --------------------
FINAL SINGLE POINT ENERGY       -94.088760145766
-------------------------   --------------------


                            ***************************************
                            *     ORCA property calculations      *
                            ***************************************

                                    ---------------------
                                    Active property flags
                                    ---------------------
   (+) Dipole Moment


------------------------------------------------------------------------------
                       ORCA ELECTRIC PROPERTIES CALCULATION
------------------------------------------------------------------------------

Dipole Moment Calculation                       ... on
Quadrupole Moment Calculation                   ... off
Polarizability Calculation                      ... off
GBWName                                         ... MOR32_pr24_atom44.gbw
Electron density file                           ... MOR32_pr24_atom44.scfp
The origin for moment calculation is the CENTER OF MASS  = ( 0.000000,  0.000000  0.000000)

-------------
DIPOLE MOMENT
-------------
                                X             Y             Z
Electronic contribution:      0.00000      -0.00000       0.00000
Nuclear contribution   :      0.00000       0.00000       0.00000
                        -----------------------------------------
Total Dipole Moment    :      0.00000      -0.00000       0.00000
                        -----------------------------------------
Magnitude (a.u.)       :      0.00000
Magnitude (Debye)      :      0.00000



--------------------
Rotational spectrum 
--------------------
 
Rotational constants in cm-1:     0.000000     0.000000     0.000000 
Rotational constants in MHz :     0.000000     0.000000     0.000000 

 Dipole components along the rotational axes: 
x,y,z [a.u.] :     0.000000    -0.000000     0.000000 
x,y,z [Debye]:     0.000000    -0.000000     0.000000 

 

Timings for individual modules:

Sum of individual times         ...        3.323 sec (=   0.055 min)
GTO integral calculation        ...        1.815 sec (=   0.030 min)  54.6 %
SCF iterations                  ...        1.508 sec (=   0.025 min)  45.4 %
                             ****ORCA TERMINATED NORMALLY****
TOTAL RUN TIME: 0 days 0 hours 0 minutes 4 seconds 181 msec
