
                                 *****************
                                 * O   R   C   A *
                                 *****************

           --- An Ab Initio, DFT and Semiempirical electronic structure package ---

                  #######################################################
                  #                        -***-                        #
                  #          Department of theory and spectroscopy      #
                  #               Directorship: Frank Neese             #
                  #        Max Planck Institute fuer Kohlenforschung    #
                  #                Kaiser Wilhelm Platz 1               #
                  #                 D-45470 Muelheim/Ruhr               #
                  #                      Germany                        #
                  #                                                     #
                  #                  All rights reserved                #
                  #                        -***-                        #
                  #######################################################


                         Program Version 4.2.0 -  RELEASE  -


 With contributions from (in alphabetic order):
   Daniel Aravena         : Magnetic Suceptibility
   Michael Atanasov       : Ab Initio Ligand Field Theory (pilot matlab implementation)
   Alexander A. Auer      : GIAO ZORA, VPT2
   Ute Becker             : Parallelization
   Giovanni Bistoni       : ED, misc. LED, open-shell LED, HFLED
   Martin Brehm           : Molecular dynamics
   Dmytro Bykov           : SCF Hessian
   Vijay G. Chilkuri      : MRCI spin determinant printing, contributions to CSF-ICE
   Dipayan Datta          : RHF DLPNO-CCSD density
   Achintya Kumar Dutta   : EOM-CC, STEOM-CC
   Dmitry Ganyushin       : Spin-Orbit,Spin-Spin,Magnetic field MRCI
   Miquel Garcia          : C-PCM Hessian, Gaussian charge scheme
   Yang Guo               : DLPNO-NEVPT2, CIM, IAO-localization
   Andreas Hansen         : Spin unrestricted coupled pair/coupled cluster methods
   Benjamin Helmich-Paris : CASSCF linear response (MC-RPA)
   Lee Huntington         : MR-EOM, pCC
   Robert Izsak           : Overlap fitted RIJCOSX, COSX-SCS-MP3, EOM
   Christian Kollmar      : KDIIS, OOCD, Brueckner-CCSD(T), CCSD density
   Simone Kossmann        : Meta GGA functionals, TD-DFT gradient, OOMP2, MP2 Hessian
   Martin Krupicka        : AUTO-CI
   Lucas Lang             : DCDCAS
   Dagmar Lenk            : GEPOL surface, SMD
   Dimitrios Liakos       : Extrapolation schemes; Compound Job, initial MDCI parallelization
   Dimitrios Manganas     : Further ROCIS development; embedding schemes
   Dimitrios Pantazis     : SARC Basis sets
   Taras Petrenko         : DFT Hessian,TD-DFT gradient, ASA, ECA, R-Raman, ABS, FL, XAS/XES, NRVS
   Peter Pinski           : DLPNO-MP2, DLPNO-MP2 Gradient
   Christoph Reimann      : Effective Core Potentials
   Marius Retegan         : Local ZFS, SOC
   Christoph Riplinger    : Optimizer, TS searches, QM/MM, DLPNO-CCSD(T), (RO)-DLPNO pert. Triples
   Tobias Risthaus        : Range-separated hybrids, TD-DFT gradient, RPA, STAB
   Michael Roemelt        : Original ROCIS implementation
   Masaaki Saitow         : Open-shell DLPNO-CCSD energy and density
   Barbara Sandhoefer     : DKH picture change effects
   Avijit Sen             : IP-ROCIS
   Kantharuban Sivalingam : CASSCF convergence, NEVPT2, FIC-MRCI
   Bernardo de Souza      : ESD, SOC TD-DFT
   Georgi Stoychev        : AutoAux, RI-MP2 NMR
   Willem Van den Heuvel  : Paramagnetic NMR
   Boris Wezisla          : Elementary symmetry handling
   Frank Wennmohs         : Technical directorship


 We gratefully acknowledge several colleagues who have allowed us to
 interface, adapt or use parts of their codes:
   Stefan Grimme, W. Hujo, H. Kruse,             : VdW corrections, initial TS optimization,
                  C. Bannwarth                     DFT functionals, gCP, sTDA/sTD-DF
   Ed Valeev, F. Pavosevic, A. Kumar             : LibInt (2-el integral package), F12 methods
   Garnet Chan, S. Sharma, J. Yang, R. Olivares  : DMRG
   Ulf Ekstrom                                   : XCFun DFT Library
   Mihaly Kallay                                 : mrcc  (arbitrary order and MRCC methods)
   Andreas Klamt, Michael Diedenhofen            : otool_cosmo (COSMO solvation model)
   Jiri Pittner, Ondrej Demel                    : Mk-CCSD
   Frank Weinhold                                : gennbo (NPA and NBO analysis)
   Christopher J. Cramer and Donald G. Truhlar   : smd solvation model
   Lars Goerigk                                  : TD-DFT with DH, B97 family of functionals
   V. Asgeirsson, H. Jonsson                     : NEB implementation
   FAccTs GmbH                                   : IRC, NEB, NEB-TS, Multilevel, MM, QM/MM, CI optimization
   S Lehtola, MJT Oliveira, MAL Marques          : LibXC Library


 Your calculation uses the libint2 library for the computation of 2-el integrals
 For citations please refer to: http://libint.valeyev.net

 Your ORCA version has been built with support for libXC version: 4.2.3
 For citations please refer to: https://tddft.org/programs/libxc/

 This ORCA versions uses:
   CBLAS   interface :  Fast vector & matrix operations
   LAPACKE interface :  Fast linear algebra routines
   SCALAPACK package :  Parallel linear algebra routines


Your calculation utilizes the DFT-NL dispersion correction.
Cite in your paper:
Vydrov, O. A.; Van Voorhis, T. J. Chem. Phys. 2010, 133, 244103
Hujo, W.; Grimme, S. J. Chem. Theory Comput. 2011, 7, 3866 
   

----- Orbital basis set information -----
Your calculation utilizes the basis: def2-TZVPPD
   F. Weigend and R. Ahlrichs, Phys. Chem. Chem. Phys. 7, 3297 (2005).
   D. Rappoport and F. Furche, J. Chem. Phys. 133 134105 (2010).

----- AuxJK basis set information -----
Your calculation utilizes the auxiliary basis: def2/JK
   H-Ba, Hf-Rn: F. Weigend, J. Comput. Chem. 29, 167 (2008).

cite the ECPs for Mo [Def2-ECP] as follows:
Ce-Yb(ecp-28): M. Dolg, H. Stoll, H.Preuss, J. Chem. Phys., 1989, 90, 1730-1734.
Y-Cd(ecp-28), Hf-Hg(ecp-46): D. Andrae,U. Haeussermann, M. Dolg, H. Stoll, H. Preuss, Theor. Chim. Acta, 1990, 77, 123-141.
In-Sb(ecp-28), Tl-Bi(ecp-46): B. Metz, H. Stoll, M. Dolg, J. Chem. Phys., 2000, 113, 2563-2569.
Te-Xe(ecp-28), Po-Rn(ecp-46): K. A. Peterson, D. Figgen, E. Goll, H. Stoll, M. Dolg, J. Chem. Phys., 2003, 119, 11113-11123.
Rb(ecp-28), Cs(ecp-46): T. Leininger, A. Nicklass, W. Kuechle, H. Stoll, M. Dolg, A. Bergner, Chem. Phys. Lett., 1996, 255, 274-280.
Sr(ecp-28), Ba(ecp-46): M. Kaupp, P. V. Schleyer, H. Stoll and H. Preuss, J. Chem. Phys., 1991, 94, 1360-1366.
La(ecp-46): M. Dolg, H. Stoll, A. Savin, H. Preuss, Theor. Chim. Acta, 1989, 75, 173-194.
Lu(ecp-28): X. Cao, M. Dolg, J. Chem. Phys., 2001, 115, 7348-7355.

ECP parameters for Mo [Def2-ECP] have been obtained from:
TURBOMOLE (7.0.2)

================================================================================
                                        WARNINGS
                       Please study these warnings very carefully!
================================================================================


INFO   : the flag for use of LIBINT has been found!

================================================================================
                                       INPUT FILE
================================================================================
NAME = MOR37_pr38.in
|  1> #
|  2> # MOR37_pr38 wB97X-V/Def2-TZVPPD
|  3> #
|  4> ! wb97x-v def2-tzvppd def2/jk grid4 nofinalgrid
|  5> 
|  6> *xyz 0 1
|  7> Mo       0.000368   -0.000951   -0.664236 
|  8> C        1.186218    1.095679   -1.824431 
|  9> C       -1.543342    0.475450   -1.823831 
| 10> C        0.358600   -1.578355   -1.821075 
| 11> O        0.584740   -2.492846   -2.512436 
| 12> O        1.864319    1.747384   -2.517871 
| 13> O       -2.447606    0.735637   -2.516687 
| 14> P        1.980785   -0.729448    0.688588 
| 15> P       -1.623545   -1.348294    0.688464 
| 16> P       -0.357708    2.080403    0.685812 
| 17> C       -1.633250    3.223236    0.009653 
| 18> H       -1.705660    4.145387    0.596929 
| 19> H       -2.603028    2.718106    0.000627 
| 20> H       -1.373511    3.465952   -1.024212 
| 21> C       -0.858884    2.043709    2.465539 
| 22> H       -1.825180    1.541749    2.565977 
| 23> H       -0.943418    3.056285    2.875390 
| 24> H       -0.120247    1.484663    3.045786 
| 25> C        1.092608    3.215640    0.782943 
| 26> H        0.848407    4.138527    1.320517 
| 27> H        1.418994    3.459201   -0.231490 
| 28> H        1.920240    2.713456    1.291867 
| 29> C       -1.984130   -3.020964    0.008508 
| 30> H       -2.747676   -3.543086    0.595776 
| 31> H       -1.064326   -3.612180   -0.003877 
| 32> H       -2.325682   -2.913010   -1.024422 
| 33> C       -1.336917   -1.769970    2.466070 
| 34> H       -2.171293   -2.349509    2.876428 
| 35> H       -1.219304   -0.852646    3.048800 
| 36> H       -0.419591   -2.357379    2.562237 
| 37> C       -3.329045   -0.653966    0.792955 
| 38> H       -4.006858   -1.325859    1.330979 
| 39> H       -3.705797   -0.489375   -0.219919 
| 40> H       -3.303097    0.312486    1.304224 
| 41> C        3.608641   -0.198569    0.011444 
| 42> H        4.443241   -0.596886    0.599054 
| 43> H        3.657034    0.893802    0.001026 
| 44> H        3.688452   -0.546249   -1.021993 
| 45> C        2.199807   -0.272940    2.467201 
| 46> H        3.119209   -0.704894    2.877753 
| 47> H        1.346620   -0.631939    3.048604 
| 48> H        2.248134    0.815142    2.564989 
| 49> C        2.238042   -2.552971    0.789569 
| 50> H        3.157648   -2.802349    1.330381 
| 51> H        2.288935   -2.958854   -0.224143 
| 52> H        1.387609   -3.017788    1.296348 
| 53> *
| 54> 
| 55> %maxcore 5000
| 56> 
| 57> %pal
| 58> nprocs = 24
| 59> end
| 60> 
| 61> 
| 62>                          ****END OF INPUT****
================================================================================

                       ****************************
                       * Single Point Calculation *
                       ****************************

---------------------------------
CARTESIAN COORDINATES (ANGSTROEM)
---------------------------------
  Mo     0.000368   -0.000951   -0.664236
  C      1.186218    1.095679   -1.824431
  C     -1.543342    0.475450   -1.823831
  C      0.358600   -1.578355   -1.821075
  O      0.584740   -2.492846   -2.512436
  O      1.864319    1.747384   -2.517871
  O     -2.447606    0.735637   -2.516687
  P      1.980785   -0.729448    0.688588
  P     -1.623545   -1.348294    0.688464
  P     -0.357708    2.080403    0.685812
  C     -1.633250    3.223236    0.009653
  H     -1.705660    4.145387    0.596929
  H     -2.603028    2.718106    0.000627
  H     -1.373511    3.465952   -1.024212
  C     -0.858884    2.043709    2.465539
  H     -1.825180    1.541749    2.565977
  H     -0.943418    3.056285    2.875390
  H     -0.120247    1.484663    3.045786
  C      1.092608    3.215640    0.782943
  H      0.848407    4.138527    1.320517
  H      1.418994    3.459201   -0.231490
  H      1.920240    2.713456    1.291867
  C     -1.984130   -3.020964    0.008508
  H     -2.747676   -3.543086    0.595776
  H     -1.064326   -3.612180   -0.003877
  H     -2.325682   -2.913010   -1.024422
  C     -1.336917   -1.769970    2.466070
  H     -2.171293   -2.349509    2.876428
  H     -1.219304   -0.852646    3.048800
  H     -0.419591   -2.357379    2.562237
  C     -3.329045   -0.653966    0.792955
  H     -4.006858   -1.325859    1.330979
  H     -3.705797   -0.489375   -0.219919
  H     -3.303097    0.312486    1.304224
  C      3.608641   -0.198569    0.011444
  H      4.443241   -0.596886    0.599054
  H      3.657034    0.893802    0.001026
  H      3.688452   -0.546249   -1.021993
  C      2.199807   -0.272940    2.467201
  H      3.119209   -0.704894    2.877753
  H      1.346620   -0.631939    3.048604
  H      2.248134    0.815142    2.564989
  C      2.238042   -2.552971    0.789569
  H      3.157648   -2.802349    1.330381
  H      2.288935   -2.958854   -0.224143
  H      1.387609   -3.017788    1.296348

----------------------------
CARTESIAN COORDINATES (A.U.)
----------------------------
  NO LB      ZA    FRAG     MASS         X           Y           Z
   0 Mo   14.0000*   0    95.940    0.000695   -0.001797   -1.255224
   1 C     6.0000    0    12.011    2.241627    2.070533   -3.447675
   2 C     6.0000    0    12.011   -2.916494    0.898470   -3.446541
   3 C     6.0000    0    12.011    0.677656   -2.982659   -3.441333
   4 O     8.0000    0    15.999    1.104998   -4.710796   -4.747816
   5 O     8.0000    0    15.999    3.523052    3.302077   -4.758087
   6 O     8.0000    0    15.999   -4.625305    1.390152   -4.755849
   7 P    15.0000    0    30.974    3.743141   -1.378457    1.301243
   8 P    15.0000    0    30.974   -3.068055   -2.547906    1.301008
   9 P    15.0000    0    30.974   -0.675970    3.931392    1.295997
  10 C     6.0000    0    12.011   -3.086395    6.091033    0.018242
  11 H     1.0000    0     1.008   -3.223230    7.833646    1.128032
  12 H     1.0000    0     1.008   -4.919010    5.136476    0.001185
  13 H     1.0000    0     1.008   -2.595560    6.549700   -1.935480
  14 C     6.0000    0    12.011   -1.623056    3.862050    4.659193
  15 H     1.0000    0     1.008   -3.449090    2.913483    4.848994
  16 H     1.0000    0     1.008   -1.782802    5.775542    5.433700
  17 H     1.0000    0     1.008   -0.227234    2.805606    5.755701
  18 C     6.0000    0    12.011    2.064730    6.076679    1.479548
  19 H     1.0000    0     1.008    1.603257    7.820683    2.495415
  20 H     1.0000    0     1.008    2.681510    6.536943   -0.437453
  21 H     1.0000    0     1.008    3.628728    5.127689    2.441275
  22 C     6.0000    0    12.011   -3.749462   -5.708795    0.016078
  23 H     1.0000    0     1.008   -5.192355   -6.695462    1.125853
  24 H     1.0000    0     1.008   -2.011285   -6.826031   -0.007326
  25 H     1.0000    0     1.008   -4.394902   -5.504791   -1.935877
  26 C     6.0000    0    12.011   -2.526407   -3.344759    4.660197
  27 H     1.0000    0     1.008   -4.103149   -4.439929    5.435661
  28 H     1.0000    0     1.008   -2.304151   -1.611267    5.761397
  29 H     1.0000    0     1.008   -0.792912   -4.454801    4.841926
  30 C     6.0000    0    12.011   -6.290983   -1.235817    1.498468
  31 H     1.0000    0     1.008   -7.571864   -2.505510    2.515186
  32 H     1.0000    0     1.008   -7.002941   -0.924785   -0.415587
  33 H     1.0000    0     1.008   -6.241949    0.590513    2.464626
  34 C     6.0000    0    12.011    6.819343   -0.375241    0.021626
  35 H     1.0000    0     1.008    8.396509   -1.127951    1.132048
  36 H     1.0000    0     1.008    6.910793    1.689041    0.001939
  37 H     1.0000    0     1.008    6.970164   -1.032261   -1.931287
  38 C     6.0000    0    12.011    4.157033   -0.515782    4.662334
  39 H     1.0000    0     1.008    5.894451   -1.332057    5.438165
  40 H     1.0000    0     1.008    2.544743   -1.194192    5.761027
  41 H     1.0000    0     1.008    4.248358    1.540395    4.847127
  42 C     6.0000    0    12.011    4.229286   -4.824416    1.492069
  43 H     1.0000    0     1.008    5.967090   -5.295672    2.514056
  44 H     1.0000    0     1.008    4.325460   -5.591424   -0.423569
  45 H     1.0000    0     1.008    2.622201   -5.702793    2.449743
* core charge reduced due to ECP

--------------------------------
INTERNAL COORDINATES (ANGSTROEM)
--------------------------------
 Mo     0   0   0     0.000000000000     0.00000000     0.00000000
 C      1   0   0     1.988690528319     0.00000000     0.00000000
 C      1   2   0     1.988632454961    89.46128764     0.00000000
 C      1   2   3     1.988670414363    89.46193183    89.46921956
 O      4   1   2     1.168508930647   178.86812029     6.51846240
 O      2   1   3     1.168503062395   178.85991355     6.37056828
 O      3   1   2     1.168520471965   178.87157847    96.25921765
 P      1   2   3     2.506569797128    90.22935200   176.09041719
 P      1   2   3     2.506436490561   176.04395978     3.70655342
 P      1   2   3     2.506567872090    86.64718269   269.72450756
 C     10   1   2     1.841267403973   114.61760223    82.46228783
 H     11  10   1     1.095672749993   111.79777680   183.74525823
 H     11  10   1     1.093483952722   109.31085116    62.27958480
 H     11  10   1     1.093275922630   108.69202984   304.87730741
 C     10   1   2     1.849311230470   122.72291328   204.27412740
 H     15  10   1     1.093517074883   109.69288201   299.29877108
 H     15  10   1     1.095643187873   111.25810817   178.90985062
 H     15  10   1     1.093070733710   109.74799549    58.14003268
 C     10   1   2     1.844346490545   115.28590184   326.49065573
 H     19  10   1     1.095600451189   111.65749336   175.65121091
 H     19  10   1     1.093125835943   108.84829929    54.61887917
 H     19  10   1     1.093694260320   109.69065585   296.71164414
 C      9   1   3     1.841245945837   114.57707187    82.08546856
 H     23   9   1     1.095672205007   111.80447892   183.84191780
 H     23   9   1     1.093494007893   109.30627646    62.37431477
 H     23   9   1     1.093277741345   108.68624668   304.97624158
 C      9   1   3     1.849283469508   122.74667659   203.89544732
 H     27   9   1     1.095647046298   111.25967410   179.07487836
 H     27   9   1     1.093110420609   109.74015724    58.31476841
 H     27   9   1     1.093519279869   109.69673341   299.47241753
 C      9   1   3     1.844380652323   115.29768154   326.15325644
 H     31   9   1     1.095600516153   111.65623660   175.61830579
 H     31   9   1     1.093135859196   108.83770007    54.59959590
 H     31   9   1     1.093662999909   109.70718450   296.68231823
 C      8   1   2     1.841269036864   114.59706857   352.95688582
 H     35   8   1     1.095672900363   111.80140135   183.81964697
 H     35   8   1     1.093492029607   109.30862855    62.35602212
 H     35   8   1     1.093271791958   108.69201056   304.95470716
 C      8   1   2     1.849279425700   122.74611464   114.75507476
 H     39   8   1     1.095644668870   111.25112146   178.97638609
 H     39   8   1     1.093086358610   109.75801008    58.20780757
 H     39   8   1     1.093535747288   109.68609327   299.35583056
 C      8   1   2     1.844346620877   115.28421321   237.01460190
 H     43   8   1     1.095601296761   111.66331317   175.79199402
 H     43   8   1     1.093134541620   108.83416448    54.76877029
 H     43   8   1     1.093670922087   109.70126913   296.86988779

---------------------------
INTERNAL COORDINATES (A.U.)
---------------------------
 Mo     0   0   0     0.000000000000     0.00000000     0.00000000
 C      1   0   0     3.758080463646     0.00000000     0.00000000
 C      1   2   0     3.757970720905    89.46128764     0.00000000
 C      1   2   3     3.758042453777    89.46193183    89.46921956
 O      4   1   2     2.208161863964   178.86812029     6.51846240
 O      2   1   3     2.208150774574   178.85991355     6.37056828
 O      3   1   2     2.208183673894   178.87157847    96.25921765
 P      1   2   3     4.736730452130    90.22935200   176.09041719
 P      1   2   3     4.736478539228   176.04395978     3.70655342
 P      1   2   3     4.736726814337    86.64718269   269.72450756
 C     10   1   2     3.479491132825   114.61760223    82.46228783
 H     11  10   1     2.070521429887   111.79777680   183.74525823
 H     11  10   1     2.066385202482   109.31085116    62.27958480
 H     11  10   1     2.065992082580   108.69202984   304.87730741
 C     10   1   2     3.494691761972   122.72291328   204.27412740
 H     15  10   1     2.066447794295   109.69288201   299.29877108
 H     15  10   1     2.070465565577   111.25810817   178.90985062
 H     15  10   1     2.065604331717   109.74799549    58.14003268
 C     10   1   2     3.485309763189   115.28590184   326.49065573
 H     19  10   1     2.070384804948   111.65749336   175.65121091
 H     19  10   1     2.065708459846   108.84829929    54.61887917
 H     19  10   1     2.066782626246   109.69065585   296.71164414
 C      9   1   3     3.479450582825   114.57707187    82.08546856
 H     23   9   1     2.070520400012   111.80447892   183.84191780
 H     23   9   1     2.066404204001   109.30627646    62.37431477
 H     23   9   1     2.065995519454   108.68624668   304.97624158
 C      9   1   3     3.494639301358   122.74667659   203.89544732
 H     27   9   1     2.070472856942   111.25967410   179.07487836
 H     27   9   1     2.065679329087   109.74015724    58.31476841
 H     27   9   1     2.066451961116   109.69673341   299.47241753
 C      9   1   3     3.485374319594   115.29768154   326.15325644
 H     31   9   1     2.070384927711   111.65623660   175.61830579
 H     31   9   1     2.065727401050   108.83770007    54.59959590
 H     31   9   1     2.066723552630   109.70718450   296.68231823
 C      8   1   2     3.479494218541   114.59706857   352.95688582
 H     35   8   1     2.070521714045   111.80140135   183.81964697
 H     35   8   1     2.066400465583   109.30862855    62.35602212
 H     35   8   1     2.065984276741   108.69201056   304.95470716
 C      8   1   2     3.494631659668   122.74611464   114.75507476
 H     39   8   1     2.070468364256   111.25112146   178.97638609
 H     39   8   1     2.065633858498   109.75801008    58.20780757
 H     39   8   1     2.066483080027   109.68609327   299.35583056
 C      8   1   2     3.485310009480   115.28421321   237.01460190
 H     43   8   1     2.070386402847   111.66331317   175.79199402
 H     43   8   1     2.065724911191   108.83416448    54.76877029
 H     43   8   1     2.066738523378   109.70126913   296.86988779

---------------------
BASIS SET INFORMATION
---------------------
There are 5 groups of distinct atoms

 Group   1 Type Mo  : 7s7p5d2f1g contracted to 6s4p3d2f1g pattern {211111/4111/311/11/1}
 Group   2 Type C   : 12s6p3d1f contracted to 6s3p3d1f pattern {621111/411/111/1}
 Group   3 Type O   : 12s7p3d1f contracted to 6s4p3d1f pattern {621111/4111/111/1}
 Group   4 Type P   : 15s9p4d1f contracted to 6s5p4d1f pattern {732111/51111/1111/1}
 Group   5 Type H   : 5s3p1d contracted to 3s3p1d pattern {311/111/1}

Atom   0Mo   basis set group =>   1
Atom   1C    basis set group =>   2
Atom   2C    basis set group =>   2
Atom   3C    basis set group =>   2
Atom   4O    basis set group =>   3
Atom   5O    basis set group =>   3
Atom   6O    basis set group =>   3
Atom   7P    basis set group =>   4
Atom   8P    basis set group =>   4
Atom   9P    basis set group =>   4
Atom  10C    basis set group =>   2
Atom  11H    basis set group =>   5
Atom  12H    basis set group =>   5
Atom  13H    basis set group =>   5
Atom  14C    basis set group =>   2
Atom  15H    basis set group =>   5
Atom  16H    basis set group =>   5
Atom  17H    basis set group =>   5
Atom  18C    basis set group =>   2
Atom  19H    basis set group =>   5
Atom  20H    basis set group =>   5
Atom  21H    basis set group =>   5
Atom  22C    basis set group =>   2
Atom  23H    basis set group =>   5
Atom  24H    basis set group =>   5
Atom  25H    basis set group =>   5
Atom  26C    basis set group =>   2
Atom  27H    basis set group =>   5
Atom  28H    basis set group =>   5
Atom  29H    basis set group =>   5
Atom  30C    basis set group =>   2
Atom  31H    basis set group =>   5
Atom  32H    basis set group =>   5
Atom  33H    basis set group =>   5
Atom  34C    basis set group =>   2
Atom  35H    basis set group =>   5
Atom  36H    basis set group =>   5
Atom  37H    basis set group =>   5
Atom  38C    basis set group =>   2
Atom  39H    basis set group =>   5
Atom  40H    basis set group =>   5
Atom  41H    basis set group =>   5
Atom  42C    basis set group =>   2
Atom  43H    basis set group =>   5
Atom  44H    basis set group =>   5
Atom  45H    basis set group =>   5
----------------------------------
AUXILIARY/JK BASIS SET INFORMATION
----------------------------------
There are 5 groups of distinct atoms

 Group   1 Type Mo  : 13s12p10d9f6g3h2i contracted to 11s10p9d8f6g3h2i pattern {31111111111/3111111111/211111111/21111111/111111/111/11}
 Group   2 Type C   : 14s10p6d2f1g contracted to 10s8p5d1f1g pattern {5111111111/31111111/21111/2/1}
 Group   3 Type O   : 14s10p6d2f1g contracted to 10s8p4d2f1g pattern {5111111111/31111111/3111/11/1}
 Group   4 Type P   : 16s12p10d4f1g contracted to 13s11p9d4f1g pattern {4111111111111/21111111111/211111111/1111/1}
 Group   5 Type H   : 4s2p2d contracted to 2s2p2d pattern {31/11/11}

Atom   0Mo   basis set group =>   1
Atom   1C    basis set group =>   2
Atom   2C    basis set group =>   2
Atom   3C    basis set group =>   2
Atom   4O    basis set group =>   3
Atom   5O    basis set group =>   3
Atom   6O    basis set group =>   3
Atom   7P    basis set group =>   4
Atom   8P    basis set group =>   4
Atom   9P    basis set group =>   4
Atom  10C    basis set group =>   2
Atom  11H    basis set group =>   5
Atom  12H    basis set group =>   5
Atom  13H    basis set group =>   5
Atom  14C    basis set group =>   2
Atom  15H    basis set group =>   5
Atom  16H    basis set group =>   5
Atom  17H    basis set group =>   5
Atom  18C    basis set group =>   2
Atom  19H    basis set group =>   5
Atom  20H    basis set group =>   5
Atom  21H    basis set group =>   5
Atom  22C    basis set group =>   2
Atom  23H    basis set group =>   5
Atom  24H    basis set group =>   5
Atom  25H    basis set group =>   5
Atom  26C    basis set group =>   2
Atom  27H    basis set group =>   5
Atom  28H    basis set group =>   5
Atom  29H    basis set group =>   5
Atom  30C    basis set group =>   2
Atom  31H    basis set group =>   5
Atom  32H    basis set group =>   5
Atom  33H    basis set group =>   5
Atom  34C    basis set group =>   2
Atom  35H    basis set group =>   5
Atom  36H    basis set group =>   5
Atom  37H    basis set group =>   5
Atom  38C    basis set group =>   2
Atom  39H    basis set group =>   5
Atom  40H    basis set group =>   5
Atom  41H    basis set group =>   5
Atom  42C    basis set group =>   2
Atom  43H    basis set group =>   5
Atom  44H    basis set group =>   5
Atom  45H    basis set group =>   5
-------------------------
ECP PARAMETER INFORMATION
-------------------------

 Group 1, Type Mo ECP Def2-ECP (replacing 28 core electrons, lmax=3)

Atom   0Mo   ECP group =>   1



           ************************************************************
           *        Program running with 24 parallel MPI-processes    *
           *              working on a common directory               *
           ************************************************************
------------------------------------------------------------------------------
                           ORCA GTO INTEGRAL CALCULATION
------------------------------------------------------------------------------

                         BASIS SET STATISTICS AND STARTUP INFO

 # of primitive gaussian shells          ...  685
 # of primitive gaussian functions       ... 1585
 # of contracted shells                  ...  451
 # of contracted basis functions         ... 1223
 Highest angular momentum                ...    4
 Maximum contraction depth               ...    7
 Integral package used                   ... LIBINT
 Integral threshhold            Thresh   ...  1.000e-10
 Primitive cut-off              TCut     ...  1.000e-11


------------------------------ INTEGRAL EVALUATION ----------------------------


 * One electron integrals 

   ECP integrals                         ... done
 Pre-screening matrix                    ... done
 Shell pair data                         ... done (   0.024 sec)



           ************************************************************
           *        Program running with 24 parallel MPI-processes    *
           *              working on a common directory               *
           ************************************************************
-------------------------------------------------------------------------------
                                 ORCA SCF
-------------------------------------------------------------------------------

------------
SCF SETTINGS
------------
Hamiltonian:
 Density Functional     Method          .... DFT(GTOs)
 Exchange Functional    Exchange        .... WB97X-V
 Correlation Functional Correlation     .... WB97X-V
 Gradients option       PostSCFGGA      .... off
 Hybrid DFT is turned on
   Fraction HF Exchange ScalHFX         ....  0.167000
   Scaling of DF-GGA-X  ScalDFX         ....  0.000000
   Scaling of DF-GGA-C  ScalDFC         ....  1.000000
   Scaling of DF-LDA-C  ScalLDAC        ....  1.000000
   Perturbative correction              ....  0.000000
   Density functional embedding theory  .... OFF
 Long-range corrected/Screened/Range-Separated Hybrid DFT is turned on
   Amount of maximum screened exact exchange              ....  0.833000
   Range separation parameter mu (erf(mu*r12)/r12)        ....  0.300000
   NL short-range parameter             ....  6.000000
   NL long-range parameter              ....  0.010000


General Settings:
 Integral files         IntName         .... MOR37_pr38
 Hartree-Fock type      HFTyp           .... RHF
 Total Charge           Charge          ....    0
 Multiplicity           Mult            ....    1
 Number of Electrons    NEL             ....  182
 Basis Dimension        Dim             .... 1223
 Nuclear Repulsion      ENuc            ....   2310.7496732048 Eh

Convergence Acceleration:
 DIIS                   CNVDIIS         .... on
   Start iteration      DIISMaxIt       ....    12
   Startup error        DIISStart       ....  0.200000
   # of expansion vecs  DIISMaxEq       ....     5
   Bias factor          DIISBfac        ....   1.050
   Max. coefficient     DIISMaxC        ....  10.000
 Newton-Raphson         CNVNR           .... off
 SOSCF                  CNVSOSCF        .... off
 Level Shifting         CNVShift        .... on
   Level shift para.    LevelShift      ....    0.2500
   Turn off err/grad.   ShiftErr        ....    0.0010
 Zerner damping         CNVZerner       .... off
 Static damping         CNVDamp         .... on
   Fraction old density DampFac         ....    0.7000
   Max. Damping (<1)    DampMax         ....    0.9800
   Min. Damping (>=0)   DampMin         ....    0.0000
   Turn off err/grad.   DampErr         ....    0.1000
 Fernandez-Rico         CNVRico         .... off

SCF Procedure:
 Maximum # iterations   MaxIter         ....   125
 SCF integral mode      SCFMode         .... Direct
   Integral package                     .... LIBINT
 Reset frequency        DirectResetFreq ....    20
 Integral Threshold     Thresh          ....  1.000e-10 Eh
 Primitive CutOff       TCut            ....  1.000e-11 Eh

Convergence Tolerance:
 Convergence Check Mode ConvCheckMode   .... Total+1el-Energy
 Convergence forced     ConvForced      .... 0
 Energy Change          TolE            ....  1.000e-06 Eh
 1-El. energy change                    ....  1.000e-03 Eh
 DIIS Error             TolErr          ....  1.000e-06


Diagonalization of the overlap matrix:
Smallest eigenvalue                        ... 8.075e-07
Time for diagonalization                   ...    0.239 sec
Threshold for overlap eigenvalues          ... 1.000e-08
Number of eigenvalues below threshold      ... 0
Time for construction of square roots      ...    0.203 sec
Total time needed                          ...    0.446 sec

-------------------
DFT GRID GENERATION
-------------------

General Integration Accuracy     IntAcc      ...  4.670
Radial Grid Type                 RadialGrid  ... Gauss-Chebyshev
Angular Grid (max. acc.)         AngularGrid ... Lebedev-302
Angular grid pruning method      GridPruning ... 3 (G Style)
Weight generation scheme         WeightScheme... Becke
Basis function cutoff            BFCut       ...    1.0000e-10
Integration weight cutoff        WCut        ...    1.0000e-14
Grids for H and He will be reduced by one unit

# of grid points (after initial pruning)     ... 215954 (   0.0 sec)
# of grid points (after weights+screening)   ... 185782 (   0.2 sec)
nearest neighbour list constructed           ...    0.0 sec
Grid point re-assignment to atoms done       ...    0.0 sec
Grid point division into batches done        ...    0.6 sec
Reduced shell lists constructed in    0.8 sec

Total number of grid points                  ...   185782
Total number of batches                      ...     2926
Average number of points per batch           ...       63
Average number of grid points per atom       ...     4039
Average number of shells per batch           ...   262.85 (58.28%)
Average number of basis functions per batch  ...   701.35 (57.35%)
Average number of large shells per batch     ...   193.85 (73.75%)
Average number of large basis fcns per batch ...   524.57 (74.79%)
Maximum spatial batch extension              ...   4.21,  3.61,  5.15 au
Average spatial batch extension              ...   0.05,  0.05,  0.05 au

Time for grid setup =    1.046 sec

------------------------------
INITIAL GUESS: MODEL POTENTIAL
------------------------------
Loading Hartree-Fock densities                     ... done
  calling /sw/apps/orca/orca_4_2_0_linux_x86-64_openmpi314/orca MOR37_pr38_atom42.inp > MOR37_pr38_atom42.out in order to generate an atomic fitting density for atom 0 (Mo with ECP) on-the-fly... 
    atom 0 (Mo), assumed electronic state with S=5: 1s2 2s2 2p6 3s2 3p6 4s2 3d10 4p6 5s2 4d4           ... done
Calculating cut-offs                               ... done
Setting up the integral package                    ... done
Initializing the effective Hamiltonian             ... done
Starting the Coulomb interaction                   ... done (   0.2 sec)
Reading the grid                                   ... done
Mapping shells                                     ... done
Starting the XC term evaluation                    ... done (   0.9 sec)
  promolecular density results
     # of electrons  =    209.987902953
     EX              =   -205.826064299
     EC              =    -10.111775195
     EX+EC           =   -215.937839494
Transforming the Hamiltonian                       ... done (   0.1 sec)
Diagonalizing the Hamiltonian                      ... done (   0.2 sec)
Back transforming the eigenvectors                 ... done (   0.1 sec)
Now organizing SCF variables                       ... done
                      ------------------
                      INITIAL GUESS DONE (   4.3 sec)
                      ------------------
--------------
SCF ITERATIONS
--------------
ITER       Energy         Delta-E        Max-DP      RMS-DP      [F,P]     Damp
               ***  Starting incremental Fock matrix formation  ***
  0  -1791.8804075079   0.000000000000 0.95366658  0.00183634  0.3507387 0.7000
  1  -1792.0420272670  -0.161619759074 0.60984072  0.00128950  0.2335398 0.7000
                               ***Turning on DIIS***
  2  -1792.1162484564  -0.074221189405 0.24901771  0.00079932  0.1597264 0.7000
  3  -1792.1657107618  -0.049462305397 0.13794478  0.00055241  0.1134745 0.7000
  4  -1792.2007514845  -0.035040722757 0.94813970  0.00163588  0.0822373 0.0000
  5  -1792.2834460524  -0.082694567836 0.05691699  0.00011307  0.0061560 0.0000
  6  -1792.2839079841  -0.000461931741 0.48526452  0.00048004  0.0042577 0.0000
  7  -1792.2840698906  -0.000161906451 1.02002725  0.00101103  0.0025307 0.0000
  8  -1792.2841250090  -0.000055118470 0.90584211  0.00090455  0.0010949 0.0000
  9  -1792.2841432266  -0.000018217580 0.42085086  0.00042522  0.0003307 0.0000
 10  -1792.2841480038  -0.000004777148 0.33005841  0.00032696  0.0002365 0.0000
                 **** Energy Check signals convergence ****

               *****************************************************
               *                     SUCCESS                       *
               *           SCF CONVERGED AFTER  11 CYCLES          *
               *****************************************************


Setting up the DFT-NL grid :

General Integration Accuracy     IntAcc      ...  4.340
Radial Grid Type                 RadialGrid  ... Gauss-Chebyshev
Angular Grid (max. acc.)         AngularGrid ... Lebedev-110
Angular grid pruning method      GridPruning ... 3 (G Style)
Weight generation scheme         WeightScheme... Becke
Basis function cutoff            BFCut       ...    1.0000e-10
Integration weight cutoff        WCut        ...    1.0000e-14
Grids for H and He will be reduced by one unit

# of grid points (after initial pruning)     ...  55156 (   0.0 sec)
# of grid points (after weights+screening)   ...  48530 (   0.0 sec)
nearest neighbour list constructed           ...    0.0 sec
Grid point re-assignment to atoms done       ...    0.0 sec
Grid point division into batches done        ...    0.0 sec
Reduced shell lists constructed in    0.1 sec

Total number of grid points                  ...    48530
Total number of batches                      ...      784
Average number of points per batch           ...       61
Average number of grid points per atom       ...     1055
Average number of shells per batch           ...   272.56 (60.43%)
Average number of basis functions per batch  ...   731.38 (59.80%)
Average number of large shells per batch     ...   201.71 (74.00%)
Average number of large basis fcns per batch ...   545.53 (74.59%)
Maximum spatial batch extension              ...   4.26,  3.44,  4.08 au
Average spatial batch extension              ...   0.07,  0.07,  0.07 au

Final grid set up in    0.2 sec

-------------------------------------------------------------------------------
                         DFT-NL dispersion correction                          
-------------------------------------------------------------------------------

SC Energy -1792.284148272 
NL    Energy 0.672096968 
SC+NL Energy -1791.612051304 
NL done in    0.8 sec
-------------------------------------------------------------------------------

----------------
TOTAL SCF ENERGY
----------------

Total Energy       :        -1791.61205130 Eh          -48752.24243 eV

Components:
Nuclear Repulsion  :         2310.74967320 Eh           62878.69530 eV
Electronic Energy  :        -4102.36172451 Eh         -111630.93773 eV
One Electron Energy:        -7085.52441968 Eh         -192806.92157 eV
Two Electron Energy:         2983.16269517 Eh           81175.98384 eV

Virial components:
Potential Energy   :        -3533.07539619 Eh          -96139.86919 eV
Kinetic Energy     :         1741.46334489 Eh           47387.62675 eV
Virial Ratio       :            2.02879688


DFT components:
N(Alpha)           :       91.000206158818 electrons
N(Beta)            :       91.000206158818 electrons
N(Total)           :      182.000412317636 electrons
E(X)               :     -118.693012750338 Eh       
E(C)               :       -7.919559051947 Eh       
NL Energy, E(C,NL) :        0.672096968360 Eh       
E(XC)              :     -125.940474833926 Eh       
DFET-embed. en.    :        0.000000000000 Eh       

---------------
SCF CONVERGENCE
---------------

  Last Energy change         ...   -2.6841e-07  Tolerance :   1.0000e-06
  Last MAX-Density change    ...    8.2626e-02  Tolerance :   1.0000e-05
  Last RMS-Density change    ...    8.4085e-05  Tolerance :   1.0000e-06
  Last DIIS Error            ...    9.0754e-05  Tolerance :   1.0000e-06

             **** THE GBW FILE WAS UPDATED (MOR37_pr38.gbw) ****
             **** DENSITY FILE WAS UPDATED (MOR37_pr38.scfp) ****
             **** ENERGY FILE WAS UPDATED (MOR37_pr38.en.tmp) ****
             **** THE GBW FILE WAS UPDATED (MOR37_pr38.gbw) ****
             **** DENSITY FILE WAS UPDATED (MOR37_pr38.scfp) ****
----------------
ORBITAL ENERGIES
----------------

  NO   OCC          E(Eh)            E(eV) 
   0   2.0000     -77.093867     -2097.8308 
   1   2.0000     -77.093859     -2097.8306 
   2   2.0000     -77.093837     -2097.8300 
   3   2.0000     -19.239866      -523.5434 
   4   2.0000     -19.239862      -523.5433 
   5   2.0000     -19.239851      -523.5430 
   6   2.0000     -10.346531      -281.5434 
   7   2.0000     -10.346523      -281.5432 
   8   2.0000     -10.346516      -281.5430 
   9   2.0000     -10.283125      -279.8181 
  10   2.0000     -10.283119      -279.8179 
  11   2.0000     -10.283111      -279.8177 
  12   2.0000     -10.277150      -279.6555 
  13   2.0000     -10.277135      -279.6551 
  14   2.0000     -10.277105      -279.6543 
  15   2.0000     -10.273883      -279.5666 
  16   2.0000     -10.273848      -279.5656 
  17   2.0000     -10.273834      -279.5652 
  18   2.0000      -6.672459      -181.5668 
  19   2.0000      -6.672451      -181.5666 
  20   2.0000      -6.672436      -181.5662 
  21   2.0000      -4.826452      -131.3344 
  22   2.0000      -4.826445      -131.3342 
  23   2.0000      -4.826424      -131.3337 
  24   2.0000      -4.826201      -131.3276 
  25   2.0000      -4.826188      -131.3272 
  26   2.0000      -4.826171      -131.3268 
  27   2.0000      -4.821935      -131.2115 
  28   2.0000      -4.821932      -131.2114 
  29   2.0000      -4.821921      -131.2111 
  30   2.0000      -2.617156       -71.2164 
  31   2.0000      -1.620114       -44.0855 
  32   2.0000      -1.620106       -44.0853 
  33   2.0000      -1.619566       -44.0706 
  34   2.0000      -1.207412       -32.8554 
  35   2.0000      -1.206726       -32.8367 
  36   2.0000      -1.206717       -32.8364 
  37   2.0000      -0.917758       -24.9735 
  38   2.0000      -0.911610       -24.8062 
  39   2.0000      -0.911606       -24.8061 
  40   2.0000      -0.839388       -22.8409 
  41   2.0000      -0.835932       -22.7469 
  42   2.0000      -0.835880       -22.7455 
  43   2.0000      -0.831188       -22.6178 
  44   2.0000      -0.831152       -22.6168 
  45   2.0000      -0.829800       -22.5800 
  46   2.0000      -0.684774       -18.6337 
  47   2.0000      -0.667016       -18.1504 
  48   2.0000      -0.667006       -18.1502 
  49   2.0000      -0.648713       -17.6524 
  50   2.0000      -0.638203       -17.3664 
  51   2.0000      -0.638194       -17.3661 
  52   2.0000      -0.583895       -15.8886 
  53   2.0000      -0.571980       -15.5644 
  54   2.0000      -0.571909       -15.5624 
  55   2.0000      -0.559191       -15.2164 
  56   2.0000      -0.559136       -15.2149 
  57   2.0000      -0.557073       -15.1587 
  58   2.0000      -0.551779       -15.0147 
  59   2.0000      -0.547641       -14.9021 
  60   2.0000      -0.547636       -14.9019 
  61   2.0000      -0.535543       -14.5729 
  62   2.0000      -0.533475       -14.5166 
  63   2.0000      -0.533400       -14.5145 
  64   2.0000      -0.529510       -14.4087 
  65   2.0000      -0.526065       -14.3150 
  66   2.0000      -0.526012       -14.3135 
  67   2.0000      -0.521411       -14.1883 
  68   2.0000      -0.515058       -14.0154 
  69   2.0000      -0.515003       -14.0140 
  70   2.0000      -0.512783       -13.9535 
  71   2.0000      -0.508841       -13.8463 
  72   2.0000      -0.508803       -13.8452 
  73   2.0000      -0.506288       -13.7768 
  74   2.0000      -0.503613       -13.7040 
  75   2.0000      -0.501863       -13.6564 
  76   2.0000      -0.501796       -13.6546 
  77   2.0000      -0.495270       -13.4770 
  78   2.0000      -0.495260       -13.4767 
  79   2.0000      -0.450408       -12.2562 
  80   2.0000      -0.448392       -12.2014 
  81   2.0000      -0.448359       -12.2005 
  82   2.0000      -0.440397       -11.9838 
  83   2.0000      -0.440384       -11.9834 
  84   2.0000      -0.438830       -11.9412 
  85   2.0000      -0.379685       -10.3318 
  86   2.0000      -0.364722        -9.9246 
  87   2.0000      -0.364684        -9.9235 
  88   2.0000      -0.264875        -7.2076 
  89   2.0000      -0.264869        -7.2074 
  90   2.0000      -0.263276        -7.1641 
  91   0.0000       0.038952         1.0599 
  92   0.0000       0.056325         1.5327 
  93   0.0000       0.056338         1.5330 
  94   0.0000       0.062470         1.6999 
  95   0.0000       0.067741         1.8433 
  96   0.0000       0.067754         1.8437 
  97   0.0000       0.081364         2.2140 
  98   0.0000       0.081391         2.2148 
  99   0.0000       0.083655         2.2764 
 100   0.0000       0.084090         2.2882 
 101   0.0000       0.084101         2.2885 
 102   0.0000       0.087236         2.3738 
 103   0.0000       0.093904         2.5553 
 104   0.0000       0.100902         2.7457 
 105   0.0000       0.100928         2.7464 
 106   0.0000       0.104279         2.8376 
 107   0.0000       0.107543         2.9264 
 108   0.0000       0.107645         2.9292 
 109   0.0000       0.108998         2.9660 
 110   0.0000       0.118795         3.2326 
 111   0.0000       0.118860         3.2343 
 112   0.0000       0.124102         3.3770 
 113   0.0000       0.133924         3.6443 
 114   0.0000       0.137874         3.7517 
 115   0.0000       0.138331         3.7642 
 116   0.0000       0.138440         3.7671 
 117   0.0000       0.142423         3.8755 
 118   0.0000       0.142590         3.8801 
 119   0.0000       0.150486         4.0949 
 120   0.0000       0.153637         4.1807 
 121   0.0000       0.153721         4.1830 
 122   0.0000       0.158655         4.3172 
 123   0.0000       0.162750         4.4287 
 124   0.0000       0.162867         4.4318 
 125   0.0000       0.168313         4.5800 
 126   0.0000       0.168341         4.5808 
 127   0.0000       0.168352         4.5811 
 128   0.0000       0.173708         4.7268 
 129   0.0000       0.176881         4.8132 
 130   0.0000       0.178448         4.8558 
 131   0.0000       0.178489         4.8569 
 132   0.0000       0.182502         4.9661 
 133   0.0000       0.182594         4.9686 
 134   0.0000       0.185487         5.0474 
 135   0.0000       0.190016         5.1706 
 136   0.0000       0.190123         5.1735 
 137   0.0000       0.194977         5.3056 
 138   0.0000       0.195043         5.3074 
 139   0.0000       0.195928         5.3315 
 140   0.0000       0.200648         5.4599 
 141   0.0000       0.205991         5.6053 
 142   0.0000       0.206133         5.6092 
 143   0.0000       0.212983         5.7956 
 144   0.0000       0.213890         5.8202 
 145   0.0000       0.213954         5.8220 
 146   0.0000       0.216250         5.8845 
 147   0.0000       0.216276         5.8852 
 148   0.0000       0.222996         6.0680 
 149   0.0000       0.223094         6.0707 
 150   0.0000       0.223289         6.0760 
 151   0.0000       0.228465         6.2168 
 152   0.0000       0.232411         6.3242 
 153   0.0000       0.232549         6.3280 
 154   0.0000       0.241182         6.5629 
 155   0.0000       0.242047         6.5864 
 156   0.0000       0.242138         6.5889 
 157   0.0000       0.249135         6.7793 
 158   0.0000       0.258687         7.0392 
 159   0.0000       0.258727         7.0403 
 160   0.0000       0.264019         7.1843 
 161   0.0000       0.266341         7.2475 
 162   0.0000       0.266465         7.2509 
 163   0.0000       0.272554         7.4166 
 164   0.0000       0.274781         7.4772 
 165   0.0000       0.276680         7.5288 
 166   0.0000       0.276807         7.5323 
 167   0.0000       0.279719         7.6115 
 168   0.0000       0.280446         7.6313 
 169   0.0000       0.280584         7.6351 
 170   0.0000       0.293777         7.9941 
 171   0.0000       0.293826         7.9954 
 172   0.0000       0.294323         8.0089 
 173   0.0000       0.297778         8.1030 
 174   0.0000       0.303077         8.2471 
 175   0.0000       0.303102         8.2478 
 176   0.0000       0.303802         8.2669 
 177   0.0000       0.313625         8.5342 
 178   0.0000       0.313724         8.5369 
 179   0.0000       0.317699         8.6450 
 180   0.0000       0.317737         8.6461 
 181   0.0000       0.324365         8.8264 
 182   0.0000       0.324478         8.8295 
 183   0.0000       0.324752         8.8369 
 184   0.0000       0.326172         8.8756 
 185   0.0000       0.330638         8.9971 
 186   0.0000       0.331959         9.0331 
 187   0.0000       0.332057         9.0357 
 188   0.0000       0.338020         9.1980 
 189   0.0000       0.340739         9.2720 
 190   0.0000       0.341323         9.2879 
 191   0.0000       0.341390         9.2897 
 192   0.0000       0.344793         9.3823 
 193   0.0000       0.344967         9.3870 
 194   0.0000       0.349291         9.5047 
 195   0.0000       0.349694         9.5156 
 196   0.0000       0.349894         9.5211 
 197   0.0000       0.359725         9.7886 
 198   0.0000       0.359846         9.7919 
 199   0.0000       0.363292         9.8857 
 200   0.0000       0.367291         9.9945 
 201   0.0000       0.369308        10.0494 
 202   0.0000       0.369435        10.0528 
 203   0.0000       0.372914        10.1475 
 204   0.0000       0.373461        10.1624 
 205   0.0000       0.373724        10.1695 
 206   0.0000       0.381412        10.3788 
 207   0.0000       0.382401        10.4057 
 208   0.0000       0.382653        10.4125 
 209   0.0000       0.389961        10.6114 
 210   0.0000       0.390004        10.6125 
 211   0.0000       0.393929        10.7194 
 212   0.0000       0.395416        10.7598 
 213   0.0000       0.399003        10.8574 
 214   0.0000       0.399260        10.8644 
 215   0.0000       0.404811        11.0155 
 216   0.0000       0.405235        11.0270 
 217   0.0000       0.405361        11.0304 
 218   0.0000       0.410965        11.1829 
 219   0.0000       0.412193        11.2163 
 220   0.0000       0.412381        11.2215 
 221   0.0000       0.420282        11.4364 
 222   0.0000       0.423306        11.5187 
 223   0.0000       0.423486        11.5236 
 224   0.0000       0.435283        11.8446 
 225   0.0000       0.435390        11.8476 
 226   0.0000       0.438102        11.9214 
 227   0.0000       0.440351        11.9826 
 228   0.0000       0.440542        11.9877 
 229   0.0000       0.444515        12.0959 
 230   0.0000       0.448360        12.2005 
 231   0.0000       0.448539        12.2054 
 232   0.0000       0.454442        12.3660 
 233   0.0000       0.462082        12.5739 
 234   0.0000       0.462240        12.5782 
 235   0.0000       0.464434        12.6379 
 236   0.0000       0.466841        12.7034 
 237   0.0000       0.470663        12.8074 
 238   0.0000       0.473193        12.8762 
 239   0.0000       0.473525        12.8853 
 240   0.0000       0.477487        12.9931 
 241   0.0000       0.480661        13.0794 
 242   0.0000       0.480737        13.0815 
 243   0.0000       0.482786        13.1373 
 244   0.0000       0.482845        13.1389 
 245   0.0000       0.490115        13.3367 
 246   0.0000       0.490410        13.3447 
 247   0.0000       0.490434        13.3454 
 248   0.0000       0.496160        13.5012 
 249   0.0000       0.499003        13.5786 
 250   0.0000       0.499560        13.5937 
 251   0.0000       0.499904        13.6031 
 252   0.0000       0.504980        13.7412 
 253   0.0000       0.509155        13.8548 
 254   0.0000       0.509247        13.8573 
 255   0.0000       0.509543        13.8654 
 256   0.0000       0.515734        14.0338 
 257   0.0000       0.516463        14.0537 
 258   0.0000       0.516538        14.0557 
 259   0.0000       0.529088        14.3972 
 260   0.0000       0.529252        14.4017 
 261   0.0000       0.531768        14.4701 
 262   0.0000       0.537470        14.6253 
 263   0.0000       0.537568        14.6280 
 264   0.0000       0.542584        14.7645 
 265   0.0000       0.542856        14.7719 
 266   0.0000       0.548257        14.9188 
 267   0.0000       0.548484        14.9250 
 268   0.0000       0.550671        14.9845 
 269   0.0000       0.556444        15.1416 
 270   0.0000       0.556638        15.1469 
 271   0.0000       0.561050        15.2670 
 272   0.0000       0.564116        15.3504 
 273   0.0000       0.565004        15.3746 
 274   0.0000       0.565125        15.3778 
 275   0.0000       0.575028        15.6473 
 276   0.0000       0.575154        15.6507 
 277   0.0000       0.582441        15.8490 
 278   0.0000       0.585849        15.9418 
 279   0.0000       0.585962        15.9448 
 280   0.0000       0.586138        15.9496 
 281   0.0000       0.592042        16.1103 
 282   0.0000       0.592289        16.1170 
 283   0.0000       0.597211        16.2509 
 284   0.0000       0.599465        16.3123 
 285   0.0000       0.599807        16.3216 
 286   0.0000       0.606950        16.5160 
 287   0.0000       0.607161        16.5217 
 288   0.0000       0.607572        16.5329 
 289   0.0000       0.611091        16.6286 
 290   0.0000       0.615294        16.7430 
 291   0.0000       0.616817        16.7844 
 292   0.0000       0.616903        16.7868 
 293   0.0000       0.621768        16.9192 
 294   0.0000       0.622143        16.9294 
 295   0.0000       0.623835        16.9754 
 296   0.0000       0.634978        17.2786 
 297   0.0000       0.638764        17.3817 
 298   0.0000       0.639107        17.3910 
 299   0.0000       0.639299        17.3962 
 300   0.0000       0.644553        17.5392 
 301   0.0000       0.648075        17.6350 
 302   0.0000       0.648330        17.6420 
 303   0.0000       0.652759        17.7625 
 304   0.0000       0.658074        17.9071 
 305   0.0000       0.658186        17.9101 
 306   0.0000       0.665239        18.1021 
 307   0.0000       0.667701        18.1691 
 308   0.0000       0.667848        18.1731 
 309   0.0000       0.677411        18.4333 
 310   0.0000       0.677652        18.4399 
 311   0.0000       0.677818        18.4444 
 312   0.0000       0.679831        18.4991 
 313   0.0000       0.686515        18.6810 
 314   0.0000       0.686653        18.6848 
 315   0.0000       0.689823        18.7710 
 316   0.0000       0.692007        18.8305 
 317   0.0000       0.692338        18.8395 
 318   0.0000       0.699286        19.0285 
 319   0.0000       0.703130        19.1331 
 320   0.0000       0.703191        19.1348 
 321   0.0000       0.704604        19.1732 
 322   0.0000       0.705626        19.2011 
 323   0.0000       0.705924        19.2092 
 324   0.0000       0.711744        19.3675 
 325   0.0000       0.712013        19.3749 
 326   0.0000       0.714523        19.4431 
 327   0.0000       0.720501        19.6058 
 328   0.0000       0.721649        19.6371 
 329   0.0000       0.721780        19.6406 
 330   0.0000       0.726667        19.7736 
 331   0.0000       0.726846        19.7785 
 332   0.0000       0.732228        19.9250 
 333   0.0000       0.737868        20.0784 
 334   0.0000       0.738986        20.1088 
 335   0.0000       0.739288        20.1171 
 336   0.0000       0.744355        20.2549 
 337   0.0000       0.748327        20.3630 
 338   0.0000       0.748527        20.3685 
 339   0.0000       0.751171        20.4404 
 340   0.0000       0.751214        20.4416 
 341   0.0000       0.757617        20.6158 
 342   0.0000       0.758660        20.6442 
 343   0.0000       0.758932        20.6516 
 344   0.0000       0.765156        20.8210 
 345   0.0000       0.765376        20.8269 
 346   0.0000       0.768944        20.9240 
 347   0.0000       0.769119        20.9288 
 348   0.0000       0.769740        20.9457 
 349   0.0000       0.772077        21.0093 
 350   0.0000       0.778238        21.1769 
 351   0.0000       0.783959        21.3326 
 352   0.0000       0.784313        21.3422 
 353   0.0000       0.784938        21.3592 
 354   0.0000       0.791607        21.5407 
 355   0.0000       0.791849        21.5473 
 356   0.0000       0.794470        21.6186 
 357   0.0000       0.795370        21.6431 
 358   0.0000       0.795659        21.6510 
 359   0.0000       0.796079        21.6624 
 360   0.0000       0.803181        21.8557 
 361   0.0000       0.803208        21.8564 
 362   0.0000       0.803300        21.8589 
 363   0.0000       0.808727        22.0066 
 364   0.0000       0.808958        22.0129 
 365   0.0000       0.810132        22.0448 
 366   0.0000       0.813230        22.1291 
 367   0.0000       0.816124        22.2079 
 368   0.0000       0.816598        22.2208 
 369   0.0000       0.828065        22.5328 
 370   0.0000       0.828254        22.5379 
 371   0.0000       0.829702        22.5773 
 372   0.0000       0.831372        22.6228 
 373   0.0000       0.831470        22.6254 
 374   0.0000       0.839321        22.8391 
 375   0.0000       0.845284        23.0014 
 376   0.0000       0.845668        23.0118 
 377   0.0000       0.848182        23.0802 
 378   0.0000       0.849526        23.1168 
 379   0.0000       0.850177        23.1345 
 380   0.0000       0.853565        23.2267 
 381   0.0000       0.859917        23.3995 
 382   0.0000       0.860001        23.4018 
 383   0.0000       0.866473        23.5779 
 384   0.0000       0.867440        23.6042 
 385   0.0000       0.867774        23.6133 
 386   0.0000       0.875646        23.8275 
 387   0.0000       0.875958        23.8360 
 388   0.0000       0.876327        23.8461 
 389   0.0000       0.884834        24.0775 
 390   0.0000       0.885464        24.0947 
 391   0.0000       0.885749        24.1024 
 392   0.0000       0.894382        24.3374 
 393   0.0000       0.894809        24.3490 
 394   0.0000       0.897477        24.4216 
 395   0.0000       0.900271        24.4976 
 396   0.0000       0.900797        24.5119 
 397   0.0000       0.900932        24.5156 
 398   0.0000       0.903875        24.5957 
 399   0.0000       0.912500        24.8304 
 400   0.0000       0.912592        24.8329 
 401   0.0000       0.915710        24.9177 
 402   0.0000       0.920183        25.0394 
 403   0.0000       0.920594        25.0506 
 404   0.0000       0.925240        25.1771 
 405   0.0000       0.926671        25.2160 
 406   0.0000       0.926922        25.2228 
 407   0.0000       0.936844        25.4928 
 408   0.0000       0.945644        25.7323 
 409   0.0000       0.946517        25.7560 
 410   0.0000       0.951195        25.8833 
 411   0.0000       0.958383        26.0789 
 412   0.0000       0.958598        26.0848 
 413   0.0000       0.963299        26.2127 
 414   0.0000       0.974478        26.5169 
 415   0.0000       0.974891        26.5281 
 416   0.0000       0.982624        26.7386 
 417   0.0000       0.986216        26.8363 
 418   0.0000       0.986568        26.8459 
 419   0.0000       0.987242        26.8642 
 420   0.0000       0.993400        27.0318 
 421   0.0000       0.993898        27.0453 
 422   0.0000       0.999760        27.2049 
 423   0.0000       1.000607        27.2279 
 424   0.0000       1.003299        27.3011 
 425   0.0000       1.004956        27.3462 
 426   0.0000       1.017549        27.6889 
 427   0.0000       1.019297        27.7365 
 428   0.0000       1.019535        27.7429 
 429   0.0000       1.022697        27.8290 
 430   0.0000       1.030097        28.0304 
 431   0.0000       1.030526        28.0420 
 432   0.0000       1.043430        28.3932 
 433   0.0000       1.043720        28.4011 
 434   0.0000       1.046766        28.4840 
 435   0.0000       1.051370        28.6092 
 436   0.0000       1.051607        28.6157 
 437   0.0000       1.059861        28.8403 
 438   0.0000       1.060180        28.8490 
 439   0.0000       1.061785        28.8926 
 440   0.0000       1.068224        29.0679 
 441   0.0000       1.074375        29.2352 
 442   0.0000       1.074822        29.2474 
 443   0.0000       1.075136        29.2559 
 444   0.0000       1.081235        29.4219 
 445   0.0000       1.081504        29.4292 
 446   0.0000       1.093341        29.7513 
 447   0.0000       1.106719        30.1154 
 448   0.0000       1.107154        30.1272 
 449   0.0000       1.110669        30.2228 
 450   0.0000       1.111441        30.2439 
 451   0.0000       1.111737        30.2519 
 452   0.0000       1.122954        30.5571 
 453   0.0000       1.131300        30.7842 
 454   0.0000       1.131380        30.7864 
 455   0.0000       1.136927        30.9374 
 456   0.0000       1.147254        31.2184 
 457   0.0000       1.147512        31.2254 
 458   0.0000       1.154190        31.4071 
 459   0.0000       1.155678        31.4476 
 460   0.0000       1.160035        31.5662 
 461   0.0000       1.160226        31.5714 
 462   0.0000       1.168818        31.8052 
 463   0.0000       1.169067        31.8119 
 464   0.0000       1.171763        31.8853 
 465   0.0000       1.181497        32.1502 
 466   0.0000       1.191428        32.4204 
 467   0.0000       1.191533        32.4233 
 468   0.0000       1.204355        32.7722 
 469   0.0000       1.204641        32.7800 
 470   0.0000       1.209660        32.9165 
 471   0.0000       1.209942        32.9242 
 472   0.0000       1.209985        32.9254 
 473   0.0000       1.218777        33.1646 
 474   0.0000       1.223475        33.2924 
 475   0.0000       1.224001        33.3068 
 476   0.0000       1.244614        33.8677 
 477   0.0000       1.245377        33.8884 
 478   0.0000       1.245678        33.8966 
 479   0.0000       1.253260        34.1029 
 480   0.0000       1.253406        34.1069 
 481   0.0000       1.258625        34.2489 
 482   0.0000       1.272911        34.6377 
 483   0.0000       1.275571        34.7101 
 484   0.0000       1.275706        34.7137 
 485   0.0000       1.276432        34.7335 
 486   0.0000       1.287869        35.0447 
 487   0.0000       1.288144        35.0522 
 488   0.0000       1.292894        35.1814 
 489   0.0000       1.298875        35.3442 
 490   0.0000       1.299066        35.3494 
 491   0.0000       1.301115        35.4051 
 492   0.0000       1.308040        35.5936 
 493   0.0000       1.308296        35.6006 
 494   0.0000       1.322235        35.9798 
 495   0.0000       1.334260        36.3071 
 496   0.0000       1.341029        36.4913 
 497   0.0000       1.341232        36.4968 
 498   0.0000       1.352435        36.8016 
 499   0.0000       1.352751        36.8102 
 500   0.0000       1.355597        36.8877 
 501   0.0000       1.355863        36.8949 
 502   0.0000       1.359605        36.9967 
 503   0.0000       1.369209        37.2581 
 504   0.0000       1.369691        37.2712 
 505   0.0000       1.376890        37.4671 
 506   0.0000       1.381960        37.6051 
 507   0.0000       1.384503        37.6742 
 508   0.0000       1.384595        37.6767 
 509   0.0000       1.401239        38.1297 
 510   0.0000       1.401566        38.1386 
 511   0.0000       1.403894        38.2019 
 512   0.0000       1.415614        38.5208 
 513   0.0000       1.415872        38.5278 
 514   0.0000       1.415940        38.5297 
 515   0.0000       1.424540        38.7637 
 516   0.0000       1.424648        38.7666 
 517   0.0000       1.433356        39.0036 
 518   0.0000       1.436473        39.0884 
 519   0.0000       1.436567        39.0910 
 520   0.0000       1.437696        39.1217 
 521   0.0000       1.449226        39.4354 
 522   0.0000       1.451150        39.4878 
 523   0.0000       1.451520        39.4979 
 524   0.0000       1.458768        39.6951 
 525   0.0000       1.462402        39.7940 
 526   0.0000       1.462603        39.7995 
 527   0.0000       1.466215        39.8977 
 528   0.0000       1.466354        39.9015 
 529   0.0000       1.472973        40.0816 
 530   0.0000       1.484555        40.3968 
 531   0.0000       1.484644        40.3992 
 532   0.0000       1.490590        40.5610 
 533   0.0000       1.498561        40.7779 
 534   0.0000       1.499037        40.7909 
 535   0.0000       1.509848        41.0850 
 536   0.0000       1.518355        41.3165 
 537   0.0000       1.518568        41.3223 
 538   0.0000       1.525675        41.5157 
 539   0.0000       1.525938        41.5229 
 540   0.0000       1.529995        41.6333 
 541   0.0000       1.530478        41.6464 
 542   0.0000       1.536554        41.8118 
 543   0.0000       1.536812        41.8188 
 544   0.0000       1.539996        41.9054 
 545   0.0000       1.544202        42.0199 
 546   0.0000       1.554619        42.3033 
 547   0.0000       1.554976        42.3130 
 548   0.0000       1.562945        42.5299 
 549   0.0000       1.569211        42.7004 
 550   0.0000       1.569539        42.7093 
 551   0.0000       1.577469        42.9251 
 552   0.0000       1.580267        43.0012 
 553   0.0000       1.580694        43.0129 
 554   0.0000       1.589085        43.2412 
 555   0.0000       1.593486        43.3610 
 556   0.0000       1.593988        43.3746 
 557   0.0000       1.597092        43.4591 
 558   0.0000       1.597727        43.4764 
 559   0.0000       1.598187        43.4889 
 560   0.0000       1.599094        43.5136 
 561   0.0000       1.619073        44.0572 
 562   0.0000       1.619485        44.0684 
 563   0.0000       1.623168        44.1686 
 564   0.0000       1.633738        44.4563 
 565   0.0000       1.634546        44.4783 
 566   0.0000       1.648406        44.8554 
 567   0.0000       1.648487        44.8576 
 568   0.0000       1.663258        45.2596 
 569   0.0000       1.663611        45.2692 
 570   0.0000       1.668794        45.4102 
 571   0.0000       1.673125        45.5280 
 572   0.0000       1.676212        45.6120 
 573   0.0000       1.687028        45.9064 
 574   0.0000       1.692311        46.0501 
 575   0.0000       1.692576        46.0573 
 576   0.0000       1.698920        46.2300 
 577   0.0000       1.702539        46.3284 
 578   0.0000       1.702700        46.3328 
 579   0.0000       1.718411        46.7603 
 580   0.0000       1.724023        46.9131 
 581   0.0000       1.724297        46.9205 
 582   0.0000       1.731375        47.1131 
 583   0.0000       1.731709        47.1222 
 584   0.0000       1.749059        47.5943 
 585   0.0000       1.754506        47.7425 
 586   0.0000       1.755094        47.7585 
 587   0.0000       1.763929        47.9990 
 588   0.0000       1.770924        48.1893 
 589   0.0000       1.771191        48.1966 
 590   0.0000       1.780507        48.4501 
 591   0.0000       1.786631        48.6167 
 592   0.0000       1.786700        48.6186 
 593   0.0000       1.794955        48.8432 
 594   0.0000       1.805004        49.1167 
 595   0.0000       1.812100        49.3097 
 596   0.0000       1.814297        49.3695 
 597   0.0000       1.814684        49.3801 
 598   0.0000       1.827446        49.7273 
 599   0.0000       1.827832        49.7378 
 600   0.0000       1.829500        49.7832 
 601   0.0000       1.831951        49.8499 
 602   0.0000       1.832455        49.8636 
 603   0.0000       1.840317        50.0776 
 604   0.0000       1.848604        50.3031 
 605   0.0000       1.849018        50.3143 
 606   0.0000       1.859984        50.6127 
 607   0.0000       1.860272        50.6206 
 608   0.0000       1.860443        50.6252 
 609   0.0000       1.871805        50.9344 
 610   0.0000       1.872353        50.9493 
 611   0.0000       1.894823        51.5608 
 612   0.0000       1.896034        51.5937 
 613   0.0000       1.896456        51.6052 
 614   0.0000       1.901971        51.7553 
 615   0.0000       1.902305        51.7643 
 616   0.0000       1.904367        51.8205 
 617   0.0000       1.924741        52.3749 
 618   0.0000       1.931067        52.5470 
 619   0.0000       1.931398        52.5560 
 620   0.0000       1.931655        52.5630 
 621   0.0000       1.952988        53.1435 
 622   0.0000       1.953113        53.1469 
 623   0.0000       1.959449        53.3193 
 624   0.0000       1.965648        53.4880 
 625   0.0000       1.966026        53.4983 
 626   0.0000       1.979108        53.8543 
 627   0.0000       1.991868        54.2015 
 628   0.0000       1.992162        54.2095 
 629   0.0000       1.996628        54.3310 
 630   0.0000       1.997390        54.3517 
 631   0.0000       1.997871        54.3648 
 632   0.0000       2.011939        54.7476 
 633   0.0000       2.012199        54.7547 
 634   0.0000       2.021958        55.0203 
 635   0.0000       2.022752        55.0419 
 636   0.0000       2.023244        55.0553 
 637   0.0000       2.036794        55.4240 
 638   0.0000       2.052817        55.8600 
 639   0.0000       2.053118        55.8682 
 640   0.0000       2.055808        55.9414 
 641   0.0000       2.060391        56.0661 
 642   0.0000       2.062282        56.1175 
 643   0.0000       2.062646        56.1274 
 644   0.0000       2.074125        56.4398 
 645   0.0000       2.075965        56.4899 
 646   0.0000       2.076166        56.4953 
 647   0.0000       2.109523        57.4030 
 648   0.0000       2.109718        57.4084 
 649   0.0000       2.113364        57.5076 
 650   0.0000       2.121749        57.7357 
 651   0.0000       2.123738        57.7898 
 652   0.0000       2.123845        57.7928 
 653   0.0000       2.140326        58.2412 
 654   0.0000       2.140597        58.2486 
 655   0.0000       2.144474        58.3541 
 656   0.0000       2.150984        58.5313 
 657   0.0000       2.151192        58.5369 
 658   0.0000       2.162517        58.8451 
 659   0.0000       2.166347        58.9493 
 660   0.0000       2.168612        59.0109 
 661   0.0000       2.168831        59.0169 
 662   0.0000       2.178484        59.2796 
 663   0.0000       2.200631        59.8822 
 664   0.0000       2.201057        59.8938 
 665   0.0000       2.210983        60.1639 
 666   0.0000       2.211287        60.1722 
 667   0.0000       2.216523        60.3147 
 668   0.0000       2.218862        60.3783 
 669   0.0000       2.219485        60.3953 
 670   0.0000       2.250487        61.2389 
 671   0.0000       2.265462        61.6464 
 672   0.0000       2.265551        61.6488 
 673   0.0000       2.267627        61.7053 
 674   0.0000       2.302423        62.6521 
 675   0.0000       2.310895        62.8826 
 676   0.0000       2.311309        62.8939 
 677   0.0000       2.327989        63.3478 
 678   0.0000       2.328515        63.3621 
 679   0.0000       2.345130        63.8142 
 680   0.0000       2.354037        64.0566 
 681   0.0000       2.379857        64.7592 
 682   0.0000       2.380218        64.7690 
 683   0.0000       2.395750        65.1917 
 684   0.0000       2.398151        65.2570 
 685   0.0000       2.398276        65.2604 
 686   0.0000       2.413151        65.6652 
 687   0.0000       2.413428        65.6727 
 688   0.0000       2.423660        65.9511 
 689   0.0000       2.423942        65.9588 
 690   0.0000       2.434891        66.2568 
 691   0.0000       2.460332        66.9490 
 692   0.0000       2.470488        67.2254 
 693   0.0000       2.482116        67.5418 
 694   0.0000       2.482763        67.5594 
 695   0.0000       2.492674        67.8291 
 696   0.0000       2.492891        67.8350 
 697   0.0000       2.499677        68.0197 
 698   0.0000       2.507251        68.2258 
 699   0.0000       2.511386        68.3383 
 700   0.0000       2.511651        68.3455 
 701   0.0000       2.514880        68.4334 
 702   0.0000       2.528192        68.7956 
 703   0.0000       2.528291        68.7983 
 704   0.0000       2.543837        69.2213 
 705   0.0000       2.560512        69.6751 
 706   0.0000       2.560808        69.6831 
 707   0.0000       2.583048        70.2883 
 708   0.0000       2.588672        70.4414 
 709   0.0000       2.588873        70.4468 
 710   0.0000       2.622152        71.3524 
 711   0.0000       2.650220        72.1162 
 712   0.0000       2.650465        72.1228 
 713   0.0000       2.699869        73.4672 
 714   0.0000       2.699989        73.4704 
 715   0.0000       2.707454        73.6736 
 716   0.0000       2.721125        74.0456 
 717   0.0000       2.737053        74.4790 
 718   0.0000       2.737242        74.4841 
 719   0.0000       2.746960        74.7486 
 720   0.0000       2.762377        75.1681 
 721   0.0000       2.762586        75.1738 
 722   0.0000       2.806677        76.3736 
 723   0.0000       2.825833        76.8948 
 724   0.0000       2.826108        76.9023 
 725   0.0000       2.846976        77.4702 
 726   0.0000       2.847374        77.4810 
 727   0.0000       2.847850        77.4939 
 728   0.0000       2.875977        78.2593 
 729   0.0000       2.897481        78.8445 
 730   0.0000       2.901477        78.9532 
 731   0.0000       2.901544        78.9550 
 732   0.0000       2.911412        79.2236 
 733   0.0000       2.920294        79.4652 
 734   0.0000       2.920644        79.4748 
 735   0.0000       2.925682        79.6119 
 736   0.0000       2.936692        79.9115 
 737   0.0000       2.938490        79.9604 
 738   0.0000       2.938647        79.9647 
 739   0.0000       2.948221        80.2252 
 740   0.0000       2.948540        80.2338 
 741   0.0000       2.954684        80.4010 
 742   0.0000       2.955102        80.4124 
 743   0.0000       2.967668        80.7543 
 744   0.0000       2.969973        80.8171 
 745   0.0000       2.980319        81.0986 
 746   0.0000       2.980790        81.1114 
 747   0.0000       2.995696        81.5170 
 748   0.0000       2.995825        81.5205 
 749   0.0000       2.996131        81.5289 
 750   0.0000       3.005998        81.7974 
 751   0.0000       3.006088        81.7998 
 752   0.0000       3.015520        82.0565 
 753   0.0000       3.015813        82.0644 
 754   0.0000       3.015981        82.0690 
 755   0.0000       3.016711        82.0889 
 756   0.0000       3.033017        82.5326 
 757   0.0000       3.039834        82.7181 
 758   0.0000       3.045621        82.8756 
 759   0.0000       3.045843        82.8816 
 760   0.0000       3.051522        83.0361 
 761   0.0000       3.051596        83.0381 
 762   0.0000       3.066907        83.4548 
 763   0.0000       3.079603        83.8003 
 764   0.0000       3.079842        83.8068 
 765   0.0000       3.083564        83.9080 
 766   0.0000       3.090114        84.0863 
 767   0.0000       3.092827        84.1601 
 768   0.0000       3.093063        84.1665 
 769   0.0000       3.100105        84.3581 
 770   0.0000       3.105630        84.5085 
 771   0.0000       3.105837        84.5141 
 772   0.0000       3.112047        84.6831 
 773   0.0000       3.112104        84.6847 
 774   0.0000       3.134502        85.2941 
 775   0.0000       3.136080        85.3371 
 776   0.0000       3.136199        85.3403 
 777   0.0000       3.136248        85.3416 
 778   0.0000       3.150019        85.7164 
 779   0.0000       3.150133        85.7195 
 780   0.0000       3.155868        85.8755 
 781   0.0000       3.158255        85.9405 
 782   0.0000       3.158657        85.9514 
 783   0.0000       3.173923        86.3668 
 784   0.0000       3.174177        86.3738 
 785   0.0000       3.177107        86.4535 
 786   0.0000       3.177348        86.4600 
 787   0.0000       3.177661        86.4686 
 788   0.0000       3.193134        86.8896 
 789   0.0000       3.195816        86.9626 
 790   0.0000       3.195888        86.9645 
 791   0.0000       3.203090        87.1605 
 792   0.0000       3.204351        87.1948 
 793   0.0000       3.204445        87.1974 
 794   0.0000       3.213619        87.4470 
 795   0.0000       3.216012        87.5121 
 796   0.0000       3.216440        87.5238 
 797   0.0000       3.238185        88.1155 
 798   0.0000       3.238408        88.1216 
 799   0.0000       3.244496        88.2872 
 800   0.0000       3.248160        88.3869 
 801   0.0000       3.248503        88.3963 
 802   0.0000       3.251094        88.4668 
 803   0.0000       3.253842        88.5415 
 804   0.0000       3.278091        89.2014 
 805   0.0000       3.278431        89.2106 
 806   0.0000       3.289630        89.5154 
 807   0.0000       3.290093        89.5280 
 808   0.0000       3.290530        89.5399 
 809   0.0000       3.302337        89.8612 
 810   0.0000       3.306968        89.9872 
 811   0.0000       3.307067        89.9899 
 812   0.0000       3.312991        90.1511 
 813   0.0000       3.320674        90.3601 
 814   0.0000       3.328940        90.5851 
 815   0.0000       3.329209        90.5924 
 816   0.0000       3.337849        90.8275 
 817   0.0000       3.338193        90.8369 
 818   0.0000       3.339732        90.8787 
 819   0.0000       3.344471        91.0077 
 820   0.0000       3.344916        91.0198 
 821   0.0000       3.348029        91.1045 
 822   0.0000       3.359338        91.4122 
 823   0.0000       3.359572        91.4186 
 824   0.0000       3.367651        91.6385 
 825   0.0000       3.374675        91.8296 
 826   0.0000       3.375236        91.8448 
 827   0.0000       3.379790        91.9688 
 828   0.0000       3.386099        92.1404 
 829   0.0000       3.386237        92.1442 
 830   0.0000       3.392425        92.3126 
 831   0.0000       3.396588        92.4259 
 832   0.0000       3.396821        92.4322 
 833   0.0000       3.408054        92.7379 
 834   0.0000       3.412081        92.8474 
 835   0.0000       3.412470        92.8580 
 836   0.0000       3.424886        93.1959 
 837   0.0000       3.426402        93.2371 
 838   0.0000       3.426479        93.2392 
 839   0.0000       3.436308        93.5067 
 840   0.0000       3.444758        93.7366 
 841   0.0000       3.448190        93.8300 
 842   0.0000       3.448374        93.8350 
 843   0.0000       3.458869        94.1206 
 844   0.0000       3.459038        94.1252 
 845   0.0000       3.472013        94.4783 
 846   0.0000       3.472127        94.4814 
 847   0.0000       3.474095        94.5349 
 848   0.0000       3.490967        94.9941 
 849   0.0000       3.492154        95.0263 
 850   0.0000       3.492219        95.0281 
 851   0.0000       3.501761        95.2877 
 852   0.0000       3.506250        95.4099 
 853   0.0000       3.506736        95.4231 
 854   0.0000       3.508420        95.4690 
 855   0.0000       3.510886        95.5361 
 856   0.0000       3.510984        95.5387 
 857   0.0000       3.541023        96.3561 
 858   0.0000       3.541209        96.3612 
 859   0.0000       3.544567        96.4526 
 860   0.0000       3.557217        96.7968 
 861   0.0000       3.557546        96.8058 
 862   0.0000       3.574487        97.2667 
 863   0.0000       3.582765        97.4920 
 864   0.0000       3.596222        97.8582 
 865   0.0000       3.596544        97.8669 
 866   0.0000       3.601689        98.0069 
 867   0.0000       3.610890        98.2573 
 868   0.0000       3.611024        98.2610 
 869   0.0000       3.614184        98.3470 
 870   0.0000       3.626782        98.6898 
 871   0.0000       3.639259        99.0293 
 872   0.0000       3.639349        99.0317 
 873   0.0000       3.641756        99.0972 
 874   0.0000       3.649354        99.3040 
 875   0.0000       3.651972        99.3752 
 876   0.0000       3.652132        99.3796 
 877   0.0000       3.663417        99.6866 
 878   0.0000       3.663503        99.6890 
 879   0.0000       3.671209        99.8987 
 880   0.0000       3.678513       100.0974 
 881   0.0000       3.678691       100.1023 
 882   0.0000       3.686095       100.3037 
 883   0.0000       3.686147       100.3052 
[...]
      px      :     0.082101
      py      :     0.131959
      dz2     :     0.004558  d :     0.030365
      dxz     :     0.001284
      dyz     :     0.009376
      dx2y2   :     0.006556
      dxy     :     0.008590
 17 H s       :     0.702658  s :     0.702658
      pz      :     0.107202  p :     0.339421
      px      :     0.123113
      py      :     0.109107
      dz2     :     0.006578  d :     0.030526
      dxz     :     0.006145
      dyz     :     0.004796
      dx2y2   :     0.007234
      dxy     :     0.005774
 18 C s       :     2.684043  s :     2.684043
      pz      :     0.943845  p :     2.824597
      px      :     0.937455
      py      :     0.943298
      dz2     :     0.078587  d :     0.489041
      dxz     :     0.089058
      dyz     :     0.091238
      dx2y2   :     0.105902
      dxy     :     0.124256
      f0      :     0.003715  f :     0.020413
      f+1     :     0.002576
      f-1     :     0.001551
      f+2     :     0.003576
      f-2     :     0.003029
      f+3     :     0.002379
      f-3     :     0.003588
 19 H s       :     0.708521  s :     0.708521
      pz      :     0.095497  p :     0.308646
      px      :     0.089676
      py      :     0.123473
      dz2     :     0.005754  d :     0.030313
      dxz     :     0.002622
      dyz     :     0.007845
      dx2y2   :     0.006752
      dxy     :     0.007341
 20 H s       :     0.699131  s :     0.699131
      pz      :     0.142750  p :     0.327134
      px      :     0.090359
      py      :     0.094025
      dz2     :     0.009613  d :     0.030597
      dxz     :     0.009167
      dyz     :     0.008962
      dx2y2   :     0.001149
      dxy     :     0.001706
 21 H s       :     0.706341  s :     0.706341
      pz      :     0.100600  p :     0.334251
      px      :     0.121401
      py      :     0.112249
      dz2     :     0.005627  d :     0.030463
      dxz     :     0.006640
      dyz     :     0.003733
      dx2y2   :     0.007845
      dxy     :     0.006619
 22 C s       :     2.685307  s :     2.685307
      pz      :     0.943166  p :     2.830020
      px      :     0.943025
      py      :     0.943830
      dz2     :     0.109619  d :     0.486702
      dxz     :     0.070427
      dyz     :     0.085303
      dx2y2   :     0.079241
      dxy     :     0.142112
      f0      :     0.003134  f :     0.020383
      f+1     :     0.003516
      f-1     :     0.002347
      f+2     :     0.002408
      f-2     :     0.002880
      f+3     :     0.002180
      f-3     :     0.003918
 23 H s       :     0.709866  s :     0.709866
      pz      :     0.100527  p :     0.308657
      px      :     0.109660
      py      :     0.098470
      dz2     :     0.006478  d :     0.030260
      dxz     :     0.005986
      dyz     :     0.004408
      dx2y2   :     0.006744
      dxy     :     0.006644
 24 H s       :     0.705801  s :     0.705801
      pz      :     0.086020  p :     0.320144
      px      :     0.128960
      py      :     0.105164
      dz2     :     0.002652  d :     0.030589
      dxz     :     0.007242
      dyz     :     0.002904
      dx2y2   :     0.009321
      dxy     :     0.008471
 25 H s       :     0.703281  s :     0.703281
      pz      :     0.134730  p :     0.312748
      px      :     0.090264
      py      :     0.087754
      dz2     :     0.010284  d :     0.030680
      dxz     :     0.009189
      dyz     :     0.009074
      dx2y2   :     0.000923
      dxy     :     0.001210
 26 C s       :     2.684778  s :     2.684778
      pz      :     0.948099  p :     2.824106
      px      :     0.936492
      py      :     0.939515
      dz2     :     0.127765  d :     0.494563
      dxz     :     0.091054
      dyz     :     0.128344
      dx2y2   :     0.054825
      dxy     :     0.092577
      f0      :     0.003419  f :     0.020486
      f+1     :     0.002545
      f-1     :     0.002558
      f+2     :     0.003630
      f-2     :     0.002995
      f+3     :     0.000471
      f-3     :     0.004869
 27 H s       :     0.706905  s :     0.706905
      pz      :     0.096166  p :     0.310243
      px      :     0.116687
      py      :     0.097390
      dz2     :     0.004559  d :     0.030365
      dxz     :     0.006530
      dyz     :     0.004136
      dx2y2   :     0.008099
      dxy     :     0.007041
 28 H s       :     0.702784  s :     0.702784
      pz      :     0.107292  p :     0.339035
      px      :     0.089566
      py      :     0.142177
      dz2     :     0.006603  d :     0.030525
      dxz     :     0.002654
      dyz     :     0.008299
      dx2y2   :     0.005572
      dxy     :     0.007397
 29 H s       :     0.703496  s :     0.703496
      pz      :     0.096070  p :     0.339526
      px      :     0.139265
      py      :     0.104191
      dz2     :     0.002707  d :     0.030561
      dxz     :     0.007188
      dyz     :     0.003151
      dx2y2   :     0.009357
      dxy     :     0.008158
 30 C s       :     2.683983  s :     2.683983
      pz      :     0.943800  p :     2.824479
      px      :     0.945436
      py      :     0.935243
      dz2     :     0.078042  d :     0.489132
      dxz     :     0.102905
      dyz     :     0.078193
      dx2y2   :     0.125061
      dxy     :     0.104931
      f0      :     0.003705  f :     0.020415
      f+1     :     0.003388
      f-1     :     0.000748
      f+2     :     0.003281
      f-2     :     0.003330
      f+3     :     0.002364
      f-3     :     0.003598
 31 H s       :     0.708503  s :     0.708503
      pz      :     0.095498  p :     0.308626
      px      :     0.107778
      py      :     0.105350
      dz2     :     0.005752  d :     0.030314
      dxz     :     0.005365
      dyz     :     0.005113
      dx2y2   :     0.007857
      dxy     :     0.006227
 32 H s       :     0.699089  s :     0.699089
      pz      :     0.142678  p :     0.327144
      px      :     0.098987
      py      :     0.085479
      dz2     :     0.009601  d :     0.030596
      dxz     :     0.009252
      dyz     :     0.008835
      dx2y2   :     0.001402
      dxy     :     0.001506
 33 H s       :     0.706213  s :     0.706213
      pz      :     0.100835  p :     0.334760
      px      :     0.097147
      py      :     0.136778
      dz2     :     0.005645  d :     0.030465
      dxz     :     0.002061
      dyz     :     0.008329
      dx2y2   :     0.006317
      dxy     :     0.008113
 34 C s       :     2.685277  s :     2.685277
      pz      :     0.943169  p :     2.829987
      px      :     0.944862
      py      :     0.941956
      dz2     :     0.109746  d :     0.486781
      dxz     :     0.108075
      dyz     :     0.047443
      dx2y2   :     0.146390
      dxy     :     0.075127
      f0      :     0.003136  f :     0.020384
      f+1     :     0.001692
      f-1     :     0.004167
      f+2     :     0.002170
      f-2     :     0.003119
      f+3     :     0.002168
      f-3     :     0.003931
 35 H s       :     0.709859  s :     0.709859
      pz      :     0.100536  p :     0.308630
      px      :     0.117734
      py      :     0.090360
      dz2     :     0.006483  d :     0.030260
      dxz     :     0.006940
      dyz     :     0.003454
      dx2y2   :     0.007375
      dxy     :     0.006008
 36 H s       :     0.705788  s :     0.705788
      pz      :     0.086008  p :     0.320261
      px      :     0.091425
      py      :     0.142829
      dz2     :     0.002654  d :     0.030589
      dxz     :     0.000058
      dyz     :     0.010083
      dx2y2   :     0.007766
      dxy     :     0.010028
 37 H s       :     0.703272  s :     0.703272
      pz      :     0.134804  p :     0.312794
      px      :     0.089246
      py      :     0.088744
      dz2     :     0.010284  d :     0.030681
      dxz     :     0.009382
      dyz     :     0.008899
      dx2y2   :     0.001331
      dxy     :     0.000785
 38 C s       :     2.684754  s :     2.684754
      pz      :     0.948103  p :     2.824070
      px      :     0.940929
      py      :     0.935038
      dz2     :     0.127948  d :     0.494696
      dxz     :     0.141660
      dyz     :     0.077706
      dx2y2   :     0.095096
      dxy     :     0.052287
      f0      :     0.003430  f :     0.020488
      f+1     :     0.002190
      f-1     :     0.002899
      f+2     :     0.003207
      f-2     :     0.003425
      f+3     :     0.000464
      f-3     :     0.004875
 39 H s       :     0.706893  s :     0.706893
      pz      :     0.096189  p :     0.310266
      px      :     0.122328
      py      :     0.091748
      dz2     :     0.004563  d :     0.030366
      dxz     :     0.008182
      dyz     :     0.002484
      dx2y2   :     0.008051
      dxy     :     0.007087
 40 H s       :     0.702732  s :     0.702732
      pz      :     0.107230  p :     0.339191
      px      :     0.135565
      py      :     0.096396
      dz2     :     0.006588  d :     0.030526
      dxz     :     0.007644
      dyz     :     0.003304
      dx2y2   :     0.006682
      dxy     :     0.006308
 41 H s       :     0.703493  s :     0.703493
      pz      :     0.096065  p :     0.339462
      px      :     0.089435
      py      :     0.153962
      dz2     :     0.002712  d :     0.030563
      dxz     :     0.000068
      dyz     :     0.010271
      dx2y2   :     0.007624
      dxy     :     0.009887
 42 C s       :     2.684028  s :     2.684028
      pz      :     0.943847  p :     2.824611
      px      :     0.938253
      py      :     0.942511
      dz2     :     0.078327  d :     0.489008
      dxz     :     0.079029
      dyz     :     0.101657
      dx2y2   :     0.113994
      dxy     :     0.116001
      f0      :     0.003709  f :     0.020414
      f+1     :     0.000226
      f-1     :     0.003908
      f+2     :     0.003065
      f-2     :     0.003541
      f+3     :     0.002375
      f-3     :     0.003590
 43 H s       :     0.708544  s :     0.708544
      pz      :     0.095654  p :     0.308618
      px      :     0.122132
      py      :     0.090832
      dz2     :     0.005783  d :     0.030313
      dxz     :     0.007717
      dyz     :     0.002769
      dx2y2   :     0.006504
      dxy     :     0.007539
 44 H s       :     0.699114  s :     0.699114
      pz      :     0.142675  p :     0.327094
      px      :     0.087299
      py      :     0.097121
      dz2     :     0.009607  d :     0.030599
      dxz     :     0.008747
      dyz     :     0.009365
      dx2y2   :     0.001765
      dxy     :     0.001115
 45 H s       :     0.706334  s :     0.706334
      pz      :     0.100523  p :     0.334372
      px      :     0.132389
      py      :     0.101461
      dz2     :     0.005602  d :     0.030464
      dxz     :     0.006901
      dyz     :     0.003468
      dx2y2   :     0.007535
      dxy     :     0.006958


                      *****************************
                      * MAYER POPULATION ANALYSIS *
                      *****************************

  NA   - Mulliken gross atomic population
  ZA   - Total nuclear charge
  QA   - Mulliken gross atomic charge
  VA   - Mayer's total valence
  BVA  - Mayer's bonded valence
  FA   - Mayer's free valence

  ATOM       NA         ZA         QA         VA         BVA        FA
  0 Mo    15.1394    14.0000    -1.1394     6.9979     6.9979    -0.0000
  1 C      5.7466     6.0000     0.2534     3.2883     3.2883    -0.0000
  2 C      5.7425     6.0000     0.2575     3.2900     3.2900    -0.0000
  3 C      5.7476     6.0000     0.2524     3.2873     3.2873    -0.0000
  4 O      8.3436     8.0000    -0.3436     2.1405     2.1405     0.0000
  5 O      8.3437     8.0000    -0.3437     2.1410     2.1410    -0.0000
  6 O      8.3440     8.0000    -0.3440     2.1407     2.1407     0.0000
  7 P     13.8858    15.0000     1.1142     3.3998     3.3998    -0.0000
  8 P     13.8949    15.0000     1.1051     3.4066     3.4066    -0.0000
  9 P     13.8959    15.0000     1.1041     3.4074     3.4074    -0.0000
 10 C      6.5435     6.0000    -0.5435     3.9797     3.9797     0.0000
 11 H      0.8282     1.0000     0.1718     1.0304     1.0304     0.0000
 12 H      0.9317     1.0000     0.0683     1.1158     1.1158     0.0000
 13 H      0.9535     1.0000     0.0465     1.1320     1.1320     0.0000
 14 C      6.4166     6.0000    -0.4166     4.0700     4.0700    -0.0000
 15 H      0.9561     1.0000     0.0439     1.1180     1.1180    -0.0000
 16 H      0.8389     1.0000     0.1611     1.0805     1.0805    -0.0000
 17 H      0.9888     1.0000     0.0112     1.2234     1.2234    -0.0000
 18 C      6.3836     6.0000    -0.3836     4.0139     4.0139     0.0000
 19 H      0.8487     1.0000     0.1513     1.0663     1.0663     0.0000
 20 H      0.9524     1.0000     0.0476     1.1544     1.1544    -0.0000
 21 H      0.9945     1.0000     0.0055     1.1533     1.1533     0.0000
 22 C      6.5431     6.0000    -0.5431     3.9785     3.9785    -0.0000
 23 H      0.8286     1.0000     0.1714     1.0305     1.0305    -0.0000
 24 H      0.9311     1.0000     0.0689     1.1149     1.1149     0.0000
 25 H      0.9527     1.0000     0.0473     1.1311     1.1311    -0.0000
 26 C      6.4224     6.0000    -0.4224     4.0749     4.0749    -0.0000
 27 H      0.8398     1.0000     0.1602     1.0819     1.0819    -0.0000
 28 H      0.9883     1.0000     0.0117     1.2220     1.2220    -0.0000
 29 H      0.9542     1.0000     0.0458     1.1156     1.1156    -0.0000
 30 C      6.3829     6.0000    -0.3829     4.0139     4.0139    -0.0000
 31 H      0.8496     1.0000     0.1504     1.0675     1.0675    -0.0000
 32 H      0.9518     1.0000     0.0482     1.1542     1.1542    -0.0000
 33 H      0.9954     1.0000     0.0046     1.1532     1.1532    -0.0000
 34 C      6.5424     6.0000    -0.5424     3.9787     3.9787    -0.0000
 35 H      0.8294     1.0000     0.1706     1.0312     1.0312     0.0000
 36 H      0.9318     1.0000     0.0682     1.1156     1.1156     0.0000
 37 H      0.9527     1.0000     0.0473     1.1312     1.1312    -0.0000
 38 C      6.4218     6.0000    -0.4218     4.0738     4.0738    -0.0000
 39 H      0.8398     1.0000     0.1602     1.0820     1.0820    -0.0000
 40 H      0.9874     1.0000     0.0126     1.2210     1.2210    -0.0000
 41 H      0.9540     1.0000     0.0460     1.1156     1.1156     0.0000
 42 C      6.3832     6.0000    -0.3832     4.0150     4.0150    -0.0000
 43 H      0.8505     1.0000     0.1495     1.0680     1.0680     0.0000
 44 H      0.9519     1.0000     0.0481     1.1537     1.1537     0.0000
 45 H      0.9950     1.0000     0.0050     1.1533     1.1533    -0.0000

  Mayer bond orders larger than 0.100000
B(  0-Mo,  1-C ) :   1.4861 B(  0-Mo,  2-C ) :   1.4925 B(  0-Mo,  3-C ) :   1.4861 
B(  0-Mo,  7-P ) :   0.5255 B(  0-Mo,  8-P ) :   0.5215 B(  0-Mo,  9-P ) :   0.5214 
B(  0-Mo, 10-C ) :   0.1085 B(  0-Mo, 22-C ) :   0.1075 B(  0-Mo, 34-C ) :   0.1077 
B(  1-C ,  2-C ) :  -0.1332 B(  1-C ,  3-C ) :  -0.1325 B(  1-C ,  5-O ) :   1.9833 
B(  2-C ,  3-C ) :  -0.1322 B(  2-C ,  6-O ) :   1.9832 B(  3-C ,  4-O ) :   1.9831 
B(  7-P ,  8-P ) :   0.1574 B(  7-P ,  9-P ) :   0.1585 B(  7-P , 34-C ) :   0.7023 
B(  7-P , 38-C ) :   0.8316 B(  7-P , 42-C ) :   0.7427 B(  8-P ,  9-P ) :   0.1627 
B(  8-P , 22-C ) :   0.7019 B(  8-P , 26-C ) :   0.8346 B(  8-P , 30-C ) :   0.7420 
B(  9-P , 10-C ) :   0.7023 B(  9-P , 14-C ) :   0.8337 B(  9-P , 18-C ) :   0.7434 
B( 10-C , 11-H ) :   0.9322 B( 10-C , 12-H ) :   0.9762 B( 10-C , 13-H ) :   1.0098 
B( 10-C , 14-C ) :   0.1248 B( 10-C , 18-C ) :   0.1442 B( 14-C , 15-H ) :   0.9583 
B( 14-C , 16-H ) :   0.9410 B( 14-C , 17-H ) :   1.0018 B( 14-C , 18-C ) :   0.1445 
B( 18-C , 19-H ) :   0.9524 B( 18-C , 20-H ) :   0.9538 B( 18-C , 21-H ) :   0.9834 
B( 22-C , 23-H ) :   0.9325 B( 22-C , 24-H ) :   0.9755 B( 22-C , 25-H ) :   1.0092 
B( 22-C , 26-C ) :   0.1247 B( 22-C , 30-C ) :   0.1445 B( 26-C , 27-H ) :   0.9430 
B( 26-C , 28-H ) :   1.0023 B( 26-C , 29-H ) :   0.9581 B( 26-C , 30-C ) :   0.1448 
B( 30-C , 31-H ) :   0.9537 B( 30-C , 32-H ) :   0.9540 B( 30-C , 33-H ) :   0.9827 
B( 34-C , 35-H ) :   0.9331 B( 34-C , 36-H ) :   0.9756 B( 34-C , 37-H ) :   1.0079 
B( 34-C , 38-C ) :   0.1251 B( 34-C , 42-C ) :   0.1447 B( 38-C , 39-H ) :   0.9432 
B( 38-C , 40-H ) :   1.0020 B( 38-C , 41-H ) :   0.9591 B( 38-C , 42-C ) :   0.1444 
B( 42-C , 43-H ) :   0.9542 B( 42-C , 44-H ) :   0.9535 B( 42-C , 45-H ) :   0.9827 


-------
TIMINGS
-------

Total SCF time: 0 days 0 hours 37 min 10 sec 

Total time                  ....    2230.585 sec
Sum of individual times     ....    2227.939 sec  ( 99.9%)

Fock matrix formation       ....    2216.193 sec  ( 99.4%)
  XC integration            ....      12.628 sec  (  0.6% of F)
    Basis function eval.    ....       1.954 sec  ( 15.5% of XC)
    Density eval.           ....       4.449 sec  ( 35.2% of XC)
    XC-Functional eval.     ....       0.123 sec  (  1.0% of XC)
    XC-Potential eval.      ....       3.738 sec  ( 29.6% of XC)
Diagonalization             ....       3.200 sec  (  0.1%)
Density matrix formation    ....       0.189 sec  (  0.0%)
Population analysis         ....       0.403 sec  (  0.0%)
Initial guess               ....       3.245 sec  (  0.1%)
Orbital Transformation      ....       0.000 sec  (  0.0%)
Orbital Orthonormalization  ....       0.000 sec  (  0.0%)
DIIS solution               ....       3.483 sec  (  0.2%)
Grid generation             ....       1.227 sec  (  0.1%)

-------------------------   --------------------
FINAL SINGLE POINT ENERGY     -1791.612051303804
-------------------------   --------------------


                            ***************************************
                            *     ORCA property calculations      *
                            ***************************************

                                    ---------------------
                                    Active property flags
                                    ---------------------
   (+) Dipole Moment


------------------------------------------------------------------------------
                       ORCA ELECTRIC PROPERTIES CALCULATION
------------------------------------------------------------------------------

Dipole Moment Calculation                       ... on
Quadrupole Moment Calculation                   ... off
Polarizability Calculation                      ... off
GBWName                                         ... MOR37_pr38.gbw
Electron density file                           ... MOR37_pr38.scfp
The origin for moment calculation is the CENTER OF MASS  = ( 0.000065, -0.000237 -0.171282)

-------------
DIPOLE MOMENT
-------------
                                X             Y             Z
Electronic contribution:      0.03070      -0.08907     -63.14493
Nuclear contribution   :     -0.03125       0.09337      66.31953
                        -----------------------------------------
Total Dipole Moment    :     -0.00055       0.00431       3.17460
                        -----------------------------------------
Magnitude (a.u.)       :      3.17460
Magnitude (Debye)      :      8.06920



--------------------
Rotational spectrum 
--------------------
 
Rotational constants in cm-1:     0.008677     0.008672     0.007610 
Rotational constants in MHz :   260.126059   259.983430   228.154635 

 Dipole components along the rotational axes: 
x,y,z [a.u.] :    -0.000725     0.004733     3.174600 
x,y,z [Debye]:    -0.001844     0.012031     8.069193 

 

Timings for individual modules:

Sum of individual times         ...     2238.118 sec (=  37.302 min)
GTO integral calculation        ...        7.083 sec (=   0.118 min)   0.3 %
SCF iterations                  ...     2231.034 sec (=  37.184 min)  99.7 %
                             ****ORCA TERMINATED NORMALLY****
TOTAL RUN TIME: 0 days 0 hours 37 minutes 18 seconds 852 msec
