
                                 *****************
                                 * O   R   C   A *
                                 *****************

           --- An Ab Initio, DFT and Semiempirical electronic structure package ---

                  #######################################################
                  #                        -***-                        #
                  #          Department of theory and spectroscopy      #
                  #               Directorship: Frank Neese             #
                  #        Max Planck Institute fuer Kohlenforschung    #
                  #                Kaiser Wilhelm Platz 1               #
                  #                 D-45470 Muelheim/Ruhr               #
                  #                      Germany                        #
                  #                                                     #
                  #                  All rights reserved                #
                  #                        -***-                        #
                  #######################################################


                         Program Version 4.2.0 -  RELEASE  -


 With contributions from (in alphabetic order):
   Daniel Aravena         : Magnetic Suceptibility
   Michael Atanasov       : Ab Initio Ligand Field Theory (pilot matlab implementation)
   Alexander A. Auer      : GIAO ZORA, VPT2
   Ute Becker             : Parallelization
   Giovanni Bistoni       : ED, misc. LED, open-shell LED, HFLED
   Martin Brehm           : Molecular dynamics
   Dmytro Bykov           : SCF Hessian
   Vijay G. Chilkuri      : MRCI spin determinant printing, contributions to CSF-ICE
   Dipayan Datta          : RHF DLPNO-CCSD density
   Achintya Kumar Dutta   : EOM-CC, STEOM-CC
   Dmitry Ganyushin       : Spin-Orbit,Spin-Spin,Magnetic field MRCI
   Miquel Garcia          : C-PCM Hessian, Gaussian charge scheme
   Yang Guo               : DLPNO-NEVPT2, CIM, IAO-localization
   Andreas Hansen         : Spin unrestricted coupled pair/coupled cluster methods
   Benjamin Helmich-Paris : CASSCF linear response (MC-RPA)
   Lee Huntington         : MR-EOM, pCC
   Robert Izsak           : Overlap fitted RIJCOSX, COSX-SCS-MP3, EOM
   Christian Kollmar      : KDIIS, OOCD, Brueckner-CCSD(T), CCSD density
   Simone Kossmann        : Meta GGA functionals, TD-DFT gradient, OOMP2, MP2 Hessian
   Martin Krupicka        : AUTO-CI
   Lucas Lang             : DCDCAS
   Dagmar Lenk            : GEPOL surface, SMD
   Dimitrios Liakos       : Extrapolation schemes; Compound Job, initial MDCI parallelization
   Dimitrios Manganas     : Further ROCIS development; embedding schemes
   Dimitrios Pantazis     : SARC Basis sets
   Taras Petrenko         : DFT Hessian,TD-DFT gradient, ASA, ECA, R-Raman, ABS, FL, XAS/XES, NRVS
   Peter Pinski           : DLPNO-MP2, DLPNO-MP2 Gradient
   Christoph Reimann      : Effective Core Potentials
   Marius Retegan         : Local ZFS, SOC
   Christoph Riplinger    : Optimizer, TS searches, QM/MM, DLPNO-CCSD(T), (RO)-DLPNO pert. Triples
   Tobias Risthaus        : Range-separated hybrids, TD-DFT gradient, RPA, STAB
   Michael Roemelt        : Original ROCIS implementation
   Masaaki Saitow         : Open-shell DLPNO-CCSD energy and density
   Barbara Sandhoefer     : DKH picture change effects
   Avijit Sen             : IP-ROCIS
   Kantharuban Sivalingam : CASSCF convergence, NEVPT2, FIC-MRCI
   Bernardo de Souza      : ESD, SOC TD-DFT
   Georgi Stoychev        : AutoAux, RI-MP2 NMR
   Willem Van den Heuvel  : Paramagnetic NMR
   Boris Wezisla          : Elementary symmetry handling
   Frank Wennmohs         : Technical directorship


 We gratefully acknowledge several colleagues who have allowed us to
 interface, adapt or use parts of their codes:
   Stefan Grimme, W. Hujo, H. Kruse,             : VdW corrections, initial TS optimization,
                  C. Bannwarth                     DFT functionals, gCP, sTDA/sTD-DF
   Ed Valeev, F. Pavosevic, A. Kumar             : LibInt (2-el integral package), F12 methods
   Garnet Chan, S. Sharma, J. Yang, R. Olivares  : DMRG
   Ulf Ekstrom                                   : XCFun DFT Library
   Mihaly Kallay                                 : mrcc  (arbitrary order and MRCC methods)
   Andreas Klamt, Michael Diedenhofen            : otool_cosmo (COSMO solvation model)
   Jiri Pittner, Ondrej Demel                    : Mk-CCSD
   Frank Weinhold                                : gennbo (NPA and NBO analysis)
   Christopher J. Cramer and Donald G. Truhlar   : smd solvation model
   Lars Goerigk                                  : TD-DFT with DH, B97 family of functionals
   V. Asgeirsson, H. Jonsson                     : NEB implementation
   FAccTs GmbH                                   : IRC, NEB, NEB-TS, Multilevel, MM, QM/MM, CI optimization
   S Lehtola, MJT Oliveira, MAL Marques          : LibXC Library


 Your calculation uses the libint2 library for the computation of 2-el integrals
 For citations please refer to: http://libint.valeyev.net

 Your ORCA version has been built with support for libXC version: 4.2.3
 For citations please refer to: https://tddft.org/programs/libxc/

 This ORCA versions uses:
   CBLAS   interface :  Fast vector & matrix operations
   LAPACKE interface :  Fast linear algebra routines
   SCALAPACK package :  Parallel linear algebra routines


Your calculation utilizes the DFT-NL dispersion correction.
Cite in your paper:
Vydrov, O. A.; Van Voorhis, T. J. Chem. Phys. 2010, 133, 244103
Hujo, W.; Grimme, S. J. Chem. Theory Comput. 2011, 7, 3866 
   

----- Orbital basis set information -----
Your calculation utilizes the basis: def2-TZVPPD
   F. Weigend and R. Ahlrichs, Phys. Chem. Chem. Phys. 7, 3297 (2005).
   D. Rappoport and F. Furche, J. Chem. Phys. 133 134105 (2010).

----- AuxJK basis set information -----
Your calculation utilizes the auxiliary basis: def2/JK
   H-Ba, Hf-Rn: F. Weigend, J. Comput. Chem. 29, 167 (2008).

cite the ECPs for W  [Def2-ECP] as follows:
Ce-Yb(ecp-28): M. Dolg, H. Stoll, H.Preuss, J. Chem. Phys., 1989, 90, 1730-1734.
Y-Cd(ecp-28), Hf-Hg(ecp-46): D. Andrae,U. Haeussermann, M. Dolg, H. Stoll, H. Preuss, Theor. Chim. Acta, 1990, 77, 123-141.
In-Sb(ecp-28), Tl-Bi(ecp-46): B. Metz, H. Stoll, M. Dolg, J. Chem. Phys., 2000, 113, 2563-2569.
Te-Xe(ecp-28), Po-Rn(ecp-46): K. A. Peterson, D. Figgen, E. Goll, H. Stoll, M. Dolg, J. Chem. Phys., 2003, 119, 11113-11123.
Rb(ecp-28), Cs(ecp-46): T. Leininger, A. Nicklass, W. Kuechle, H. Stoll, M. Dolg, A. Bergner, Chem. Phys. Lett., 1996, 255, 274-280.
Sr(ecp-28), Ba(ecp-46): M. Kaupp, P. V. Schleyer, H. Stoll and H. Preuss, J. Chem. Phys., 1991, 94, 1360-1366.
La(ecp-46): M. Dolg, H. Stoll, A. Savin, H. Preuss, Theor. Chim. Acta, 1989, 75, 173-194.
Lu(ecp-28): X. Cao, M. Dolg, J. Chem. Phys., 2001, 115, 7348-7355.

ECP parameters for W  [Def2-ECP] have been obtained from:
TURBOMOLE (7.0.2)

================================================================================
                                        WARNINGS
                       Please study these warnings very carefully!
================================================================================


INFO   : the flag for use of LIBINT has been found!

================================================================================
                                       INPUT FILE
================================================================================
NAME = TMB06_T1.in
|  1> #
|  2> # TMB06_T1 wB97X-V/Def2-TZVPPD
|  3> #
|  4> ! wb97x-v def2-tzvppd def2/jk grid4 nofinalgrid
|  5> 
|  6> *xyz -2 1
|  7> C       -5.371545   -2.136160    0.336278 
|  8> C       -4.697063   -0.763740    0.262018 
|  9> O       -4.978822    0.003309   -0.707502 
| 10> O       -3.902613   -0.505987    1.212120 
| 11> C        2.635057   -0.678655    2.396830 
| 12> S        2.063323    1.004526    1.938677 
| 13> C        2.314937   -2.581636   -1.299530 
| 14> S        0.864820   -2.286095   -0.358137 
| 15> C        3.240953   -1.614445   -1.507242 
| 16> S        2.972432   -0.000985   -0.910324 
| 17> C       -0.891125    2.751712   -1.395439 
| 18> S        0.528832    2.543841   -0.360303 
| 19> C       -1.489329    1.702419   -2.015371 
| 20> S       -0.828634    0.070077   -1.896647 
| 21> W        0.627788    0.033115    0.107608 
| 22> O       -2.320739    1.386691    1.151938 
| 23> C       -0.689027   -0.837880    1.297595 
| 24> C       -0.745952    0.472117    1.605961 
| 25> H       -4.850130   -2.819358   -0.346804 
| 26> H       -5.250819   -2.525653    1.350280 
| 27> H        1.778524   -1.298220    2.681124 
| 28> H        3.117621   -1.144410    1.536216 
| 29> H       -3.029141    0.618126    1.100277 
| 30> H       -2.171098    1.699602    0.245945 
| 31> H       -1.140104   -1.782909    1.572954 
| 32> H       -0.640990    1.084034    2.487860 
| 33> H       -1.256518    3.767648   -1.529996 
| 34> H       -2.404891    1.822493   -2.590760 
| 35> H        3.371580   -0.608085    3.204035 
| 36> H        2.423780   -3.583247   -1.710229 
| 37> H        4.191166   -1.850203   -1.981855 
| 38> H       -6.431678   -2.086675    0.066661 
| 39> *
| 40> 
| 41> %maxcore 5000
| 42> 
| 43> %pal
| 44> nprocs = 24
| 45> end
| 46> 
| 47> 
| 48>                          ****END OF INPUT****
================================================================================

                       ****************************
                       * Single Point Calculation *
                       ****************************

---------------------------------
CARTESIAN COORDINATES (ANGSTROEM)
---------------------------------
  C     -5.371545   -2.136160    0.336278
  C     -4.697063   -0.763740    0.262018
  O     -4.978822    0.003309   -0.707502
  O     -3.902613   -0.505987    1.212120
  C      2.635057   -0.678655    2.396830
  S      2.063323    1.004526    1.938677
  C      2.314937   -2.581636   -1.299530
  S      0.864820   -2.286095   -0.358137
  C      3.240953   -1.614445   -1.507242
  S      2.972432   -0.000985   -0.910324
  C     -0.891125    2.751712   -1.395439
  S      0.528832    2.543841   -0.360303
  C     -1.489329    1.702419   -2.015371
  S     -0.828634    0.070077   -1.896647
  W      0.627788    0.033115    0.107608
  O     -2.320739    1.386691    1.151938
  C     -0.689027   -0.837880    1.297595
  C     -0.745952    0.472117    1.605961
  H     -4.850130   -2.819358   -0.346804
  H     -5.250819   -2.525653    1.350280
  H      1.778524   -1.298220    2.681124
  H      3.117621   -1.144410    1.536216
  H     -3.029141    0.618126    1.100277
  H     -2.171098    1.699602    0.245945
  H     -1.140104   -1.782909    1.572954
  H     -0.640990    1.084034    2.487860
  H     -1.256518    3.767648   -1.529996
  H     -2.404891    1.822493   -2.590760
  H      3.371580   -0.608085    3.204035
  H      2.423780   -3.583247   -1.710229
  H      4.191166   -1.850203   -1.981855
  H     -6.431678   -2.086675    0.066661

----------------------------
CARTESIAN COORDINATES (A.U.)
----------------------------
  NO LB      ZA    FRAG     MASS         X           Y           Z
   0 C     6.0000    0    12.011  -10.150749   -4.036757    0.635473
   1 C     6.0000    0    12.011   -8.876163   -1.443259    0.495142
   2 O     8.0000    0    15.999   -9.408610    0.006253   -1.336985
   3 O     8.0000    0    15.999   -7.374870   -0.956177    2.290575
   4 C     6.0000    0    12.011    4.979536   -1.282472    4.529352
   5 S    16.0000    0    32.060    3.899115    1.898279    3.663569
   6 C     6.0000    0    12.011    4.374597   -4.878585   -2.455756
   7 S    16.0000    0    32.060    1.634273   -4.320093   -0.676781
   8 C     6.0000    0    12.011    6.124514   -3.050859   -2.848275
   9 S    16.0000    0    32.060    5.617082   -0.001861   -1.720263
  10 C     6.0000    0    12.011   -1.683982    5.199982   -2.636998
  11 S    16.0000    0    32.060    0.999348    4.807163   -0.680874
  12 C     6.0000    0    12.011   -2.814424    3.217106   -3.808499
  13 S    16.0000    0    32.060   -1.565891    0.132426   -3.584143
  14 W    14.0000*   0   183.850    1.186347    0.062578    0.203350
  15 O     8.0000    0    15.999   -4.385561    2.620466    2.176847
  16 C     6.0000    0    12.011   -1.302072   -1.583364    2.452099
  17 C     6.0000    0    12.011   -1.409645    0.892172    3.034826
  18 H     1.0000    0     1.008   -9.165417   -5.327814   -0.655365
  19 H     1.0000    0     1.008   -9.922610   -4.772792    2.551659
  20 H     1.0000    0     1.008    3.360923   -2.453280    5.066590
  21 H     1.0000    0     1.008    5.891450   -2.162621    2.903028
  22 H     1.0000    0     1.008   -5.724247    1.168089    2.079222
  23 H     1.0000    0     1.008   -4.102781    3.211782    0.464769
  24 H     1.0000    0     1.008   -2.154484   -3.369210    2.972452
  25 H     1.0000    0     1.008   -1.211296    2.048527    4.701374
  26 H     1.0000    0     1.008   -2.374475    7.119823   -2.891273
  27 H     1.0000    0     1.008   -4.544585    3.444013   -4.895827
  28 H     1.0000    0     1.008    6.371363   -1.149114    6.054749
  29 H     1.0000    0     1.008    4.580280   -6.771356   -3.231864
  30 H     1.0000    0     1.008    7.920156   -3.496377   -3.745163
  31 H     1.0000    0     1.008  -12.154110   -3.943244    0.125971
* core charge reduced due to ECP

--------------------------------
INTERNAL COORDINATES (ANGSTROEM)
--------------------------------
 C      0   0   0     0.000000000000     0.00000000     0.00000000
 C      1   0   0     1.531005281612     0.00000000     0.00000000
 O      2   1   0     1.267959515474   118.78191294     0.00000000
 O      2   1   3     1.265022221905   115.01712807   179.38154573
 C      4   2   1     6.646388572091   138.27270964    98.17807231
 S      5   4   2     1.835723894524    67.99661809    97.76719036
 C      5   4   2     4.169759075817    77.19276986   351.29520247
 S      7   5   4     1.753968237118    60.71109240   347.52668332
 C      7   5   4     1.355030751563    75.97587171   127.24888058
 S      9   7   5     1.741168515040   120.23059556   315.02170523
 C     10   9   7     4.768621397142   128.68113036   310.80172502
 S     11  10   9     1.769461718429    38.96787593   157.59188318
 C     11  10   9     1.357637473735    87.55263929     3.92311451
 S     13  11  10     1.764979794832   121.27483835    15.75310260
 W      8   7   5     2.377359375052   110.60706142    57.46551224
 O      4   2   1     2.467423197728   122.72416531   166.93488311
 C     15   8   7     1.977044029459    75.79141844   192.49872301
 C     17  15   8     1.347004894419    74.78089788   176.21159007
 H      1   2   3     1.097831557277   108.56840867    79.80396806
 H      1   2   3     1.092922513323   108.40917165   196.46596755
 H      5   4   2     1.094683811769    44.87454429   255.54437933
 H      5   4   2     1.091078453237   107.79059777   353.48311093
 H     16   4   2     1.046515366227     5.05835422     8.63852796
 H     16   4   2     0.970118054080   111.65924194   340.78923006
 H     17  15   8     1.082761677218   144.59337185   355.64465331
 H     18  17  15     1.078519949994   137.29529246   235.53952165
 H     11  10   9     1.087999810108   145.45666243   215.60942024
 H     13  11  10     1.088000019596   121.80139811   194.56846926
 H      5   4   2     1.095000532627   142.31155083   191.59991669
 H      7   5   4     1.088000488314   138.33839949   250.09906610
 H      9   7   5     1.088000036628   120.60026945   130.45995011
 H      1   2   3     1.094999575161   111.96665919   318.72181651

---------------------------
INTERNAL COORDINATES (A.U.)
---------------------------
 C      0   0   0     0.000000000000     0.00000000     0.00000000
 C      1   0   0     2.893180691834     0.00000000     0.00000000
 O      2   1   0     2.396096233146   118.78191294     0.00000000
 O      2   1   3     2.390545552725   115.01712807   179.38154573
 C      4   2   1    12.559854180876   138.27270964    98.17807231
 S      5   4   2     3.469015418146    67.99661809    97.76719036
 C      5   4   2     7.879702697727    77.19276986   351.29520247
 S      7   5   4     3.314519615750    60.71109240   347.52668332
 C      7   5   4     2.560637023495    75.97587171   127.24888058
 S      9   7   5     3.290331646431   120.23059556   315.02170523
 C     10   9   7     9.011388476956   128.68113036   310.80172502
 S     11  10   9     3.343798052289    38.96787593   157.59188318
 C     11  10   9     2.565563014507    87.55263929     3.92311451
 S     13  11  10     3.335328444137   121.27483835    15.75310260
 W      8   7   5     4.492558140759   110.60706142    57.46551224
 O      4   2   1     4.662754100189   122.72416531   166.93488311
 C     15   8   7     3.736071770381    75.79141844   192.49872301
 C     17  15   8     2.545470351504    74.78089788   176.21159007
 H      1   2   3     2.074600984430   108.56840867    79.80396806
 H      1   2   3     2.065324235778   108.40917165   196.46596755
 H      5   4   2     2.068652607481    44.87454429   255.54437933
 H      5   4   2     2.061839467239   107.79059777   353.48311093
 H     16   4   2     1.977627437110     5.05835422     8.63852796
 H     16   4   2     1.833257439783   111.65924194   340.78923006
 H     17  15   8     2.046123038246   144.59337185   355.64465331
 H     18  17  15     2.038107335458   137.29529246   235.53952165
 H     11  10   9     2.056021674862   145.45666243   215.60942024
 H     13  11  10     2.056022070737   121.80139811   194.56846926
 H      5   4   2     2.069251123163   142.31155083   191.59991669
 H      7   5   4     2.056022956486   138.33839949   250.09906610
 H      9   7   5     2.056022102923   120.60026945   130.45995011
 H      1   2   3     2.069249313815   111.96665919   318.72181651

---------------------
BASIS SET INFORMATION
---------------------
There are 5 groups of distinct atoms

 Group   1 Type C   : 12s6p3d1f contracted to 6s3p3d1f pattern {621111/411/111/1}
 Group   2 Type O   : 12s7p3d1f contracted to 6s4p3d1f pattern {621111/4111/111/1}
 Group   3 Type S   : 15s10p4d1f contracted to 6s6p4d1f pattern {732111/511111/1111/1}
 Group   4 Type W   : 8s8p6d2f1g contracted to 6s5p3d2f1g pattern {311111/41111/411/11/1}
 Group   5 Type H   : 5s3p1d contracted to 3s3p1d pattern {311/111/1}

Atom   0C    basis set group =>   1
Atom   1C    basis set group =>   1
Atom   2O    basis set group =>   2
Atom   3O    basis set group =>   2
Atom   4C    basis set group =>   1
Atom   5S    basis set group =>   3
Atom   6C    basis set group =>   1
Atom   7S    basis set group =>   3
Atom   8C    basis set group =>   1
Atom   9S    basis set group =>   3
Atom  10C    basis set group =>   1
Atom  11S    basis set group =>   3
Atom  12C    basis set group =>   1
Atom  13S    basis set group =>   3
Atom  14W    basis set group =>   4
Atom  15O    basis set group =>   2
Atom  16C    basis set group =>   1
Atom  17C    basis set group =>   1
Atom  18H    basis set group =>   5
Atom  19H    basis set group =>   5
Atom  20H    basis set group =>   5
Atom  21H    basis set group =>   5
Atom  22H    basis set group =>   5
Atom  23H    basis set group =>   5
Atom  24H    basis set group =>   5
Atom  25H    basis set group =>   5
Atom  26H    basis set group =>   5
Atom  27H    basis set group =>   5
Atom  28H    basis set group =>   5
Atom  29H    basis set group =>   5
Atom  30H    basis set group =>   5
Atom  31H    basis set group =>   5
----------------------------------
AUXILIARY/JK BASIS SET INFORMATION
----------------------------------
There are 5 groups of distinct atoms

 Group   1 Type C   : 14s10p6d2f1g contracted to 10s8p5d1f1g pattern {5111111111/31111111/21111/2/1}
 Group   2 Type O   : 14s10p6d2f1g contracted to 10s8p4d2f1g pattern {5111111111/31111111/3111/11/1}
 Group   3 Type S   : 16s12p10d4f1g contracted to 13s11p9d4f1g pattern {4111111111111/21111111111/211111111/1111/1}
 Group   4 Type W   : 13s12p11d9f5g3h2i contracted to 11s9p9d7f4g3h2i pattern {31111111111/411111111/311111111/3111111/2111/111/11}
 Group   5 Type H   : 4s2p2d contracted to 2s2p2d pattern {31/11/11}

Atom   0C    basis set group =>   1
Atom   1C    basis set group =>   1
Atom   2O    basis set group =>   2
Atom   3O    basis set group =>   2
Atom   4C    basis set group =>   1
Atom   5S    basis set group =>   3
Atom   6C    basis set group =>   1
Atom   7S    basis set group =>   3
Atom   8C    basis set group =>   1
Atom   9S    basis set group =>   3
Atom  10C    basis set group =>   1
Atom  11S    basis set group =>   3
Atom  12C    basis set group =>   1
Atom  13S    basis set group =>   3
Atom  14W    basis set group =>   4
Atom  15O    basis set group =>   2
Atom  16C    basis set group =>   1
Atom  17C    basis set group =>   1
Atom  18H    basis set group =>   5
Atom  19H    basis set group =>   5
Atom  20H    basis set group =>   5
Atom  21H    basis set group =>   5
Atom  22H    basis set group =>   5
Atom  23H    basis set group =>   5
Atom  24H    basis set group =>   5
Atom  25H    basis set group =>   5
Atom  26H    basis set group =>   5
Atom  27H    basis set group =>   5
Atom  28H    basis set group =>   5
Atom  29H    basis set group =>   5
Atom  30H    basis set group =>   5
Atom  31H    basis set group =>   5
-------------------------
ECP PARAMETER INFORMATION
-------------------------

 Group 1, Type W  ECP Def2-ECP (replacing 60 core electrons, lmax=3)

Atom  14W    ECP group =>   1



           ************************************************************
           *        Program running with 24 parallel MPI-processes    *
           *              working on a common directory               *
           ************************************************************
------------------------------------------------------------------------------
                           ORCA GTO INTEGRAL CALCULATION
------------------------------------------------------------------------------

                         BASIS SET STATISTICS AND STARTUP INFO

 # of primitive gaussian shells          ...  568
 # of primitive gaussian functions       ... 1344
 # of contracted shells                  ...  359
 # of contracted basis functions         ... 1005
 Highest angular momentum                ...    4
 Maximum contraction depth               ...    7
 Integral package used                   ... LIBINT
 Integral threshhold            Thresh   ...  1.000e-10
 Primitive cut-off              TCut     ...  1.000e-11


------------------------------ INTEGRAL EVALUATION ----------------------------


 * One electron integrals 

   ECP integrals                         ... done
 Pre-screening matrix                    ... done
 Shell pair data                         ... done (   0.014 sec)



           ************************************************************
           *        Program running with 24 parallel MPI-processes    *
           *              working on a common directory               *
           ************************************************************
-------------------------------------------------------------------------------
                                 ORCA SCF
-------------------------------------------------------------------------------

------------
SCF SETTINGS
------------
Hamiltonian:
 Density Functional     Method          .... DFT(GTOs)
 Exchange Functional    Exchange        .... WB97X-V
 Correlation Functional Correlation     .... WB97X-V
 Gradients option       PostSCFGGA      .... off
 Hybrid DFT is turned on
   Fraction HF Exchange ScalHFX         ....  0.167000
   Scaling of DF-GGA-X  ScalDFX         ....  0.000000
   Scaling of DF-GGA-C  ScalDFC         ....  1.000000
   Scaling of DF-LDA-C  ScalLDAC        ....  1.000000
   Perturbative correction              ....  0.000000
   Density functional embedding theory  .... OFF
 Long-range corrected/Screened/Range-Separated Hybrid DFT is turned on
   Amount of maximum screened exact exchange              ....  0.833000
   Range separation parameter mu (erf(mu*r12)/r12)        ....  0.300000
   NL short-range parameter             ....  6.000000
   NL long-range parameter              ....  0.010000


General Settings:
 Integral files         IntName         .... TMB06_T1
 Hartree-Fock type      HFTyp           .... RHF
 Total Charge           Charge          ....   -2
 Multiplicity           Mult            ....    1
 Number of Electrons    NEL             ....  188
 Basis Dimension        Dim             .... 1005
 Nuclear Repulsion      ENuc            ....   2319.0967045002 Eh

Convergence Acceleration:
 DIIS                   CNVDIIS         .... on
   Start iteration      DIISMaxIt       ....    12
   Startup error        DIISStart       ....  0.200000
   # of expansion vecs  DIISMaxEq       ....     5
   Bias factor          DIISBfac        ....   1.050
   Max. coefficient     DIISMaxC        ....  10.000
 Newton-Raphson         CNVNR           .... off
 SOSCF                  CNVSOSCF        .... off
 Level Shifting         CNVShift        .... on
   Level shift para.    LevelShift      ....    0.2500
   Turn off err/grad.   ShiftErr        ....    0.0010
 Zerner damping         CNVZerner       .... off
 Static damping         CNVDamp         .... on
   Fraction old density DampFac         ....    0.7000
   Max. Damping (<1)    DampMax         ....    0.9800
   Min. Damping (>=0)   DampMin         ....    0.0000
   Turn off err/grad.   DampErr         ....    0.1000
 Fernandez-Rico         CNVRico         .... off

SCF Procedure:
 Maximum # iterations   MaxIter         ....   125
 SCF integral mode      SCFMode         .... Direct
   Integral package                     .... LIBINT
 Reset frequency        DirectResetFreq ....    20
 Integral Threshold     Thresh          ....  1.000e-10 Eh
 Primitive CutOff       TCut            ....  1.000e-11 Eh

Convergence Tolerance:
 Convergence Check Mode ConvCheckMode   .... Total+1el-Energy
 Convergence forced     ConvForced      .... 0
 Energy Change          TolE            ....  1.000e-06 Eh
 1-El. energy change                    ....  1.000e-03 Eh
 DIIS Error             TolErr          ....  1.000e-06


Diagonalization of the overlap matrix:
Smallest eigenvalue                        ... 1.211e-06
Time for diagonalization                   ...    0.172 sec
Threshold for overlap eigenvalues          ... 1.000e-08
Number of eigenvalues below threshold      ... 0
Time for construction of square roots      ...    0.137 sec
Total time needed                          ...    0.313 sec

-------------------
DFT GRID GENERATION
-------------------

General Integration Accuracy     IntAcc      ...  4.670
Radial Grid Type                 RadialGrid  ... Gauss-Chebyshev
Angular Grid (max. acc.)         AngularGrid ... Lebedev-302
Angular grid pruning method      GridPruning ... 3 (G Style)
Weight generation scheme         WeightScheme... Becke
Basis function cutoff            BFCut       ...    1.0000e-10
Integration weight cutoff        WCut        ...    1.0000e-14
Grids for H and He will be reduced by one unit

# of grid points (after initial pruning)     ... 167942 (   0.0 sec)
# of grid points (after weights+screening)   ... 149580 (   0.1 sec)
nearest neighbour list constructed           ...    0.0 sec
Grid point re-assignment to atoms done       ...    0.0 sec
Grid point division into batches done        ...    0.5 sec
Reduced shell lists constructed in    0.6 sec

Total number of grid points                  ...   149580
Total number of batches                      ...     2352
Average number of points per batch           ...       63
Average number of grid points per atom       ...     4674
Average number of shells per batch           ...   162.62 (45.30%)
Average number of basis functions per batch  ...   436.03 (43.39%)
Average number of large shells per batch     ...   110.99 (68.25%)
Average number of large basis fcns per batch ...   300.79 (68.98%)
Maximum spatial batch extension              ...   4.35,  4.59,  3.75 au
Average spatial batch extension              ...   0.05,  0.05,  0.05 au

Time for grid setup =    0.862 sec

------------------------------
INITIAL GUESS: MODEL POTENTIAL
------------------------------
Loading Hartree-Fock densities                     ... done
  calling /sw/apps/orca/orca_4_2_0_linux_x86-64_openmpi314/orca TMB06_T1_atom74.inp > TMB06_T1_atom74.out in order to generate an atomic fitting density for atom 14 (W  with ECP) on-the-fly... 
    atom 14 (W ), assumed electronic state with S=5: 1s2 2s2 2p6 3s2 3p6 4s2 3d10 4p6 5s2 4d10 5p6 6s2 4f14 5d4           ... done
Calculating cut-offs                               ... done
Setting up the integral package                    ... done
Initializing the effective Hamiltonian             ... done
Starting the Coulomb interaction                   ... done (   0.1 sec)
Reading the grid                                   ... done
Mapping shells                                     ... done
Starting the XC term evaluation                    ... done (   0.5 sec)
  promolecular density results
     # of electrons  =    245.993959348
     EX              =   -402.558687447
     EC              =    -13.762216611
     EX+EC           =   -416.320904058
Transforming the Hamiltonian                       ... done (   0.1 sec)
Diagonalizing the Hamiltonian                      ... done (   0.1 sec)
Back transforming the eigenvectors                 ... done (   0.0 sec)
Now organizing SCF variables                       ... done
                      ------------------
                      INITIAL GUESS DONE (   3.4 sec)
                      ------------------
--------------
SCF ITERATIONS
--------------
ITER       Energy         Delta-E        Max-DP      RMS-DP      [F,P]     Damp
               ***  Starting incremental Fock matrix formation  ***
  0  -2635.3182697067   0.000000000000 1.08642843  0.00273098  0.3433447 0.7000
  1  -2635.4805008138  -0.162231107026 0.77491136  0.00192783  0.2338563 0.7000
                               ***Turning on DIIS***
  2  -2635.5649527407  -0.084451926924 0.50773902  0.00126105  0.1623691 0.7000
  3  -2635.6177623898  -0.052809649135 0.30467700  0.00080405  0.1119860 0.7000
  4  -2635.6550989194  -0.037336529580 0.69665445  0.00189110  0.0779001 0.0000
  5  -2635.7452063502  -0.090107430772 0.02027005  0.00015043  0.0047457 0.0000
  6  -2635.7461408164  -0.000934466235 0.01171570  0.00008650  0.0024480 0.0000
  7  -2635.7465184247  -0.000377608307 0.01141569  0.00007831  0.0017350 0.0000
  8  -2635.7467108387  -0.000192413973 0.01139917  0.00005184  0.0016174 0.0000
  9  -2635.7468303561  -0.000119517405 0.01558554  0.00008427  0.0007936 0.0000
 10  -2635.7469235382  -0.000093182136 0.01167678  0.00003623  0.0004237 0.0000
 11  -2635.7469416504  -0.000018112140 0.01684842  0.00003711  0.0002353 0.0000
 12  -2635.7469477072  -0.000006056846 0.00693300  0.00001829  0.0001301 0.0000
 13  -2635.7469489951  -0.000001287916 0.00870963  0.00002069  0.0000734 0.0000
 14  -2635.7469493631  -0.000000367968 0.00694998  0.00001547  0.0000331 0.0000
 15  -2635.7469493245   0.000000038560 0.00438790  0.00001304  0.0000473 0.0000
                 **** Energy Check signals convergence ****

               *****************************************************
               *                     SUCCESS                       *
               *           SCF CONVERGED AFTER  16 CYCLES          *
               *****************************************************


Setting up the DFT-NL grid :

General Integration Accuracy     IntAcc      ...  4.340
Radial Grid Type                 RadialGrid  ... Gauss-Chebyshev
Angular Grid (max. acc.)         AngularGrid ... Lebedev-110
Angular grid pruning method      GridPruning ... 3 (G Style)
Weight generation scheme         WeightScheme... Becke
Basis function cutoff            BFCut       ...    1.0000e-10
Integration weight cutoff        WCut        ...    1.0000e-14
Grids for H and He will be reduced by one unit

# of grid points (after initial pruning)     ...  43728 (   0.0 sec)
# of grid points (after weights+screening)   ...  39674 (   0.0 sec)
nearest neighbour list constructed           ...    0.0 sec
Grid point re-assignment to atoms done       ...    0.0 sec
Grid point division into batches done        ...    0.0 sec
Reduced shell lists constructed in    0.1 sec

Total number of grid points                  ...    39674
Total number of batches                      ...      635
Average number of points per batch           ...       62
Average number of grid points per atom       ...     1240
Average number of shells per batch           ...   166.00 (46.24%)
Average number of basis functions per batch  ...   447.00 (44.48%)
Average number of large shells per batch     ...   114.07 (68.72%)
Average number of large basis fcns per batch ...   308.79 (69.08%)
Maximum spatial batch extension              ...   4.00,  5.72,  3.67 au
Average spatial batch extension              ...   0.07,  0.08,  0.07 au

Final grid set up in    0.1 sec

-------------------------------------------------------------------------------
                         DFT-NL dispersion correction                          
-------------------------------------------------------------------------------

SC Energy -2635.746949297 
NL    Energy 0.703312194 
SC+NL Energy -2635.043637102 
NL done in    0.5 sec
-------------------------------------------------------------------------------

----------------
TOTAL SCF ENERGY
----------------

Total Energy       :        -2635.04363710 Eh          -71703.18268 eV

Components:
Nuclear Repulsion  :         2319.09670450 Eh           63105.82957 eV
Electronic Energy  :        -4954.14034160 Eh         -134809.01225 eV
One Electron Energy:        -8319.85942185 Eh         -226394.88456 eV
Two Electron Energy:         3365.71908025 Eh           91585.87231 eV

Virial components:
Potential Energy   :        -5220.05982688 Eh         -142045.04932 eV
Kinetic Energy     :         2585.01618978 Eh           70341.86664 eV
Virial Ratio       :            2.01935286


DFT components:
N(Alpha)           :       93.999921678442 electrons
N(Beta)            :       93.999921678442 electrons
N(Total)           :      187.999843356884 electrons
E(X)               :     -148.488860525962 Eh       
E(C)               :       -8.670917815603 Eh       
NL Energy, E(C,NL) :        0.703312194451 Eh       
E(XC)              :     -156.456466147115 Eh       
DFET-embed. en.    :        0.000000000000 Eh       

---------------
SCF CONVERGENCE
---------------

  Last Energy change         ...    2.7986e-08  Tolerance :   1.0000e-06
  Last MAX-Density change    ...    3.7124e-03  Tolerance :   1.0000e-05
  Last RMS-Density change    ...    1.2259e-05  Tolerance :   1.0000e-06
  Last DIIS Error            ...    1.5912e-05  Tolerance :   1.0000e-06

             **** THE GBW FILE WAS UPDATED (TMB06_T1.gbw) ****
             **** DENSITY FILE WAS UPDATED (TMB06_T1.scfp) ****
             **** ENERGY FILE WAS UPDATED (TMB06_T1.en.tmp) ****
             **** THE GBW FILE WAS UPDATED (TMB06_T1.gbw) ****
             **** DENSITY FILE WAS UPDATED (TMB06_T1.scfp) ****
----------------
ORBITAL ENERGIES
----------------

  NO   OCC          E(Eh)            E(eV) 
   0   2.0000     -88.631909     -2411.7969 
   1   2.0000     -88.611407     -2411.2390 
   2   2.0000     -88.607563     -2411.1344 
   3   2.0000     -88.598787     -2410.8956 
   4   2.0000     -88.596486     -2410.8330 
   5   2.0000     -18.978518      -516.4317 
   6   2.0000     -18.937485      -515.3152 
   7   2.0000     -18.921833      -514.8893 
   8   2.0000     -10.137883      -275.8658 
   9   2.0000     -10.088246      -274.5151 
  10   2.0000     -10.081106      -274.3208 
  11   2.0000     -10.079500      -274.2771 
  12   2.0000     -10.073765      -274.1211 
  13   2.0000     -10.071306      -274.0542 
  14   2.0000     -10.069832      -274.0140 
  15   2.0000     -10.057929      -273.6902 
  16   2.0000     -10.040168      -273.2069 
  17   2.0000      -7.810037      -212.5219 
  18   2.0000      -7.790143      -211.9806 
  19   2.0000      -7.785929      -211.8659 
  20   2.0000      -7.777206      -211.6285 
  21   2.0000      -7.775113      -211.5716 
  22   2.0000      -5.765409      -156.8848 
  23   2.0000      -5.760780      -156.7588 
  24   2.0000      -5.759536      -156.7249 
  25   2.0000      -5.745833      -156.3521 
  26   2.0000      -5.741746      -156.2409 
  27   2.0000      -5.740571      -156.2089 
  28   2.0000      -5.739483      -156.1793 
  29   2.0000      -5.737043      -156.1129 
  30   2.0000      -5.734563      -156.0454 
  31   2.0000      -5.733219      -156.0088 
  32   2.0000      -5.731488      -155.9617 
  33   2.0000      -5.728161      -155.8712 
  34   2.0000      -5.726989      -155.8393 
  35   2.0000      -5.725825      -155.8076 
  36   2.0000      -5.722307      -155.7119 
  37   2.0000      -2.901362       -78.9501 
  38   2.0000      -1.543993       -42.0142 
  39   2.0000      -1.538344       -41.8605 
  40   2.0000      -1.534067       -41.7441 
  41   2.0000      -0.935190       -25.4478 
  42   2.0000      -0.896470       -24.3942 
  43   2.0000      -0.835789       -22.7430 
  44   2.0000      -0.733521       -19.9601 
  45   2.0000      -0.713780       -19.4229 
  46   2.0000      -0.669287       -18.2122 
  47   2.0000      -0.655659       -17.8414 
  48   2.0000      -0.641489       -17.4558 
  49   2.0000      -0.628726       -17.1085 
  50   2.0000      -0.607963       -16.5435 
  51   2.0000      -0.559461       -15.2237 
  52   2.0000      -0.539415       -14.6782 
  53   2.0000      -0.508791       -13.8449 
  54   2.0000      -0.458781       -12.4841 
  55   2.0000      -0.439363       -11.9557 
  56   2.0000      -0.431649       -11.7458 
  57   2.0000      -0.415846       -11.3157 
  58   2.0000      -0.381620       -10.3844 
  59   2.0000      -0.376394       -10.2422 
  60   2.0000      -0.363203        -9.8833 
  61   2.0000      -0.358909        -9.7664 
  62   2.0000      -0.337665        -9.1883 
  63   2.0000      -0.330757        -9.0003 
  64   2.0000      -0.326647        -8.8885 
  65   2.0000      -0.319542        -8.6952 
  66   2.0000      -0.318173        -8.6579 
  67   2.0000      -0.305979        -8.3261 
  68   2.0000      -0.284734        -7.7480 
  69   2.0000      -0.271598        -7.3906 
  70   2.0000      -0.265566        -7.2264 
  71   2.0000      -0.255637        -6.9562 
  72   2.0000      -0.242241        -6.5917 
  73   2.0000      -0.241494        -6.5714 
  74   2.0000      -0.231996        -6.3129 
  75   2.0000      -0.224765        -6.1162 
  76   2.0000      -0.214929        -5.8485 
  77   2.0000      -0.203127        -5.5274 
  78   2.0000      -0.195812        -5.3283 
  79   2.0000      -0.177161        -4.8208 
  80   2.0000      -0.168459        -4.5840 
  81   2.0000      -0.161948        -4.4068 
  82   2.0000      -0.145680        -3.9642 
  83   2.0000      -0.140518        -3.8237 
  84   2.0000      -0.133645        -3.6367 
  85   2.0000      -0.131337        -3.5739 
  86   2.0000      -0.119380        -3.2485 
  87   2.0000      -0.118633        -3.2282 
  88   2.0000      -0.113018        -3.0754 
  89   2.0000      -0.107595        -2.9278 
  90   2.0000      -0.090737        -2.4691 
  91   2.0000      -0.081060        -2.2058 
  92   2.0000      -0.065578        -1.7845 
  93   2.0000      -0.037364        -1.0167 
  94   0.0000       0.199507         5.4289 
  95   0.0000       0.204623         5.5681 
  96   0.0000       0.210552         5.7294 
  97   0.0000       0.215411         5.8616 
  98   0.0000       0.217962         5.9310 
  99   0.0000       0.229623         6.2484 
 100   0.0000       0.234204         6.3730 
 101   0.0000       0.237885         6.4732 
 102   0.0000       0.245518         6.6809 
 103   0.0000       0.249961         6.8018 
 104   0.0000       0.252386         6.8678 
 105   0.0000       0.257076         6.9954 
 106   0.0000       0.259076         7.0498 
 107   0.0000       0.264292         7.1917 
 108   0.0000       0.268833         7.3153 
 109   0.0000       0.270934         7.3725 
 110   0.0000       0.272384         7.4119 
 111   0.0000       0.275414         7.4944 
 112   0.0000       0.281643         7.6639 
 113   0.0000       0.286774         7.8035 
 114   0.0000       0.288566         7.8523 
 115   0.0000       0.294594         8.0163 
 116   0.0000       0.298641         8.1264 
 117   0.0000       0.301552         8.2056 
 118   0.0000       0.303432         8.2568 
 119   0.0000       0.310922         8.4606 
 120   0.0000       0.313685         8.5358 
 121   0.0000       0.319035         8.6814 
 122   0.0000       0.320571         8.7232 
 123   0.0000       0.323748         8.8096 
 124   0.0000       0.329574         8.9682 
 125   0.0000       0.334393         9.0993 
 126   0.0000       0.336003         9.1431 
 127   0.0000       0.338583         9.2133 
 128   0.0000       0.341678         9.2975 
 129   0.0000       0.346657         9.4330 
 130   0.0000       0.353037         9.6066 
 131   0.0000       0.357068         9.7163 
 132   0.0000       0.357182         9.7194 
 133   0.0000       0.361206         9.8289 
 134   0.0000       0.364447         9.9171 
 135   0.0000       0.367922        10.0117 
 136   0.0000       0.372237        10.1291 
 137   0.0000       0.373993        10.1769 
 138   0.0000       0.377950        10.2845 
 139   0.0000       0.380505        10.3541 
 140   0.0000       0.381640        10.3849 
 141   0.0000       0.385269        10.4837 
 142   0.0000       0.391540        10.6543 
 143   0.0000       0.395087        10.7509 
 144   0.0000       0.395842        10.7714 
 145   0.0000       0.401688        10.9305 
 146   0.0000       0.406375        11.0580 
 147   0.0000       0.409904        11.1541 
 148   0.0000       0.410966        11.1830 
 149   0.0000       0.414690        11.2843 
 150   0.0000       0.416336        11.3291 
 151   0.0000       0.422042        11.4843 
 152   0.0000       0.424484        11.5508 
 153   0.0000       0.426611        11.6087 
 154   0.0000       0.430132        11.7045 
 155   0.0000       0.431532        11.7426 
 156   0.0000       0.437353        11.9010 
 157   0.0000       0.439771        11.9668 
 158   0.0000       0.447083        12.1658 
 159   0.0000       0.449221        12.2239 
 160   0.0000       0.452430        12.3112 
 161   0.0000       0.457342        12.4449 
 162   0.0000       0.459205        12.4956 
 163   0.0000       0.461080        12.5466 
 164   0.0000       0.464222        12.6321 
 165   0.0000       0.469505        12.7759 
 166   0.0000       0.471611        12.8332 
 167   0.0000       0.473122        12.8743 
 168   0.0000       0.475615        12.9421 
 169   0.0000       0.480089        13.0639 
 170   0.0000       0.481869        13.1123 
 171   0.0000       0.483530        13.1575 
 172   0.0000       0.487827        13.2745 
 173   0.0000       0.488212        13.2849 
 174   0.0000       0.492641        13.4055 
 175   0.0000       0.496282        13.5045 
 176   0.0000       0.497503        13.5378 
 177   0.0000       0.502153        13.6643 
 178   0.0000       0.504049        13.7159 
 179   0.0000       0.506563        13.7843 
 180   0.0000       0.507549        13.8111 
 181   0.0000       0.512876        13.9561 
 182   0.0000       0.516671        14.0593 
 183   0.0000       0.520460        14.1624 
 184   0.0000       0.521858        14.2005 
 185   0.0000       0.524619        14.2756 
 186   0.0000       0.529557        14.4100 
 187   0.0000       0.533169        14.5083 
 188   0.0000       0.534140        14.5347 
 189   0.0000       0.539641        14.6844 
 190   0.0000       0.540246        14.7008 
 191   0.0000       0.542300        14.7567 
 192   0.0000       0.544963        14.8292 
 193   0.0000       0.548264        14.9190 
 194   0.0000       0.551028        14.9942 
 195   0.0000       0.553204        15.0534 
 196   0.0000       0.557763        15.1775 
 197   0.0000       0.559095        15.2137 
 198   0.0000       0.563197        15.3254 
 199   0.0000       0.563727        15.3398 
 200   0.0000       0.565891        15.3987 
 201   0.0000       0.568238        15.4626 
 202   0.0000       0.571933        15.5631 
 203   0.0000       0.573082        15.5944 
 204   0.0000       0.577199        15.7064 
 205   0.0000       0.581566        15.8252 
 206   0.0000       0.584524        15.9057 
 207   0.0000       0.585472        15.9315 
 208   0.0000       0.590152        16.0589 
 209   0.0000       0.594588        16.1796 
 210   0.0000       0.595019        16.1913 
 211   0.0000       0.597969        16.2716 
 212   0.0000       0.599107        16.3025 
 213   0.0000       0.602258        16.3883 
 214   0.0000       0.606698        16.5091 
 215   0.0000       0.609036        16.5727 
 216   0.0000       0.610614        16.6157 
 217   0.0000       0.611810        16.6482 
 218   0.0000       0.614712        16.7272 
 219   0.0000       0.620128        16.8745 
 220   0.0000       0.624235        16.9863 
 221   0.0000       0.631575        17.1860 
 222   0.0000       0.632423        17.2091 
 223   0.0000       0.635834        17.3019 
 224   0.0000       0.638574        17.3765 
 225   0.0000       0.643743        17.5171 
 226   0.0000       0.644732        17.5440 
 227   0.0000       0.646173        17.5833 
 228   0.0000       0.649987        17.6871 
 229   0.0000       0.652547        17.7567 
 230   0.0000       0.657180        17.8828 
 231   0.0000       0.659449        17.9445 
 232   0.0000       0.663771        18.0621 
 233   0.0000       0.666047        18.1241 
 234   0.0000       0.667797        18.1717 
 235   0.0000       0.671490        18.2722 
 236   0.0000       0.672419        18.2975 
 237   0.0000       0.678577        18.4650 
 238   0.0000       0.679985        18.5033 
 239   0.0000       0.685677        18.6582 
 240   0.0000       0.688168        18.7260 
 241   0.0000       0.690430        18.7876 
 242   0.0000       0.691454        18.8154 
 243   0.0000       0.693986        18.8843 
 244   0.0000       0.697464        18.9790 
 245   0.0000       0.700749        19.0684 
 246   0.0000       0.703609        19.1462 
 247   0.0000       0.706882        19.2352 
 248   0.0000       0.709803        19.3147 
 249   0.0000       0.713094        19.4043 
 250   0.0000       0.717110        19.5136 
 251   0.0000       0.718266        19.5450 
 252   0.0000       0.720073        19.5942 
 253   0.0000       0.725684        19.7469 
 254   0.0000       0.728219        19.8158 
 255   0.0000       0.729868        19.8607 
 256   0.0000       0.735174        20.0051 
 257   0.0000       0.736173        20.0323 
 258   0.0000       0.740201        20.1419 
 259   0.0000       0.747692        20.3457 
 260   0.0000       0.750104        20.4114 
 261   0.0000       0.753115        20.4933 
 262   0.0000       0.755299        20.5527 
 263   0.0000       0.760381        20.6910 
 264   0.0000       0.765432        20.8285 
 265   0.0000       0.766220        20.8499 
 266   0.0000       0.769042        20.9267 
 267   0.0000       0.772776        21.0283 
 268   0.0000       0.777388        21.1538 
 269   0.0000       0.777958        21.1693 
 270   0.0000       0.780574        21.2405 
 271   0.0000       0.784274        21.3412 
 272   0.0000       0.788936        21.4680 
 273   0.0000       0.791657        21.5421 
 274   0.0000       0.794985        21.6326 
 275   0.0000       0.799497        21.7554 
 276   0.0000       0.801995        21.8234 
 277   0.0000       0.805968        21.9315 
 278   0.0000       0.808757        22.0074 
 279   0.0000       0.814593        22.1662 
 280   0.0000       0.815679        22.1957 
 281   0.0000       0.821272        22.3480 
 282   0.0000       0.823196        22.4003 
 283   0.0000       0.826943        22.5023 
 284   0.0000       0.830158        22.5897 
 285   0.0000       0.836314        22.7573 
 286   0.0000       0.838825        22.8256 
 287   0.0000       0.844173        22.9711 
 288   0.0000       0.849100        23.1052 
 289   0.0000       0.851717        23.1764 
 290   0.0000       0.858603        23.3638 
 291   0.0000       0.860866        23.4253 
 292   0.0000       0.864456        23.5231 
 293   0.0000       0.867920        23.6173 
 294   0.0000       0.870481        23.6870 
 295   0.0000       0.874671        23.8010 
 296   0.0000       0.876600        23.8535 
 297   0.0000       0.881489        23.9865 
 298   0.0000       0.882011        24.0008 
 299   0.0000       0.887055        24.1380 
 300   0.0000       0.891763        24.2661 
 301   0.0000       0.896750        24.4018 
 302   0.0000       0.898220        24.4418 
 303   0.0000       0.900601        24.5066 
 304   0.0000       0.903867        24.5955 
 305   0.0000       0.909316        24.7437 
 306   0.0000       0.913396        24.8548 
 307   0.0000       0.915676        24.9168 
 308   0.0000       0.920757        25.0551 
 309   0.0000       0.922509        25.1027 
 310   0.0000       0.924507        25.1571 
 311   0.0000       0.926902        25.2223 
 312   0.0000       0.934165        25.4199 
 313   0.0000       0.935556        25.4578 
 314   0.0000       0.940933        25.6041 
 315   0.0000       0.945553        25.7298 
 316   0.0000       0.948573        25.8120 
 317   0.0000       0.950495        25.8643 
 318   0.0000       0.954884        25.9837 
 319   0.0000       0.957866        26.0649 
 320   0.0000       0.960261        26.1300 
 321   0.0000       0.962021        26.1779 
 322   0.0000       0.968358        26.3504 
 323   0.0000       0.969784        26.3892 
 324   0.0000       0.971624        26.4392 
 325   0.0000       0.973678        26.4951 
 326   0.0000       0.980626        26.6842 
 327   0.0000       0.983432        26.7605 
 328   0.0000       0.985596        26.8194 
 329   0.0000       0.988623        26.9018 
 330   0.0000       0.991002        26.9665 
 331   0.0000       0.993127        27.0244 
 332   0.0000       0.999183        27.1891 
 333   0.0000       1.002378        27.2761 
 334   0.0000       1.004458        27.3327 
 335   0.0000       1.005957        27.3735 
 336   0.0000       1.009468        27.4690 
 337   0.0000       1.012474        27.5508 
 338   0.0000       1.014965        27.6186 
 339   0.0000       1.020757        27.7762 
 340   0.0000       1.025373        27.9018 
 341   0.0000       1.028682        27.9919 
 342   0.0000       1.030292        28.0357 
 343   0.0000       1.033172        28.1140 
 344   0.0000       1.035739        28.1839 
 345   0.0000       1.042130        28.3578 
 346   0.0000       1.042981        28.3810 
 347   0.0000       1.045143        28.4398 
 348   0.0000       1.050172        28.5766 
 349   0.0000       1.053800        28.6754 
 350   0.0000       1.060263        28.8512 
 351   0.0000       1.062201        28.9040 
 352   0.0000       1.064733        28.9728 
 353   0.0000       1.066211        29.0131 
 354   0.0000       1.072740        29.1907 
 355   0.0000       1.078427        29.3455 
 356   0.0000       1.080746        29.4086 
 357   0.0000       1.088313        29.6145 
 358   0.0000       1.090851        29.6836 
 359   0.0000       1.092713        29.7342 
 360   0.0000       1.095402        29.8074 
 361   0.0000       1.100731        29.9524 
 362   0.0000       1.103476        30.0271 
 363   0.0000       1.106458        30.1083 
 364   0.0000       1.114335        30.3226 
 365   0.0000       1.115404        30.3517 
 366   0.0000       1.118425        30.4339 
 367   0.0000       1.127308        30.6756 
 368   0.0000       1.128707        30.7137 
 369   0.0000       1.134322        30.8665 
 370   0.0000       1.137198        30.9447 
 371   0.0000       1.142926        31.1006 
 372   0.0000       1.147553        31.2265 
 373   0.0000       1.152657        31.3654 
 374   0.0000       1.158583        31.5266 
 375   0.0000       1.162077        31.6217 
 376   0.0000       1.168196        31.7882 
 377   0.0000       1.171242        31.8711 
 378   0.0000       1.172559        31.9070 
 379   0.0000       1.179544        32.0970 
 380   0.0000       1.188036        32.3281 
 381   0.0000       1.188754        32.3476 
 382   0.0000       1.194341        32.4997 
 383   0.0000       1.203182        32.7402 
 384   0.0000       1.206239        32.8234 
 385   0.0000       1.208825        32.8938 
 386   0.0000       1.218628        33.1606 
 387   0.0000       1.220891        33.2221 
 388   0.0000       1.226460        33.3737 
 389   0.0000       1.229458        33.4552 
 390   0.0000       1.239867        33.7385 
 391   0.0000       1.246795        33.9270 
 392   0.0000       1.250368        34.0242 
 393   0.0000       1.253648        34.1135 
 394   0.0000       1.256299        34.1856 
 395   0.0000       1.265832        34.4450 
 396   0.0000       1.268328        34.5129 
 397   0.0000       1.270994        34.5855 
 398   0.0000       1.280625        34.8476 
 399   0.0000       1.285062        34.9683 
 400   0.0000       1.292397        35.1679 
 401   0.0000       1.292995        35.1842 
 402   0.0000       1.295245        35.2454 
 403   0.0000       1.308399        35.6034 
 404   0.0000       1.310503        35.6606 
 405   0.0000       1.318872        35.8883 
 406   0.0000       1.320754        35.9395 
 407   0.0000       1.322966        35.9997 
 408   0.0000       1.331654        36.2361 
 409   0.0000       1.340411        36.4744 
 410   0.0000       1.350919        36.7604 
 411   0.0000       1.358865        36.9766 
 412   0.0000       1.361224        37.0408 
 413   0.0000       1.366402        37.1817 
 414   0.0000       1.368850        37.2483 
 415   0.0000       1.375525        37.4299 
 416   0.0000       1.385404        37.6987 
 417   0.0000       1.393053        37.9069 
 418   0.0000       1.397215        38.0201 
 419   0.0000       1.411412        38.4065 
 420   0.0000       1.415515        38.5181 
 421   0.0000       1.420616        38.6569 
 422   0.0000       1.429866        38.9086 
 423   0.0000       1.431531        38.9539 
 424   0.0000       1.437547        39.1176 
 425   0.0000       1.442346        39.2482 
 426   0.0000       1.447667        39.3930 
 427   0.0000       1.448972        39.4285 
 428   0.0000       1.468490        39.9596 
 429   0.0000       1.472189        40.0603 
 430   0.0000       1.482195        40.3326 
 431   0.0000       1.487663        40.4814 
 432   0.0000       1.492416        40.6107 
 433   0.0000       1.493528        40.6410 
 434   0.0000       1.502180        40.8764 
 435   0.0000       1.511842        41.1393 
 436   0.0000       1.516096        41.2551 
 437   0.0000       1.524005        41.4703 
 438   0.0000       1.529632        41.6234 
 439   0.0000       1.535384        41.7799 
 440   0.0000       1.541943        41.9584 
 441   0.0000       1.544946        42.0401 
 442   0.0000       1.551831        42.2275 
 443   0.0000       1.553257        42.2663 
 444   0.0000       1.556069        42.3428 
 445   0.0000       1.568795        42.6891 
 446   0.0000       1.571058        42.7507 
 447   0.0000       1.573925        42.8287 
 448   0.0000       1.580938        43.0195 
 449   0.0000       1.587250        43.1913 
 450   0.0000       1.593953        43.3737 
 451   0.0000       1.597042        43.4577 
 452   0.0000       1.612864        43.8883 
 453   0.0000       1.617225        44.0069 
 454   0.0000       1.624600        44.2076 
 455   0.0000       1.627358        44.2827 
 456   0.0000       1.636989        44.5447 
 457   0.0000       1.637513        44.5590 
 458   0.0000       1.645778        44.7839 
 459   0.0000       1.654780        45.0289 
 460   0.0000       1.662405        45.2363 
 461   0.0000       1.663886        45.2766 
 462   0.0000       1.672119        45.5007 
 463   0.0000       1.674902        45.5764 
 464   0.0000       1.675866        45.6026 
 465   0.0000       1.690154        45.9914 
 466   0.0000       1.697276        46.1852 
 467   0.0000       1.705637        46.4127 
 468   0.0000       1.706887        46.4468 
 469   0.0000       1.715991        46.6945 
 470   0.0000       1.717097        46.7246 
 471   0.0000       1.722939        46.8836 
 472   0.0000       1.737680        47.2847 
 473   0.0000       1.739829        47.3432 
 474   0.0000       1.747427        47.5499 
 475   0.0000       1.750127        47.6234 
 476   0.0000       1.760104        47.8949 
 477   0.0000       1.763855        47.9969 
 478   0.0000       1.769695        48.1558 
 479   0.0000       1.772034        48.2195 
 480   0.0000       1.776159        48.3317 
 481   0.0000       1.781292        48.4714 
 482   0.0000       1.795666        48.8626 
 483   0.0000       1.798751        48.9465 
 484   0.0000       1.802920        49.0599 
 485   0.0000       1.818712        49.4897 
 486   0.0000       1.824970        49.6600 
 487   0.0000       1.827114        49.7183 
 488   0.0000       1.839712        50.0611 
 489   0.0000       1.841977        50.1228 
 490   0.0000       1.859401        50.5969 
 491   0.0000       1.864715        50.7415 
 492   0.0000       1.876523        51.0628 
 493   0.0000       1.882494        51.2253 
 494   0.0000       1.887569        51.3634 
 495   0.0000       1.894420        51.5498 
 496   0.0000       1.903555        51.7984 
 497   0.0000       1.909791        51.9681 
 498   0.0000       1.912849        52.0513 
 499   0.0000       1.918963        52.2176 
 500   0.0000       1.927738        52.4564 
 501   0.0000       1.934307        52.6352 
 502   0.0000       1.940913        52.8149 
 503   0.0000       1.952752        53.1371 
 504   0.0000       1.960366        53.3443 
 505   0.0000       1.964562        53.4584 
 506   0.0000       1.968472        53.5648 
 507   0.0000       1.984009        53.9876 
 508   0.0000       1.988025        54.0969 
 509   0.0000       1.996017        54.3144 
 510   0.0000       1.998454        54.3807 
 511   0.0000       2.011375        54.7323 
 512   0.0000       2.020112        54.9700 
 513   0.0000       2.033369        55.3308 
 514   0.0000       2.036096        55.4050 
 515   0.0000       2.041680        55.5569 
 516   0.0000       2.048274        55.7364 
 517   0.0000       2.054059        55.8938 
 518   0.0000       2.056198        55.9520 
 519   0.0000       2.065741        56.2117 
 520   0.0000       2.067868        56.2695 
 521   0.0000       2.070641        56.3450 
 522   0.0000       2.078603        56.5617 
 523   0.0000       2.082733        56.6741 
 524   0.0000       2.088076        56.8194 
 525   0.0000       2.095271        57.0152 
 526   0.0000       2.101406        57.1822 
 527   0.0000       2.103424        57.2371 
 528   0.0000       2.108008        57.3618 
 529   0.0000       2.112929        57.4957 
 530   0.0000       2.121190        57.7205 
 531   0.0000       2.122823        57.7649 
 532   0.0000       2.127800        57.9004 
 533   0.0000       2.136033        58.1244 
 534   0.0000       2.140776        58.2535 
 535   0.0000       2.145150        58.3725 
 536   0.0000       2.149777        58.4984 
 537   0.0000       2.153726        58.6059 
 538   0.0000       2.156870        58.6914 
 539   0.0000       2.162390        58.8416 
 540   0.0000       2.164615        58.9022 
 541   0.0000       2.174308        59.1659 
 542   0.0000       2.178530        59.2808 
 543   0.0000       2.184435        59.4415 
 544   0.0000       2.192576        59.6630 
 545   0.0000       2.193535        59.6891 
 546   0.0000       2.200237        59.8715 
 547   0.0000       2.204863        59.9974 
 548   0.0000       2.209412        60.1212 
 549   0.0000       2.218032        60.3557 
 550   0.0000       2.228800        60.6487 
 551   0.0000       2.233623        60.7800 
 552   0.0000       2.233983        60.7898 
 553   0.0000       2.239832        60.9489 
 554   0.0000       2.250705        61.2448 
 555   0.0000       2.257082        61.4183 
 556   0.0000       2.261257        61.5319 
 557   0.0000       2.266344        61.6704 
 558   0.0000       2.272727        61.8441 
 559   0.0000       2.289035        62.2878 
 560   0.0000       2.291696        62.3602 
 561   0.0000       2.298034        62.5327 
 562   0.0000       2.301872        62.6371 
 563   0.0000       2.306556        62.7646 
 564   0.0000       2.311852        62.9087 
 565   0.0000       2.318578        63.0917 
 566   0.0000       2.329954        63.4013 
 567   0.0000       2.332826        63.4794 
 568   0.0000       2.345004        63.8108 
 569   0.0000       2.350107        63.9497 
 570   0.0000       2.356345        64.1194 
 571   0.0000       2.362828        64.2958 
 572   0.0000       2.377970        64.7078 
 573   0.0000       2.382172        64.8222 
 574   0.0000       2.390960        65.0613 
 575   0.0000       2.393042        65.1180 
 576   0.0000       2.399481        65.2932 
 577   0.0000       2.401809        65.3565 
 578   0.0000       2.409856        65.5755 
 579   0.0000       2.417147        65.7739 
 580   0.0000       2.420357        65.8613 
 581   0.0000       2.426286        66.0226 
 582   0.0000       2.432083        66.1803 
 583   0.0000       2.443262        66.4846 
 584   0.0000       2.452524        66.7366 
 585   0.0000       2.456159        66.8355 
 586   0.0000       2.469326        67.1938 
 587   0.0000       2.470179        67.2170 
 588   0.0000       2.484258        67.6001 
 589   0.0000       2.489577        67.7448 
 590   0.0000       2.496255        67.9266 
 591   0.0000       2.502605        68.0994 
 592   0.0000       2.515432        68.4484 
 593   0.0000       2.526915        68.7608 
 594   0.0000       2.531941        68.8976 
 595   0.0000       2.534228        68.9599 
 596   0.0000       2.547540        69.3221 
 597   0.0000       2.552075        69.4455 
 598   0.0000       2.561576        69.7040 
 599   0.0000       2.566466        69.8371 
 600   0.0000       2.572816        70.0099 
 601   0.0000       2.577359        70.1335 
 602   0.0000       2.584008        70.3144 
 603   0.0000       2.584884        70.3383 
 604   0.0000       2.592327        70.5408 
 605   0.0000       2.600779        70.7708 
 606   0.0000       2.606721        70.9325 
 607   0.0000       2.619735        71.2866 
 608   0.0000       2.624663        71.4207 
 609   0.0000       2.629669        71.5569 
 610   0.0000       2.637755        71.7770 
 611   0.0000       2.644245        71.9536 
 612   0.0000       2.649497        72.0965 
 613   0.0000       2.658902        72.3524 
 614   0.0000       2.665827        72.5408 
 615   0.0000       2.674681        72.7818 
 616   0.0000       2.685589        73.0786 
 617   0.0000       2.693492        73.2936 
 618   0.0000       2.708518        73.7025 
 619   0.0000       2.713989        73.8514 
 620   0.0000       2.729116        74.2630 
 621   0.0000       2.736289        74.4582 
 622   0.0000       2.742208        74.6193 
 623   0.0000       2.752184        74.8907 
 624   0.0000       2.759065        75.0780 
 625   0.0000       2.768824        75.3435 
 626   0.0000       2.784517        75.7706 
 627   0.0000       2.791007        75.9472 
 628   0.0000       2.802772        76.2673 
 629   0.0000       2.824858        76.8683 
 630   0.0000       2.830370        77.0183 
 631   0.0000       2.843333        77.3710 
 632   0.0000       2.853722        77.6537 
 633   0.0000       2.866832        78.0105 
 634   0.0000       2.881174        78.4007 
 635   0.0000       2.891899        78.6926 
 636   0.0000       2.896556        78.8193 
 637   0.0000       2.900744        78.9333 
 638   0.0000       2.918517        79.4169 
 639   0.0000       2.936418        79.9040 
 640   0.0000       2.949848        80.2694 
 641   0.0000       2.956142        80.4407 
 642   0.0000       2.965644        80.6993 
 643   0.0000       2.976532        80.9956 
 644   0.0000       2.981761        81.1378 
 645   0.0000       2.990590        81.3781 
 646   0.0000       3.003740        81.7359 
 647   0.0000       3.028941        82.4217 
 648   0.0000       3.040974        82.7491 
 649   0.0000       3.044039        82.8325 
 650   0.0000       3.048483        82.9534 
 651   0.0000       3.077394        83.7402 
 652   0.0000       3.085946        83.9729 
 653   0.0000       3.095984        84.2460 
 654   0.0000       3.107002        84.5458 
 655   0.0000       3.111160        84.6590 
 656   0.0000       3.130976        85.1982 
 657   0.0000       3.148898        85.6859 
 658   0.0000       3.158838        85.9563 
 659   0.0000       3.165231        86.1303 
 660   0.0000       3.170160        86.2644 
 661   0.0000       3.180840        86.5551 
 662   0.0000       3.185338        86.6775 
 663   0.0000       3.188830        86.7725 
 664   0.0000       3.213225        87.4363 
 665   0.0000       3.221184        87.6529 
 666   0.0000       3.233340        87.9836 
 667   0.0000       3.240716        88.1844 
 668   0.0000       3.245263        88.3081 
 669   0.0000       3.269317        88.9626 
 670   0.0000       3.288063        89.4727 
 671   0.0000       3.297297        89.7240 
 672   0.0000       3.315287        90.2136 
 673   0.0000       3.319714        90.3340 
 674   0.0000       3.326477        90.5180 
 675   0.0000       3.331924        90.6663 
 676   0.0000       3.341148        90.9173 
 677   0.0000       3.347575        91.0922 
 678   0.0000       3.358719        91.3954 
 679   0.0000       3.366138        91.5973 
 680   0.0000       3.372308        91.7652 
 681   0.0000       3.379000        91.9473 
 682   0.0000       3.383220        92.0621 
 683   0.0000       3.386586        92.1537 
 684   0.0000       3.398872        92.4880 
 685   0.0000       3.405344        92.6641 
 686   0.0000       3.407730        92.7290 
 687   0.0000       3.412055        92.8467 
 688   0.0000       3.417390        92.9919 
 689   0.0000       3.432757        93.4101 
 690   0.0000       3.443816        93.7110 
 691   0.0000       3.446635        93.7877 
 692   0.0000       3.459707        94.1434 
 693   0.0000       3.466084        94.3169 
 694   0.0000       3.476059        94.5884 
 695   0.0000       3.481925        94.7480 
 696   0.0000       3.496149        95.1351 
 697   0.0000       3.503466        95.3342 
 698   0.0000       3.514768        95.6417 
 699   0.0000       3.519245        95.7635 
 700   0.0000       3.523389        95.8763 
 701   0.0000       3.523955        95.8917 
 702   0.0000       3.526972        95.9738 
 703   0.0000       3.530455        96.0686 
 704   0.0000       3.542006        96.3829 
 705   0.0000       3.546131        96.4951 
 706   0.0000       3.552507        96.6686 
 707   0.0000       3.563989        96.9811 
 708   0.0000       3.580868        97.4404 
 709   0.0000       3.583715        97.5178 
 710   0.0000       3.593973        97.7970 
 711   0.0000       3.607934        98.1769 
 712   0.0000       3.609780        98.2271 
 713   0.0000       3.622215        98.5655 
 714   0.0000       3.624692        98.6329 
 715   0.0000       3.625637        98.6586 
 716   0.0000       3.638829        99.0176 
 717   0.0000       3.646603        99.2291 
 718   0.0000       3.653895        99.4275 
 719   0.0000       3.659533        99.5810 
 720   0.0000       3.662909        99.6728 
 721   0.0000       3.665172        99.7344 
 722   0.0000       3.669677        99.8570 
 723   0.0000       3.684360       100.2565 
 724   0.0000       3.694274       100.5263 
 725   0.0000       3.699526       100.6692 
 726   0.0000       3.708991       100.9268 
 727   0.0000       3.712973       101.0351 
 728   0.0000       3.716451       101.1298 
 729   0.0000       3.729903       101.4958 
 730   0.0000       3.738992       101.7432 
 731   0.0000       3.748409       101.9994 
 732   0.0000       3.760821       102.3372 
 733   0.0000       3.776707       102.7694 
 734   0.0000       3.782978       102.9401 
 735   0.0000       3.793950       103.2386 
 736   0.0000       3.795280       103.2748 
 737   0.0000       3.799221       103.3821 
 738   0.0000       3.805323       103.5481 
 739   0.0000       3.813219       103.7630 
 740   0.0000       3.817936       103.8913 
 741   0.0000       3.822126       104.0053 
 742   0.0000       3.834192       104.3337 
 743   0.0000       3.839970       104.4909 
 744   0.0000       3.847079       104.6843 
 745   0.0000       3.849913       104.7615 
 746   0.0000       3.856259       104.9342 
 747   0.0000       3.860013       105.0363 
 748   0.0000       3.868961       105.2798 
 749   0.0000       3.873931       105.4150 
 750   0.0000       3.877663       105.5166 
 751   0.0000       3.886928       105.7687 
 752   0.0000       3.890913       105.8771 
 753   0.0000       3.896529       106.0300 
 754   0.0000       3.905630       106.2776 
 755   0.0000       3.907152       106.3190 
 756   0.0000       3.924017       106.7779 
 757   0.0000       3.935583       107.0926 
 758   0.0000       3.938891       107.1827 
 759   0.0000       3.948872       107.4543 
 760   0.0000       3.958411       107.7138 
 761   0.0000       3.972673       108.1019 
 762   0.0000       3.982284       108.3635 
 763   0.0000       3.991133       108.6043 
 764   0.0000       3.999028       108.8191 
 765   0.0000       4.002820       108.9223 
 766   0.0000       4.011101       109.1476 
 767   0.0000       4.022942       109.4698 
 768   0.0000       4.032300       109.7245 
 769   0.0000       4.034384       109.7812 
 770   0.0000       4.049086       110.1812 
 771   0.0000       4.070375       110.7605 
 772   0.0000       4.075688       110.9051 
 773   0.0000       4.078410       110.9792 
 774   0.0000       4.097561       111.5003 
 775   0.0000       4.102708       111.6404 
 776   0.0000       4.113240       111.9270 
 777   0.0000       4.123719       112.2121 
 778   0.0000       4.134894       112.5162 
 779   0.0000       4.140197       112.6605 
 780   0.0000       4.164504       113.3219 
 781   0.0000       4.170043       113.4726 
 782   0.0000       4.178853       113.7124 
 783   0.0000       4.191822       114.0653 
 784   0.0000       4.204079       114.3988 
 785   0.0000       4.207153       114.4825 
 786   0.0000       4.219464       114.8174 
 787   0.0000       4.223921       114.9387 
 788   0.0000       4.230290       115.1120 
 789   0.0000       4.235955       115.2662 
 790   0.0000       4.237401       115.3055 
 791   0.0000       4.239500       115.3627 
 792   0.0000       4.251264       115.6828 
 793   0.0000       4.260592       115.9366 
 794   0.0000       4.267207       116.1166 
 795   0.0000       4.282775       116.5402 
 796   0.0000       4.292439       116.8032 
 797   0.0000       4.300690       117.0277 
 798   0.0000       4.311408       117.3194 
 799   0.0000       4.320316       117.5618 
 800   0.0000       4.324507       117.6758 
 801   0.0000       4.349232       118.3486 
 802   0.0000       4.356191       118.5380 
 803   0.0000       4.378112       119.1345 
 804   0.0000       4.381309       119.2215 
 805   0.0000       4.406883       119.9174 
 806   0.0000       4.419869       120.2708 
 807   0.0000       4.431306       120.5820 
 808   0.0000       4.443175       120.9049 
 809   0.0000       4.445591       120.9707 
 810   0.0000       4.464448       121.4838 
 811   0.0000       4.470671       121.6531 
 812   0.0000       4.484776       122.0370 
 813   0.0000       4.491186       122.2114 
 814   0.0000       4.511331       122.7595 
 815   0.0000       4.523034       123.0780 
 816   0.0000       4.530064       123.2693 
 817   0.0000       4.541670       123.5851 
 818   0.0000       4.550548       123.8267 
 819   0.0000       4.558076       124.0316 
 820   0.0000       4.564069       124.1946 
 821   0.0000       4.588489       124.8591 
 822   0.0000       4.594808       125.0311 
 823   0.0000       4.605626       125.3255 
 824   0.0000       4.615472       125.5934 
 825   0.0000       4.623262       125.8054 
 826   0.0000       4.628192       125.9395 
 827   0.0000       4.635778       126.1459 
 828   0.0000       4.647883       126.4753 
 829   0.0000       4.669615       127.0667 
 830   0.0000       4.685057       127.4869 
 831   0.0000       4.703249       127.9819 
 832   0.0000       4.703512       127.9891 
 833   0.0000       4.716664       128.3469 
 834   0.0000       4.719559       128.4257 
 835   0.0000       4.723247       128.5261 
 836   0.0000       4.736601       128.8895 
 837   0.0000       4.751542       129.2960 
 838   0.0000       4.768664       129.7620 
 839   0.0000       4.778829       130.0386 
 840   0.0000       4.788716       130.3076 
 841   0.0000       4.792272       130.4044 
 842   0.0000       4.832835       131.5081 
 843   0.0000       4.851354       132.0121 
 844   0.0000       4.870348       132.5289 
 845   0.0000       4.904907       133.4693 
 846   0.0000       4.908725       133.5732 
 847   0.0000       4.960500       134.9821 
 848   0.0000       4.974378       135.3597 
 849   0.0000       4.989602       135.7740 
 850   0.0000       5.008739       136.2947 
 851   0.0000       5.016814       136.5145 
 852   0.0000       5.038159       137.0953 
 853   0.0000       5.055614       137.5703 
 854   0.0000       5.058001       137.6352 
 855   0.0000       5.058816       137.6574 
 856   0.0000       5.082856       138.3116 
 857   0.0000       5.107267       138.9758 
 858   0.0000       5.153545       140.2351 
 859   0.0000       5.171551       140.7251 
 860   0.0000       5.211379       141.8088 
 861   0.0000       5.218309       141.9974 
 862   0.0000       5.237798       142.5277 
 863   0.0000       5.255631       143.0130 
 864   0.0000       5.283751       143.7782 
 865   0.0000       5.287062       143.8683 
 866   0.0000       5.291428       143.9871 
 867   0.0000       5.294218       144.0630 
 868   0.0000       5.298095       144.1685 
 869   0.0000       5.335745       145.1930 
 870   0.0000       5.345503       145.4585 
 871   0.0000       5.363133       145.9383 
 872   0.0000       5.420097       147.4883 
 873   0.0000       5.433834       147.8621 
 874   0.0000       5.434711       147.8860 
 875   0.0000       5.448261       148.2547 
 876   0.0000       5.453998       148.4108 
 877   0.0000       5.459983       148.5737 
 878   0.0000       5.485043       149.2556 
 879   0.0000       5.495883       149.5506 
 880   0.0000       5.517361       150.1350 
 881   0.0000       5.518613       150.1691 
 882   0.0000       5.565998       151.4585 
 883   0.0000       5.569178       151.5450 
 884   0.0000       5.585627       151.9926 
 885   0.0000       5.590474       152.1245 
 886   0.0000       5.633742       153.3019 
 887   0.0000       5.648680       153.7084 
 888   0.0000       5.667853       154.2301 
 889   0.0000       5.668904       154.2587 
 890   0.0000       5.698698       155.0695 
 891   0.0000       5.702295       155.1673 
 892   0.0000       5.712282       155.4391 
 893   0.0000       5.723105       155.7336 
 894   0.0000       5.733984       156.0296 
 895   0.0000       5.741904       156.2452 
 896   0.0000       5.757861       156.6794 
 897   0.0000       5.771122       157.0402 
 898   0.0000       5.777522       157.2144 
 899   0.0000       5.788969       157.5259 
 900   0.0000       5.804240       157.9414 
 901   0.0000       5.817242       158.2952 
 902   0.0000       5.871921       159.7831 
 903   0.0000       5.914743       160.9483 
 904   0.0000       5.922009       161.1461 
 905   0.0000       5.960477       162.1928 
 906   0.0000       5.978214       162.6755 
 907   0.0000       5.984119       162.8362 
 908   0.0000       6.003092       163.3524 
 909   0.0000       6.010191       163.5456 
 910   0.0000       6.038549       164.3173 
 911   0.0000       6.042894       164.4355 
 912   0.0000       6.055570       164.7804 
 913   0.0000       6.075211       165.3149 
 914   0.0000       6.174808       168.0251 
 915   0.0000       6.265609       170.4959 
 916   0.0000       6.392280       173.9428 
 917   0.0000       6.504853       177.0061 
 918   0.0000       6.560888       178.5309 
 919   0.0000       6.606140       179.7622 
 920   0.0000       6.676727       181.6830 
 921   0.0000       6.765416       184.0963 
 922   0.0000       6.896827       187.6722 
 923   0.0000       6.928534       188.5350 
 924   0.0000       6.945634       189.0003 
 925   0.0000       6.965151       189.5314 
 926   0.0000       7.014396       190.8714 
 927   0.0000       7.076440       192.5597 
 928   0.0000       7.141468       194.3292 
 929   0.0000       7.202391       195.9870 
 930   0.0000       7.212267       196.2558 
 931   0.0000       7.223586       196.5638 
 932   0.0000       7.235428       196.8860 
 933   0.0000       7.246605       197.1902 
 934   0.0000       7.250807       197.3045 
 935   0.0000       7.257578       197.4887 
 936   0.0000       7.264089       197.6659 
 937   0.0000       7.277340       198.0265 
 938   0.0000       7.283145       198.1844 
 939   0.0000       7.289055       198.3453 
 940   0.0000       7.295077       198.5091 
 941   0.0000       7.300715       198.6625 
 942   0.0000       7.314441       199.0361 
 943   0.0000       7.317320       199.1144 
 944   0.0000       7.320948       199.2131 
 945   0.0000       7.332639       199.5312 
 946   0.0000       7.341576       199.7745 
 947   0.0000       7.350095       200.0063 
 948   0.0000       7.363116       200.3606 
 949   0.0000       7.368251       200.5003 
 950   0.0000       7.392928       201.1718 
 951   0.0000       7.400810       201.3863 
 952   0.0000       7.416710       201.8189 
 953   0.0000       7.437373       202.3812 
 954   0.0000       7.467459       203.1999 
 955   0.0000       7.492046       203.8689 
 956   0.0000       7.533695       205.0023 
 957   0.0000       7.551464       205.4858 
 958   0.0000       7.555552       205.5970 
 959   0.0000       7.626673       207.5323 
 960   0.0000       7.641791       207.9437 
 961   0.0000       7.667003       208.6298 
 962   0.0000       7.702369       209.5921 
 963   0.0000       7.709714       209.7920 
 964   0.0000       7.859289       213.8621 
 965   0.0000       8.016026       218.1272 
 966   0.0000       8.304171       225.9680 
 967   0.0000       8.355370       227.3612 
 968   0.0000       9.539787       259.5908 
 969   0.0000       9.552842       259.9460 
 970   0.0000       9.553213       259.9561 
 971   0.0000       9.584828       260.8164 
 972   0.0000       9.599165       261.2066 
 973   0.0000       9.754007       265.4200 
 974   0.0000       9.791240       266.4332 
 975   0.0000       9.813547       267.0402 
 976   0.0000       9.850459       268.0446 
 977   0.0000       9.868116       268.5251 
 978   0.0000       9.893625       269.2192 
 979   0.0000       9.938321       270.4355 
 980   0.0000       9.946590       270.6605 
 981   0.0000      10.038109       273.1508 
 982   0.0000      10.060835       273.7692 
 983   0.0000      20.410772       555.4053 
 984   0.0000      20.653413       562.0079 
 985   0.0000      20.700716       563.2951 
 986   0.0000      20.922287       569.3244 
 987   0.0000      21.082300       573.6785 
 988   0.0000      23.188613       630.9942 
[...]
      dz2     :     0.076658  d :     0.311452
      dxz     :     0.068588
      dyz     :     0.050434
      dx2y2   :     0.034332
      dxy     :     0.081441
      f0      :     0.000774  f :     0.005384
      f+1     :     0.001515
      f-1     :     0.000469
      f+2     :     0.000913
      f-2     :     0.001071
      f+3     :     0.000331
      f-3     :     0.000311
  4 C s       :     2.705554  s :     2.705554
      pz      :     0.962604  p :     2.845045
      px      :     0.952094
      py      :     0.930347
      dz2     :     0.105697  d :     0.738272
      dxz     :     0.127567
      dyz     :     0.156381
      dx2y2   :     0.161089
      dxy     :     0.187537
      f0      :     0.002536  f :     0.027480
      f+1     :     0.003814
      f-1     :     0.004566
      f+2     :     0.003751
      f-2     :     0.003362
      f+3     :     0.004157
      f-3     :     0.005294
  5 S s       :     5.184398  s :     5.184398
      pz      :     3.350200  p :     9.872395
      px      :     3.379228
      py      :     3.142967
      dz2     :     0.100775  d :     0.521027
      dxz     :     0.084494
      dyz     :     0.122570
      dx2y2   :     0.105310
      dxy     :     0.107878
      f0      :     0.002527  f :     0.023542
      f+1     :     0.001735
      f-1     :     0.004064
      f+2     :     0.002977
      f-2     :     0.003040
      f+3     :     0.004536
      f-3     :     0.004663
  6 C s       :     2.748886  s :     2.748886
      pz      :     0.880334  p :     2.826981
      px      :     0.962512
      py      :     0.984134
      dz2     :     0.139787  d :     0.948555
      dxz     :     0.198304
      dyz     :     0.119589
      dx2y2   :     0.293361
      dxy     :     0.197513
      f0      :     0.004524  f :     0.040236
      f+1     :     0.004680
      f-1     :     0.002891
      f+2     :     0.004455
      f-2     :     0.007044
      f+3     :     0.008158
      f-3     :     0.008484
  7 S s       :     5.089626  s :     5.089626
      pz      :     3.218815  p :     9.690018
      px      :     3.148469
      py      :     3.322735
      dz2     :     0.089342  d :     0.591496
      dxz     :     0.137689
      dyz     :     0.093969
      dx2y2   :     0.118614
      dxy     :     0.151882
      f0      :     0.002673  f :     0.031055
      f+1     :     0.005264
      f-1     :     0.001599
      f+2     :     0.006212
      f-2     :     0.003949
      f+3     :     0.006094
      f-3     :     0.005263
  8 C s       :     2.751562  s :     2.751562
      pz      :     0.834314  p :     2.805085
      px      :     0.964722
      py      :     1.006050
      dz2     :     0.095819  d :     0.997943
      dxz     :     0.105768
      dyz     :     0.231362
      dx2y2   :     0.311324
      dxy     :     0.253670
      f0      :     0.004196  f :     0.041923
      f+1     :     0.001399
      f-1     :     0.005969
      f+2     :     0.004195
      f-2     :     0.006948
      f+3     :     0.009792
      f-3     :     0.009424
  9 S s       :     5.145935  s :     5.145935
      pz      :     3.291438  p :     9.823531
      px      :     3.389769
      py      :     3.142324
      dz2     :     0.092461  d :     0.520491
      dxz     :     0.060543
      dyz     :     0.125144
      dx2y2   :     0.113012
      dxy     :     0.129331
      f0      :     0.002519  f :     0.027389
      f+1     :     0.000914
      f-1     :     0.004453
      f+2     :     0.005380
      f-2     :     0.002461
      f+3     :     0.005627
      f-3     :     0.006035
 10 C s       :     2.745915  s :     2.745915
      pz      :     0.887210  p :     2.802886
      px      :     0.914777
      py      :     1.000899
      dz2     :     0.213655  d :     1.006507
      dxz     :     0.198795
      dyz     :     0.142708
      dx2y2   :     0.256436
      dxy     :     0.194912
      f0      :     0.003175  f :     0.039913
      f+1     :     0.004391
      f-1     :     0.005996
      f+2     :     0.005871
      f-2     :     0.006971
      f+3     :     0.006055
      f-3     :     0.007454
 11 S s       :     5.149314  s :     5.149314
      pz      :     3.323316  p :     9.855042
      px      :     3.215075
      py      :     3.316652
      dz2     :     0.074756  d :     0.502186
      dxz     :     0.119773
      dyz     :     0.095295
      dx2y2   :     0.102495
      dxy     :     0.109867
      f0      :     0.002548  f :     0.025839
      f+1     :     0.005138
      f-1     :     0.001154
      f+2     :     0.005846
      f-2     :     0.003621
      f+3     :     0.004050
      f-3     :     0.003480
 12 C s       :     2.744664  s :     2.744664
      pz      :     0.878696  p :     2.806671
      px      :     0.933109
      py      :     0.994867
      dz2     :     0.111142  d :     0.986080
      dxz     :     0.114141
      dyz     :     0.218603
      dx2y2   :     0.292694
      dxy     :     0.249501
      f0      :     0.004038  f :     0.040005
      f+1     :     0.001364
      f-1     :     0.006470
      f+2     :     0.005530
      f-2     :     0.005934
      f+3     :     0.006425
      f-3     :     0.010242
 13 S s       :     5.143378  s :     5.143378
      pz      :     3.326252  p :     9.816472
      px      :     3.338997
      py      :     3.151224
      dz2     :     0.085779  d :     0.488390
      dxz     :     0.066847
      dyz     :     0.109628
      dx2y2   :     0.103483
      dxy     :     0.122653
      f0      :     0.003444  f :     0.027012
      f+1     :     0.002209
      f-1     :     0.003666
      f+2     :     0.002876
      f-2     :     0.002952
      f+3     :     0.006200
      f-3     :     0.005665
 14 W s       :     1.998701  s :     1.998701
      pz      :     2.202845  p :     6.639762
      px      :     2.207361
      py      :     2.229555
      dz2     :     0.837745  d :     4.586463
      dxz     :     0.964900
      dyz     :     0.894747
      dx2y2   :     0.902637
      dxy     :     0.986433
      f0      :     0.072205  f :     0.552256
      f+1     :     0.095682
      f-1     :     0.064929
      f+2     :     0.113749
      f-2     :     0.060104
      f+3     :     0.067175
      f-3     :     0.078411
      g0      :     0.004289  g :     0.052054
      g+1     :     0.007249
      g-1     :     0.003475
      g+2     :     0.007610
      g-2     :     0.005824
      g+3     :     0.007208
      g-3     :     0.006657
      g+4     :     0.006351
      g-4     :     0.003391
 15 O s       :     3.143586  s :     3.143586
      pz      :     1.409293  p :     4.256404
      px      :     1.403848
      py      :     1.443262
      dz2     :     0.051724  d :     0.257686
      dxz     :     0.046264
      dyz     :     0.026644
      dx2y2   :     0.046193
      dxy     :     0.086862
      f0      :     0.000725  f :     0.002715
      f+1     :     0.000412
      f-1     :     0.000649
      f+2     :     0.000083
      f-2     :     0.000115
      f+3     :     0.000323
      f-3     :     0.000407
 16 C s       :     2.720756  s :     2.720756
      pz      :     0.865620  p :     2.692906
      px      :     0.838292
      py      :     0.988994
      dz2     :     0.132078  d :     0.782900
      dxz     :     0.103320
      dyz     :     0.185243
      dx2y2   :     0.174993
      dxy     :     0.187265
      f0      :     0.003698  f :     0.040078
      f+1     :     0.002776
      f-1     :     0.006541
      f+2     :     0.007794
      f-2     :     0.004624
      f+3     :     0.008104
      f-3     :     0.006541
 17 C s       :     2.691421  s :     2.691421
      pz      :     0.893917  p :     2.532520
      px      :     0.668042
      py      :     0.970561
      dz2     :     0.173007  d :     0.974325
      dxz     :     0.118783
      dyz     :     0.224467
      dx2y2   :     0.210583
      dxy     :     0.247485
      f0      :     0.003178  f :     0.046075
      f+1     :     0.003573
      f-1     :     0.007281
      f+2     :     0.010264
      f-2     :     0.004670
      f+3     :     0.009286
      f-3     :     0.007823
 18 H s       :     0.704866  s :     0.704866
      pz      :     0.099812  p :     0.285473
      px      :     0.090183
      py      :     0.095478
      dz2     :     0.007251  d :     0.029086
      dxz     :     0.004659
      dyz     :     0.006203
      dx2y2   :     0.006056
      dxy     :     0.004918
 19 H s       :     0.706490  s :     0.706490
      pz      :     0.126976  p :     0.295539
      px      :     0.081844
      py      :     0.086718
      dz2     :     0.009751  d :     0.029919
      dxz     :     0.008011
      dyz     :     0.009486
      dx2y2   :     0.001479
      dxy     :     0.001191
 20 H s       :     0.712691  s :     0.712691
      pz      :     0.097892  p :     0.347613
      px      :     0.134454
      py      :     0.115267
      dz2     :     0.003369  d :     0.030280
      dxz     :     0.007034
      dyz     :     0.003598
      dx2y2   :     0.008369
      dxy     :     0.007910
 21 H s       :     0.703910  s :     0.703910
      pz      :     0.169891  p :     0.395097
      px      :     0.108249
      py      :     0.116958
      dz2     :     0.008412  d :     0.031056
      dxz     :     0.007734
      dyz     :     0.007394
      dx2y2   :     0.003704
      dxy     :     0.003812
 22 H s       :     0.506528  s :     0.506528
      pz      :     0.112644  p :     0.699018
      px      :     0.266831
      py      :     0.319543
      dz2     :     0.009458  d :     0.084461
      dxz     :     0.010074
      dyz     :     0.012432
      dx2y2   :     0.024751
      dxy     :     0.027746
 23 H s       :     0.578221  s :     0.578221
      pz      :     0.270590  p :     0.559222
      px      :     0.143996
      py      :     0.144635
      dz2     :     0.034070  d :     0.094333
      dxz     :     0.025167
      dyz     :     0.026864
      dx2y2   :     0.004384
      dxy     :     0.003848
 24 H s       :     0.725817  s :     0.725817
      pz      :     0.090893  p :     0.307504
      px      :     0.099043
      py      :     0.117567
      dz2     :     0.003374  d :     0.029892
      dxz     :     0.002271
      dyz     :     0.007753
      dx2y2   :     0.008198
      dxy     :     0.008296
 25 H s       :     0.698626  s :     0.698626
      pz      :     0.124501  p :     0.321929
      px      :     0.104149
      py      :     0.093279
      dz2     :     0.010944  d :     0.031080
      dxz     :     0.005002
      dyz     :     0.009098
      dx2y2   :     0.003447
      dxy     :     0.002588
 26 H s       :     0.732319  s :     0.732319
      pz      :     0.090591  p :     0.313107
      px      :     0.097018
      py      :     0.125498
      dz2     :     0.002879  d :     0.029904
      dxz     :     0.001204
      dyz     :     0.008530
      dx2y2   :     0.008175
      dxy     :     0.009116
 27 H s       :     0.725126  s :     0.725126
      pz      :     0.098512  p :     0.310671
      px      :     0.126297
      py      :     0.085862
      dz2     :     0.005777  d :     0.030046
      dxz     :     0.008480
      dyz     :     0.002666
      dx2y2   :     0.006343
      dxy     :     0.006780
 28 H s       :     0.734280  s :     0.734280
      pz      :     0.118361  p :     0.323833
      px      :     0.112518
      py      :     0.092953
      dz2     :     0.008489  d :     0.029710
      dxz     :     0.007949
      dyz     :     0.004978
      dx2y2   :     0.003996
      dxy     :     0.004299
 29 H s       :     0.735564  s :     0.735564
      pz      :     0.104074  p :     0.320814
      px      :     0.088813
      py      :     0.127927
      dz2     :     0.004184  d :     0.030114
      dxz     :     0.001457
      dyz     :     0.009216
      dx2y2   :     0.007212
      dxy     :     0.008045
 30 H s       :     0.734632  s :     0.734632
      pz      :     0.099331  p :     0.315073
      px      :     0.122351
      py      :     0.093391
      dz2     :     0.004492  d :     0.029696
      dxz     :     0.008197
      dyz     :     0.002269
      dx2y2   :     0.006888
      dxy     :     0.007850
 31 H s       :     0.714053  s :     0.714053
      pz      :     0.084208  p :     0.286724
      px      :     0.125494
      py      :     0.077022
      dz2     :     0.003498  d :     0.029111
      dxz     :     0.008749
      dyz     :     0.000657
      dx2y2   :     0.007400
      dxy     :     0.008806


                      *****************************
                      * MAYER POPULATION ANALYSIS *
                      *****************************

  NA   - Mulliken gross atomic population
  ZA   - Total nuclear charge
  QA   - Mulliken gross atomic charge
  VA   - Mayer's total valence
  BVA  - Mayer's bonded valence
  FA   - Mayer's free valence

  ATOM       NA         ZA         QA         VA         BVA        FA
  0 C      6.2701     6.0000    -0.2701     3.9803     3.9803     0.0000
  1 C      5.4321     6.0000     0.5679     3.9003     3.9003     0.0000
  2 O      8.6629     8.0000    -0.6629     1.6580     1.6580     0.0000
  3 O      8.5569     8.0000    -0.5569     1.6558     1.6558     0.0000
  4 C      5.8448     6.0000     0.1552     3.6174     3.6174    -0.0000
  5 S     16.5347    16.0000    -0.5347     1.8897     1.8897    -0.0000
  6 C      5.7628     6.0000     0.2372     3.4948     3.4948     0.0000
  7 S     16.3735    16.0000    -0.3735     2.2398     2.2398    -0.0000
  8 C      5.8630     6.0000     0.1370     3.7314     3.7314    -0.0000
  9 S     16.4062    16.0000    -0.4062     2.0342     2.0342    -0.0000
 10 C      5.7842     6.0000     0.2158     3.4589     3.4589    -0.0000
 11 S     16.4492    16.0000    -0.4492     1.9673     1.9673    -0.0000
 12 C      5.8149     6.0000     0.1851     3.5250     3.5250     0.0000
 13 S     16.4122    16.0000    -0.4122     2.0713     2.0713     0.0000
 14 W     13.8982    14.0000     0.1018     7.4533     7.4533     0.0000
 15 O      8.4910     8.0000    -0.4910     1.8476     1.8476     0.0000
 16 C      5.9630     6.0000     0.0370     3.5694     3.5694    -0.0000
 17 C      5.4495     6.0000     0.5505     3.4169     3.4169    -0.0000
 18 H      1.0043     1.0000    -0.0043     1.1061     1.1061     0.0000
 19 H      0.9245     1.0000     0.0755     1.0688     1.0688     0.0000
 20 H      0.9666     1.0000     0.0334     1.1189     1.1189    -0.0000
 21 H      1.0290     1.0000    -0.0290     1.2081     1.2081    -0.0000
 22 H      0.6570     1.0000     0.3430     0.9023     0.9023    -0.0000
 23 H      0.7731     1.0000     0.2269     1.0284     1.0284     0.0000
 24 H      1.2332     1.0000    -0.2332     1.0462     1.0462    -0.0000
 25 H      1.1450     1.0000    -0.1450     1.1261     1.1261    -0.0000
 26 H      1.0961     1.0000    -0.0961     1.0228     1.0228    -0.0000
 27 H      1.0992     1.0000    -0.0992     1.0231     1.0231     0.0000
 28 H      0.9432     1.0000     0.0568     1.0230     1.0230    -0.0000
 29 H      1.0925     1.0000    -0.0925     1.0107     1.0107     0.0000
 30 H      1.1116     1.0000    -0.1116     1.0297     1.0297    -0.0000
 31 H      0.9557     1.0000     0.0443     1.1024     1.1024     0.0000

  Mayer bond orders larger than 0.100000
B(  0-C ,  1-C ) :   0.9220 B(  0-C , 18-H ) :   1.0207 B(  0-C , 19-H ) :   1.0150 
B(  0-C , 31-H ) :   1.0310 B(  1-C ,  2-O ) :   1.5813 B(  1-C ,  3-O ) :   1.4010 
B(  3-O , 22-H ) :   0.2536 B(  4-C ,  5-S ) :   0.7884 B(  4-C ,  9-S ) :  -0.1094 
B(  4-C , 20-H ) :   1.0100 B(  4-C , 21-H ) :   0.9420 B(  4-C , 28-H ) :   0.9827 
B(  5-S , 14-W ) :   0.9269 B(  6-C ,  7-S ) :   0.9565 B(  6-C ,  8-C ) :   1.5070 
B(  6-C , 29-H ) :   1.1407 B(  6-C , 30-H ) :  -0.1439 B(  7-S , 14-W ) :   1.1442 
B(  8-C ,  9-S ) :   1.0558 B(  8-C , 29-H ) :  -0.1078 B(  8-C , 30-H ) :   1.1794 
B(  9-S , 14-W ) :   0.9013 B( 10-C , 11-S ) :   1.0634 B( 10-C , 12-C ) :   1.3888 
B( 10-C , 26-H ) :   1.1828 B( 10-C , 27-H ) :  -0.1904 B( 11-S , 14-W ) :   0.9070 
B( 12-C , 13-S ) :   1.0393 B( 12-C , 26-H ) :  -0.1528 B( 12-C , 27-H ) :   1.2143 
B( 13-S , 14-W ) :   1.0689 B( 14-W , 16-C ) :   1.3459 B( 14-W , 17-C ) :   0.8514 
B( 15-O , 16-C ) :   0.1094 B( 15-O , 17-C ) :   0.1879 B( 15-O , 22-H ) :   0.6273 
B( 15-O , 23-H ) :   0.9368 B( 16-C , 17-C ) :   1.2771 B( 16-C , 24-H ) :   0.9755 
B( 17-C , 25-H ) :   1.0781 

-------
TIMINGS
-------

Total SCF time: 0 days 0 hours 23 min 38 sec 

Total time                  ....    1418.155 sec
Sum of individual times     ....    1416.151 sec  ( 99.9%)

Fock matrix formation       ....    1405.844 sec  ( 99.1%)
  XC integration            ....       9.777 sec  (  0.7% of F)
    Basis function eval.    ....       1.712 sec  ( 17.5% of XC)
    Density eval.           ....       3.407 sec  ( 34.8% of XC)
    XC-Functional eval.     ....       0.147 sec  (  1.5% of XC)
    XC-Potential eval.      ....       3.182 sec  ( 32.5% of XC)
Diagonalization             ....       3.177 sec  (  0.2%)
Density matrix formation    ....       0.169 sec  (  0.0%)
Population analysis         ....       0.237 sec  (  0.0%)
Initial guess               ....       2.506 sec  (  0.2%)
Orbital Transformation      ....       0.000 sec  (  0.0%)
Orbital Orthonormalization  ....       0.000 sec  (  0.0%)
DIIS solution               ....       3.221 sec  (  0.2%)
Grid generation             ....       0.996 sec  (  0.1%)

-------------------------   --------------------
FINAL SINGLE POINT ENERGY     -2635.043637102113
-------------------------   --------------------


                            ***************************************
                            *     ORCA property calculations      *
                            ***************************************

                                    ---------------------
                                    Active property flags
                                    ---------------------
   (+) Dipole Moment


------------------------------------------------------------------------------
                       ORCA ELECTRIC PROPERTIES CALCULATION
------------------------------------------------------------------------------

Dipole Moment Calculation                       ... on
Quadrupole Moment Calculation                   ... off
Polarizability Calculation                      ... off
GBWName                                         ... TMB06_T1.gbw
Electron density file                           ... TMB06_T1.scfp
The origin for moment calculation is the CENTER OF MASS  = ( 0.128534,  0.036235 -0.008375)

-------------
DIPOLE MOMENT
-------------
                                X             Y             Z
Electronic contribution:     97.80809       9.27336      10.91150
Nuclear contribution   :    -95.08812     -10.49452     -10.64317
                        -----------------------------------------
Total Dipole Moment    :      2.71997      -1.22116       0.26833
                        -----------------------------------------
Magnitude (a.u.)       :      2.99357
Magnitude (Debye)      :      7.60905



--------------------
Rotational spectrum 
--------------------
 
Rotational constants in cm-1:     0.011727     0.005648     0.005281 
Rotational constants in MHz :   351.552196   169.313101   158.324155 

 Dipole components along the rotational axes: 
x,y,z [a.u.] :     2.721898    -1.202975     0.324949 
x,y,z [Debye]:     6.918514    -3.057718     0.825954 

 

Timings for individual modules:

Sum of individual times         ...     1423.947 sec (=  23.732 min)
GTO integral calculation        ...        5.322 sec (=   0.089 min)   0.4 %
SCF iterations                  ...     1418.626 sec (=  23.644 min)  99.6 %
                             ****ORCA TERMINATED NORMALLY****
TOTAL RUN TIME: 0 days 0 hours 23 minutes 44 seconds 631 msec
