
                                 *****************
                                 * O   R   C   A *
                                 *****************

           --- An Ab Initio, DFT and Semiempirical electronic structure package ---

                  #######################################################
                  #                        -***-                        #
                  #          Department of theory and spectroscopy      #
                  #               Directorship: Frank Neese             #
                  #        Max Planck Institute fuer Kohlenforschung    #
                  #                Kaiser Wilhelm Platz 1               #
                  #                 D-45470 Muelheim/Ruhr               #
                  #                      Germany                        #
                  #                                                     #
                  #                  All rights reserved                #
                  #                        -***-                        #
                  #######################################################


                         Program Version 4.2.0 -  RELEASE  -


 With contributions from (in alphabetic order):
   Daniel Aravena         : Magnetic Suceptibility
   Michael Atanasov       : Ab Initio Ligand Field Theory (pilot matlab implementation)
   Alexander A. Auer      : GIAO ZORA, VPT2
   Ute Becker             : Parallelization
   Giovanni Bistoni       : ED, misc. LED, open-shell LED, HFLED
   Martin Brehm           : Molecular dynamics
   Dmytro Bykov           : SCF Hessian
   Vijay G. Chilkuri      : MRCI spin determinant printing, contributions to CSF-ICE
   Dipayan Datta          : RHF DLPNO-CCSD density
   Achintya Kumar Dutta   : EOM-CC, STEOM-CC
   Dmitry Ganyushin       : Spin-Orbit,Spin-Spin,Magnetic field MRCI
   Miquel Garcia          : C-PCM Hessian, Gaussian charge scheme
   Yang Guo               : DLPNO-NEVPT2, CIM, IAO-localization
   Andreas Hansen         : Spin unrestricted coupled pair/coupled cluster methods
   Benjamin Helmich-Paris : CASSCF linear response (MC-RPA)
   Lee Huntington         : MR-EOM, pCC
   Robert Izsak           : Overlap fitted RIJCOSX, COSX-SCS-MP3, EOM
   Christian Kollmar      : KDIIS, OOCD, Brueckner-CCSD(T), CCSD density
   Simone Kossmann        : Meta GGA functionals, TD-DFT gradient, OOMP2, MP2 Hessian
   Martin Krupicka        : AUTO-CI
   Lucas Lang             : DCDCAS
   Dagmar Lenk            : GEPOL surface, SMD
   Dimitrios Liakos       : Extrapolation schemes; Compound Job, initial MDCI parallelization
   Dimitrios Manganas     : Further ROCIS development; embedding schemes
   Dimitrios Pantazis     : SARC Basis sets
   Taras Petrenko         : DFT Hessian,TD-DFT gradient, ASA, ECA, R-Raman, ABS, FL, XAS/XES, NRVS
   Peter Pinski           : DLPNO-MP2, DLPNO-MP2 Gradient
   Christoph Reimann      : Effective Core Potentials
   Marius Retegan         : Local ZFS, SOC
   Christoph Riplinger    : Optimizer, TS searches, QM/MM, DLPNO-CCSD(T), (RO)-DLPNO pert. Triples
   Tobias Risthaus        : Range-separated hybrids, TD-DFT gradient, RPA, STAB
   Michael Roemelt        : Original ROCIS implementation
   Masaaki Saitow         : Open-shell DLPNO-CCSD energy and density
   Barbara Sandhoefer     : DKH picture change effects
   Avijit Sen             : IP-ROCIS
   Kantharuban Sivalingam : CASSCF convergence, NEVPT2, FIC-MRCI
   Bernardo de Souza      : ESD, SOC TD-DFT
   Georgi Stoychev        : AutoAux, RI-MP2 NMR
   Willem Van den Heuvel  : Paramagnetic NMR
   Boris Wezisla          : Elementary symmetry handling
   Frank Wennmohs         : Technical directorship


 We gratefully acknowledge several colleagues who have allowed us to
 interface, adapt or use parts of their codes:
   Stefan Grimme, W. Hujo, H. Kruse,             : VdW corrections, initial TS optimization,
                  C. Bannwarth                     DFT functionals, gCP, sTDA/sTD-DF
   Ed Valeev, F. Pavosevic, A. Kumar             : LibInt (2-el integral package), F12 methods
   Garnet Chan, S. Sharma, J. Yang, R. Olivares  : DMRG
   Ulf Ekstrom                                   : XCFun DFT Library
   Mihaly Kallay                                 : mrcc  (arbitrary order and MRCC methods)
   Andreas Klamt, Michael Diedenhofen            : otool_cosmo (COSMO solvation model)
   Jiri Pittner, Ondrej Demel                    : Mk-CCSD
   Frank Weinhold                                : gennbo (NPA and NBO analysis)
   Christopher J. Cramer and Donald G. Truhlar   : smd solvation model
   Lars Goerigk                                  : TD-DFT with DH, B97 family of functionals
   V. Asgeirsson, H. Jonsson                     : NEB implementation
   FAccTs GmbH                                   : IRC, NEB, NEB-TS, Multilevel, MM, QM/MM, CI optimization
   S Lehtola, MJT Oliveira, MAL Marques          : LibXC Library


 Your calculation uses the libint2 library for the computation of 2-el integrals
 For citations please refer to: http://libint.valeyev.net

 Your ORCA version has been built with support for libXC version: 4.2.3
 For citations please refer to: https://tddft.org/programs/libxc/

 This ORCA versions uses:
   CBLAS   interface :  Fast vector & matrix operations
   LAPACKE interface :  Fast linear algebra routines
   SCALAPACK package :  Parallel linear algebra routines


Your calculation utilizes the DFT-NL dispersion correction.
Cite in your paper:
Vydrov, O. A.; Van Voorhis, T. J. Chem. Phys. 2010, 133, 244103
Hujo, W.; Grimme, S. J. Chem. Theory Comput. 2011, 7, 3866 
   

----- Orbital basis set information -----
Your calculation utilizes the basis: def2-TZVPPD
   F. Weigend and R. Ahlrichs, Phys. Chem. Chem. Phys. 7, 3297 (2005).
   D. Rappoport and F. Furche, J. Chem. Phys. 133 134105 (2010).

----- AuxJK basis set information -----
Your calculation utilizes the auxiliary basis: def2/JK
   H-Ba, Hf-Rn: F. Weigend, J. Comput. Chem. 29, 167 (2008).

cite the ECPs for W  [Def2-ECP] as follows:
Ce-Yb(ecp-28): M. Dolg, H. Stoll, H.Preuss, J. Chem. Phys., 1989, 90, 1730-1734.
Y-Cd(ecp-28), Hf-Hg(ecp-46): D. Andrae,U. Haeussermann, M. Dolg, H. Stoll, H. Preuss, Theor. Chim. Acta, 1990, 77, 123-141.
In-Sb(ecp-28), Tl-Bi(ecp-46): B. Metz, H. Stoll, M. Dolg, J. Chem. Phys., 2000, 113, 2563-2569.
Te-Xe(ecp-28), Po-Rn(ecp-46): K. A. Peterson, D. Figgen, E. Goll, H. Stoll, M. Dolg, J. Chem. Phys., 2003, 119, 11113-11123.
Rb(ecp-28), Cs(ecp-46): T. Leininger, A. Nicklass, W. Kuechle, H. Stoll, M. Dolg, A. Bergner, Chem. Phys. Lett., 1996, 255, 274-280.
Sr(ecp-28), Ba(ecp-46): M. Kaupp, P. V. Schleyer, H. Stoll and H. Preuss, J. Chem. Phys., 1991, 94, 1360-1366.
La(ecp-46): M. Dolg, H. Stoll, A. Savin, H. Preuss, Theor. Chim. Acta, 1989, 75, 173-194.
Lu(ecp-28): X. Cao, M. Dolg, J. Chem. Phys., 2001, 115, 7348-7355.

ECP parameters for W  [Def2-ECP] have been obtained from:
TURBOMOLE (7.0.2)

================================================================================
                                        WARNINGS
                       Please study these warnings very carefully!
================================================================================


INFO   : the flag for use of LIBINT has been found!

================================================================================
                                       INPUT FILE
================================================================================
NAME = TMB06_C1.in
|  1> #
|  2> # TMB06_C1 wB97X-V/Def2-TZVPPD
|  3> #
|  4> ! wb97x-v def2-tzvppd def2/jk grid4 nofinalgrid
|  5> 
|  6> *xyz -2 1
|  7> C       -4.922177    0.231539    2.107663 
|  8> C       -4.446966   -0.260950    0.727306 
|  9> O       -4.786048   -1.445661    0.381045 
| 10> O       -3.774664    0.534657    0.034272 
| 11> C        2.853834    2.539483    0.111094 
| 12> S        1.699014    2.002949   -1.213407 
| 13> C        2.621388   -0.654255    2.558361 
| 14> S        1.079319    0.109893    2.243750 
| 15> C        3.475179   -0.966107    1.545638 
| 16> S        3.017258   -0.732048   -0.112289 
| 17> C       -0.719852   -2.060810   -2.434513 
| 18> S        0.476784   -0.759924   -2.482057 
| 19> C       -1.165423   -2.576996   -1.263023 
| 20> S       -0.426778   -2.115489    0.280596 
| 21> W        0.581769    0.074169   -0.056710 
| 22> O       -3.686516    3.100880   -0.970074 
| 23> C       -0.958024    1.126222    0.768552 
| 24> C       -1.050846    1.201510   -0.527136 
| 25> H       -4.399031   -0.338057    2.886550 
| 26> H       -4.651123    1.285347    2.215183 
| 27> H        2.286624    2.922259    0.966567 
| 28> H        3.439558    1.684807    0.443645 
| 29> H       -3.719098    2.271105   -0.448699 
| 30> H       -4.432659    3.004669   -1.574445 
| 31> H       -1.423366    1.443209    1.691261 
| 32> H       -1.628538    1.662411   -1.315772 
| 33> H       -1.080680   -2.444086   -3.386693 
| 34> H       -2.006521   -3.265324   -1.212989 
| 35> H        3.558044    3.288012   -0.266819 
| 36> H        2.852091   -0.869929    3.599516 
| 37> H        4.480661   -1.317935    1.766923 
| 38> H       -6.001258    0.102048    2.241238 
| 39> *
| 40> 
| 41> %maxcore 5000
| 42> 
| 43> %pal
| 44> nprocs = 24
| 45> end
| 46> 
| 47> 
| 48>                          ****END OF INPUT****
================================================================================

                       ****************************
                       * Single Point Calculation *
                       ****************************

---------------------------------
CARTESIAN COORDINATES (ANGSTROEM)
---------------------------------
  C     -4.922177    0.231539    2.107663
  C     -4.446966   -0.260950    0.727306
  O     -4.786048   -1.445661    0.381045
  O     -3.774664    0.534657    0.034272
  C      2.853834    2.539483    0.111094
  S      1.699014    2.002949   -1.213407
  C      2.621388   -0.654255    2.558361
  S      1.079319    0.109893    2.243750
  C      3.475179   -0.966107    1.545638
  S      3.017258   -0.732048   -0.112289
  C     -0.719852   -2.060810   -2.434513
  S      0.476784   -0.759924   -2.482057
  C     -1.165423   -2.576996   -1.263023
  S     -0.426778   -2.115489    0.280596
  W      0.581769    0.074169   -0.056710
  O     -3.686516    3.100880   -0.970074
  C     -0.958024    1.126222    0.768552
  C     -1.050846    1.201510   -0.527136
  H     -4.399031   -0.338057    2.886550
  H     -4.651123    1.285347    2.215183
  H      2.286624    2.922259    0.966567
  H      3.439558    1.684807    0.443645
  H     -3.719098    2.271105   -0.448699
  H     -4.432659    3.004669   -1.574445
  H     -1.423366    1.443209    1.691261
  H     -1.628538    1.662411   -1.315772
  H     -1.080680   -2.444086   -3.386693
  H     -2.006521   -3.265324   -1.212989
  H      3.558044    3.288012   -0.266819
  H      2.852091   -0.869929    3.599516
  H      4.480661   -1.317935    1.766923
  H     -6.001258    0.102048    2.241238

----------------------------
CARTESIAN COORDINATES (A.U.)
----------------------------
  NO LB      ZA    FRAG     MASS         X           Y           Z
   0 C     6.0000    0    12.011   -9.301567    0.437545    3.982906
   1 C     6.0000    0    12.011   -8.403548   -0.493124    1.374409
   2 O     8.0000    0    15.999   -9.044320   -2.731903    0.720071
   3 O     8.0000    0    15.999   -7.133081    1.010355    0.064765
   4 C     6.0000    0    12.011    5.392965    4.798927    0.209937
   5 S    16.0000    0    32.060    3.210671    3.785025   -2.293007
   6 C     6.0000    0    12.011    4.953705   -1.236363    4.834602
   7 S    16.0000    0    32.060    2.039617    0.207668    4.240073
   8 C     6.0000    0    12.011    6.567137   -1.825678    2.920833
   9 S    16.0000    0    32.060    5.701791   -1.383370   -0.212195
  10 C     6.0000    0    12.011   -1.360323   -3.894367   -4.600563
  11 S    16.0000    0    32.060    0.900991   -1.436048   -4.690408
  12 C     6.0000    0    12.011   -2.202330   -4.869817   -2.386768
  13 S    16.0000    0    32.060   -0.806494   -3.997695    0.530250
  14 W    14.0000*   0   183.850    1.099384    0.140159   -0.107166
  15 O     8.0000    0    15.999   -6.966506    5.859814   -1.833174
  16 C     6.0000    0    12.011   -1.810403    2.128251    1.452353
  17 C     6.0000    0    12.011   -1.985811    2.270525   -0.996143
  18 H     1.0000    0     1.008   -8.312964   -0.638835    5.454789
  19 H     1.0000    0     1.008   -8.789349    2.428954    4.186089
  20 H     1.0000    0     1.008    4.321093    5.522269    1.826547
  21 H     1.0000    0     1.008    6.499823    3.183824    0.838368
  22 H     1.0000    0     1.008   -7.028077    4.291766   -0.847918
  23 H     1.0000    0     1.008   -8.376512    5.678002   -2.975270
  24 H     1.0000    0     1.008   -2.689772    2.727270    3.196020
  25 H     1.0000    0     1.008   -3.077491    3.141502   -2.486449
  26 H     1.0000    0     1.008   -2.042189   -4.618653   -6.399922
  27 H     1.0000    0     1.008   -3.791775   -6.170568   -2.292217
  28 H     1.0000    0     1.008    6.723729    6.213442   -0.504215
  29 H     1.0000    0     1.008    5.389671   -1.643928    6.802099
  30 H     1.0000    0     1.008    8.467222   -2.490536    3.339001
  31 H     1.0000    0     1.008  -11.340734    0.192843    4.235326
* core charge reduced due to ECP

--------------------------------
INTERNAL COORDINATES (ANGSTROEM)
--------------------------------
 C      0   0   0     0.000000000000     0.00000000     0.00000000
 C      1   0   0     1.540699956867     0.00000000     0.00000000
 O      2   1   0     1.280005248570   117.16213974     0.00000000
 O      2   1   3     1.251110148152   117.30688354   179.28267742
 C      4   2   1     6.925475770369   133.80978955    78.77311575
 S      5   4   2     1.837329819210    46.04360810   133.31629462
 C      5   4   2     4.030274100461    73.86716535    11.65776273
 S      7   5   4     1.749536809554    66.14195476   341.17940242
 C      7   5   4     1.360815423308    72.15262809   118.81709881
 S      9   7   5     1.735856329035   120.95607967   309.02147794
 C     10   9   7     4.596120528328   131.15430498   309.00486906
 S     11  10   9     1.768191882525    41.46285484   151.83527878
 C     11  10   9     1.355496338150    86.60049889     2.19974089
 S     13  11  10     1.772383921230   121.10115201    15.52741348
 W      8   7   5     2.353921922723   110.81905971    60.15176220
 O      4   2   1     2.757169099520   144.17815035   309.85580358
 C     15   8   7     2.039322281127    75.89395834   183.64574668
 C     17  15   8     1.301188533600    71.38231401   171.73572415
 H      1   2   3     1.097627577688   108.83684437    68.43722650
 H      1   2   3     1.093408488251   108.64570791   186.03488147
 H      5   4   2     1.095481037720    67.30926660   289.43759119
 H      5   4   2     1.088179138172   106.92990448    32.67789564
 H     16   4   2     0.980520284326    10.76305362    60.40399472
 H     16   4   2     0.965013076912    96.35107007   292.40045377
 H     17  15   8     1.080932853518   145.26276646   352.11771648
 H     18  17  15     1.080788841153   142.12999961   184.02367776
 H     11  10   9     1.088000041434   144.45784740   218.95026253
 H     13  11  10     1.088000313577   122.32924108   193.56799345
 H      5   4   2     1.095000284708   144.05653371   193.99803203
 H      7   5   4     1.087999486447   136.54641675   237.20052848
 H      9   7   5     1.088000020741   120.17020627   125.72280935
 H      1   2   3     1.095000458569   112.05176516   308.10671353

---------------------------
INTERNAL COORDINATES (A.U.)
---------------------------
 C      0   0   0     0.000000000000     0.00000000     0.00000000
 C      1   0   0     2.911500973024     0.00000000     0.00000000
 O      2   1   0     2.418859369779   117.16213974     0.00000000
 O      2   1   3     2.364255543377   117.30688354   179.28267742
 C      4   2   1    13.087252553104   133.80978955    78.77311575
 S      5   4   2     3.472050175993    46.04360810   133.31629462
 C      5   4   2     7.616114294508    73.86716535    11.65776273
 S      7   5   4     3.306145431272    66.14195476   341.17940242
 C      7   5   4     2.571568468869    72.15262809   118.81709881
 S      9   7   5     3.280293069710   120.95607967   309.02147794
 C     10   9   7     8.685409077034   131.15430498   309.00486906
 S     11  10   9     3.341398410195    41.46285484   151.83527878
 C     11  10   9     2.561516854636    86.60049889     2.19974089
 S     13  11  10     3.349320215290   121.10115201    15.52741348
 W      8   7   5     4.448267774580   110.81905971    60.15176220
 O      4   2   1     5.210294503003   144.17815035   309.85580358
 C     15   8   7     3.853760610134    75.89395834   183.64574668
 C     17  15   8     2.458889977103    71.38231401   171.73572415
 H      1   2   3     2.074215518869   108.83684437    68.43722650
 H      1   2   3     2.066242595300   108.64570791   186.03488147
 H      5   4   2     2.070159146195    67.30926660   289.43759119
 H      5   4   2     2.056360555792   106.92990448    32.67789564
 H     16   4   2     1.852914806130    10.76305362    60.40399472
 H     16   4   2     1.823610431016    96.35107007   292.40045377
 H     17  15   8     2.042667062307   145.26276646   352.11771648
 H     18  17  15     2.042394918377   142.12999961   184.02367776
 H     11  10   9     2.056022112005   144.45784740   218.95026253
 H     13  11  10     2.056022626281   122.32924108   193.56799345
 H      5   4   2     2.069250654663   144.05653371   193.99803203
 H      7   5   4     2.056021063233   136.54641675   237.20052848
 H      9   7   5     2.056022072902   120.17020627   125.72280935
 H      1   2   3     2.069250983214   112.05176516   308.10671353

---------------------
BASIS SET INFORMATION
---------------------
There are 5 groups of distinct atoms

 Group   1 Type C   : 12s6p3d1f contracted to 6s3p3d1f pattern {621111/411/111/1}
 Group   2 Type O   : 12s7p3d1f contracted to 6s4p3d1f pattern {621111/4111/111/1}
 Group   3 Type S   : 15s10p4d1f contracted to 6s6p4d1f pattern {732111/511111/1111/1}
 Group   4 Type W   : 8s8p6d2f1g contracted to 6s5p3d2f1g pattern {311111/41111/411/11/1}
 Group   5 Type H   : 5s3p1d contracted to 3s3p1d pattern {311/111/1}

Atom   0C    basis set group =>   1
Atom   1C    basis set group =>   1
Atom   2O    basis set group =>   2
Atom   3O    basis set group =>   2
Atom   4C    basis set group =>   1
Atom   5S    basis set group =>   3
Atom   6C    basis set group =>   1
Atom   7S    basis set group =>   3
Atom   8C    basis set group =>   1
Atom   9S    basis set group =>   3
Atom  10C    basis set group =>   1
Atom  11S    basis set group =>   3
Atom  12C    basis set group =>   1
Atom  13S    basis set group =>   3
Atom  14W    basis set group =>   4
Atom  15O    basis set group =>   2
Atom  16C    basis set group =>   1
Atom  17C    basis set group =>   1
Atom  18H    basis set group =>   5
Atom  19H    basis set group =>   5
Atom  20H    basis set group =>   5
Atom  21H    basis set group =>   5
Atom  22H    basis set group =>   5
Atom  23H    basis set group =>   5
Atom  24H    basis set group =>   5
Atom  25H    basis set group =>   5
Atom  26H    basis set group =>   5
Atom  27H    basis set group =>   5
Atom  28H    basis set group =>   5
Atom  29H    basis set group =>   5
Atom  30H    basis set group =>   5
Atom  31H    basis set group =>   5
----------------------------------
AUXILIARY/JK BASIS SET INFORMATION
----------------------------------
There are 5 groups of distinct atoms

 Group   1 Type C   : 14s10p6d2f1g contracted to 10s8p5d1f1g pattern {5111111111/31111111/21111/2/1}
 Group   2 Type O   : 14s10p6d2f1g contracted to 10s8p4d2f1g pattern {5111111111/31111111/3111/11/1}
 Group   3 Type S   : 16s12p10d4f1g contracted to 13s11p9d4f1g pattern {4111111111111/21111111111/211111111/1111/1}
 Group   4 Type W   : 13s12p11d9f5g3h2i contracted to 11s9p9d7f4g3h2i pattern {31111111111/411111111/311111111/3111111/2111/111/11}
 Group   5 Type H   : 4s2p2d contracted to 2s2p2d pattern {31/11/11}

Atom   0C    basis set group =>   1
Atom   1C    basis set group =>   1
Atom   2O    basis set group =>   2
Atom   3O    basis set group =>   2
Atom   4C    basis set group =>   1
Atom   5S    basis set group =>   3
Atom   6C    basis set group =>   1
Atom   7S    basis set group =>   3
Atom   8C    basis set group =>   1
Atom   9S    basis set group =>   3
Atom  10C    basis set group =>   1
Atom  11S    basis set group =>   3
Atom  12C    basis set group =>   1
Atom  13S    basis set group =>   3
Atom  14W    basis set group =>   4
Atom  15O    basis set group =>   2
Atom  16C    basis set group =>   1
Atom  17C    basis set group =>   1
Atom  18H    basis set group =>   5
Atom  19H    basis set group =>   5
Atom  20H    basis set group =>   5
Atom  21H    basis set group =>   5
Atom  22H    basis set group =>   5
Atom  23H    basis set group =>   5
Atom  24H    basis set group =>   5
Atom  25H    basis set group =>   5
Atom  26H    basis set group =>   5
Atom  27H    basis set group =>   5
Atom  28H    basis set group =>   5
Atom  29H    basis set group =>   5
Atom  30H    basis set group =>   5
Atom  31H    basis set group =>   5
-------------------------
ECP PARAMETER INFORMATION
-------------------------

 Group 1, Type W  ECP Def2-ECP (replacing 60 core electrons, lmax=3)

Atom  14W    ECP group =>   1



           ************************************************************
           *        Program running with 24 parallel MPI-processes    *
           *              working on a common directory               *
           ************************************************************
------------------------------------------------------------------------------
                           ORCA GTO INTEGRAL CALCULATION
------------------------------------------------------------------------------

                         BASIS SET STATISTICS AND STARTUP INFO

 # of primitive gaussian shells          ...  568
 # of primitive gaussian functions       ... 1344
 # of contracted shells                  ...  359
 # of contracted basis functions         ... 1005
 Highest angular momentum                ...    4
 Maximum contraction depth               ...    7
 Integral package used                   ... LIBINT
 Integral threshhold            Thresh   ...  1.000e-10
 Primitive cut-off              TCut     ...  1.000e-11


------------------------------ INTEGRAL EVALUATION ----------------------------


 * One electron integrals 

   ECP integrals                         ... done
 Pre-screening matrix                    ... done
 Shell pair data                         ... done (   0.014 sec)



           ************************************************************
           *        Program running with 24 parallel MPI-processes    *
           *              working on a common directory               *
           ************************************************************
-------------------------------------------------------------------------------
                                 ORCA SCF
-------------------------------------------------------------------------------

------------
SCF SETTINGS
------------
Hamiltonian:
 Density Functional     Method          .... DFT(GTOs)
 Exchange Functional    Exchange        .... WB97X-V
 Correlation Functional Correlation     .... WB97X-V
 Gradients option       PostSCFGGA      .... off
 Hybrid DFT is turned on
   Fraction HF Exchange ScalHFX         ....  0.167000
   Scaling of DF-GGA-X  ScalDFX         ....  0.000000
   Scaling of DF-GGA-C  ScalDFC         ....  1.000000
   Scaling of DF-LDA-C  ScalLDAC        ....  1.000000
   Perturbative correction              ....  0.000000
   Density functional embedding theory  .... OFF
 Long-range corrected/Screened/Range-Separated Hybrid DFT is turned on
   Amount of maximum screened exact exchange              ....  0.833000
   Range separation parameter mu (erf(mu*r12)/r12)        ....  0.300000
   NL short-range parameter             ....  6.000000
   NL long-range parameter              ....  0.010000


General Settings:
 Integral files         IntName         .... TMB06_C1
 Hartree-Fock type      HFTyp           .... RHF
 Total Charge           Charge          ....   -2
 Multiplicity           Mult            ....    1
 Number of Electrons    NEL             ....  188
 Basis Dimension        Dim             .... 1005
 Nuclear Repulsion      ENuc            ....   2266.7256803567 Eh

Convergence Acceleration:
 DIIS                   CNVDIIS         .... on
   Start iteration      DIISMaxIt       ....    12
   Startup error        DIISStart       ....  0.200000
   # of expansion vecs  DIISMaxEq       ....     5
   Bias factor          DIISBfac        ....   1.050
   Max. coefficient     DIISMaxC        ....  10.000
 Newton-Raphson         CNVNR           .... off
 SOSCF                  CNVSOSCF        .... off
 Level Shifting         CNVShift        .... on
   Level shift para.    LevelShift      ....    0.2500
   Turn off err/grad.   ShiftErr        ....    0.0010
 Zerner damping         CNVZerner       .... off
 Static damping         CNVDamp         .... on
   Fraction old density DampFac         ....    0.7000
   Max. Damping (<1)    DampMax         ....    0.9800
   Min. Damping (>=0)   DampMin         ....    0.0000
   Turn off err/grad.   DampErr         ....    0.1000
 Fernandez-Rico         CNVRico         .... off

SCF Procedure:
 Maximum # iterations   MaxIter         ....   125
 SCF integral mode      SCFMode         .... Direct
   Integral package                     .... LIBINT
 Reset frequency        DirectResetFreq ....    20
 Integral Threshold     Thresh          ....  1.000e-10 Eh
 Primitive CutOff       TCut            ....  1.000e-11 Eh

Convergence Tolerance:
 Convergence Check Mode ConvCheckMode   .... Total+1el-Energy
 Convergence forced     ConvForced      .... 0
 Energy Change          TolE            ....  1.000e-06 Eh
 1-El. energy change                    ....  1.000e-03 Eh
 DIIS Error             TolErr          ....  1.000e-06


Diagonalization of the overlap matrix:
Smallest eigenvalue                        ... 8.796e-07
Time for diagonalization                   ...    0.178 sec
Threshold for overlap eigenvalues          ... 1.000e-08
Number of eigenvalues below threshold      ... 0
Time for construction of square roots      ...    0.123 sec
Total time needed                          ...    0.305 sec

-------------------
DFT GRID GENERATION
-------------------

General Integration Accuracy     IntAcc      ...  4.670
Radial Grid Type                 RadialGrid  ... Gauss-Chebyshev
Angular Grid (max. acc.)         AngularGrid ... Lebedev-302
Angular grid pruning method      GridPruning ... 3 (G Style)
Weight generation scheme         WeightScheme... Becke
Basis function cutoff            BFCut       ...    1.0000e-10
Integration weight cutoff        WCut        ...    1.0000e-14
Grids for H and He will be reduced by one unit

# of grid points (after initial pruning)     ... 167942 (   0.0 sec)
# of grid points (after weights+screening)   ... 150287 (   0.1 sec)
nearest neighbour list constructed           ...    0.0 sec
Grid point re-assignment to atoms done       ...    0.0 sec
Grid point division into batches done        ...    0.5 sec
Reduced shell lists constructed in    0.6 sec

Total number of grid points                  ...   150287
Total number of batches                      ...     2366
Average number of points per batch           ...       63
Average number of grid points per atom       ...     4696
Average number of shells per batch           ...   167.61 (46.69%)
Average number of basis functions per batch  ...   451.41 (44.92%)
Average number of large shells per batch     ...   115.23 (68.75%)
Average number of large basis fcns per batch ...   311.37 (68.98%)
Maximum spatial batch extension              ...   9.67,  8.80, 14.25 au
Average spatial batch extension              ...   0.05,  0.05,  0.06 au

Time for grid setup =    0.855 sec

------------------------------
INITIAL GUESS: MODEL POTENTIAL
------------------------------
Loading Hartree-Fock densities                     ... done
  calling /sw/apps/orca/orca_4_2_0_linux_x86-64_openmpi314/orca TMB06_C1_atom74.inp > TMB06_C1_atom74.out in order to generate an atomic fitting density for atom 14 (W  with ECP) on-the-fly... 
    atom 14 (W ), assumed electronic state with S=5: 1s2 2s2 2p6 3s2 3p6 4s2 3d10 4p6 5s2 4d10 5p6 6s2 4f14 5d4           ... done
Calculating cut-offs                               ... done
Setting up the integral package                    ... done
Initializing the effective Hamiltonian             ... done
Starting the Coulomb interaction                   ... done (   0.1 sec)
Reading the grid                                   ... done
Mapping shells                                     ... done
Starting the XC term evaluation                    ... done (   0.5 sec)
  promolecular density results
     # of electrons  =    245.994065541
     EX              =   -402.517739535
     EC              =    -13.739213661
     EX+EC           =   -416.256953196
Transforming the Hamiltonian                       ... done (   0.1 sec)
Diagonalizing the Hamiltonian                      ... done (   0.1 sec)
Back transforming the eigenvectors                 ... done (   0.0 sec)
Now organizing SCF variables                       ... done
                      ------------------
                      INITIAL GUESS DONE (   3.1 sec)
                      ------------------
--------------
SCF ITERATIONS
--------------
ITER       Energy         Delta-E        Max-DP      RMS-DP      [F,P]     Damp
               ***  Starting incremental Fock matrix formation  ***
  0  -2635.3337663909   0.000000000000 0.82163478  0.00248567  0.3372853 0.7000
  1  -2635.4958853618  -0.162118970894 0.62423570  0.00176345  0.2341794 0.7000
                               ***Turning on DIIS***
  2  -2635.5816426323  -0.085757270540 0.43986286  0.00117302  0.1625556 0.7000
  3  -2635.6352071397  -0.053564507371 0.29113290  0.00076744  0.1122421 0.7000
  4  -2635.6729634994  -0.037756359704 0.67064500  0.00180512  0.0778600 0.0000
  5  -2635.7641722013  -0.091208701861 0.01533080  0.00013211  0.0038078 0.0000
  6  -2635.7652069022  -0.001034700943 0.00980534  0.00008647  0.0023271 0.0000
  7  -2635.7656614251  -0.000454522928 0.01353244  0.00007863  0.0018892 0.0000
  8  -2635.7659257121  -0.000264286971 0.00644894  0.00004567  0.0021503 0.0000
  9  -2635.7660895844  -0.000163872257 0.00636635  0.00004558  0.0010100 0.0000
 10  -2635.7661871750  -0.000097590663 0.00626974  0.00005195  0.0009207 0.0000
 11  -2635.7662730095  -0.000085834517 0.01812592  0.00004508  0.0004430 0.0000
 12  -2635.7662910415  -0.000018031936 0.00491297  0.00001544  0.0001968 0.0000
 13  -2635.7662957467  -0.000004705239 0.00224455  0.00001141  0.0001007 0.0000
 14  -2635.7662969937  -0.000001246997 0.00228677  0.00000865  0.0001005 0.0000
 15  -2635.7662972818  -0.000000288082 0.00303797  0.00001078  0.0000753 0.0000
 16  -2635.7662973597  -0.000000077947 0.00379798  0.00001353  0.0000419 0.0000
                 **** Energy Check signals convergence ****

               *****************************************************
               *                     SUCCESS                       *
               *           SCF CONVERGED AFTER  17 CYCLES          *
               *****************************************************


Setting up the DFT-NL grid :

General Integration Accuracy     IntAcc      ...  4.340
Radial Grid Type                 RadialGrid  ... Gauss-Chebyshev
Angular Grid (max. acc.)         AngularGrid ... Lebedev-110
Angular grid pruning method      GridPruning ... 3 (G Style)
Weight generation scheme         WeightScheme... Becke
Basis function cutoff            BFCut       ...    1.0000e-10
Integration weight cutoff        WCut        ...    1.0000e-14
Grids for H and He will be reduced by one unit

# of grid points (after initial pruning)     ...  43728 (   0.0 sec)
# of grid points (after weights+screening)   ...  39786 (   0.0 sec)
nearest neighbour list constructed           ...    0.0 sec
Grid point re-assignment to atoms done       ...    0.0 sec
Grid point division into batches done        ...    0.0 sec
Reduced shell lists constructed in    0.1 sec

Total number of grid points                  ...    39786
Total number of batches                      ...      638
Average number of points per batch           ...       62
Average number of grid points per atom       ...     1243
Average number of shells per batch           ...   172.57 (48.07%)
Average number of basis functions per batch  ...   467.29 (46.50%)
Average number of large shells per batch     ...   117.82 (68.27%)
Average number of large basis fcns per batch ...   318.46 (68.15%)
Maximum spatial batch extension              ...   3.44,  8.67,  7.32 au
Average spatial batch extension              ...   0.07,  0.08,  0.08 au

Final grid set up in    0.1 sec

-------------------------------------------------------------------------------
                         DFT-NL dispersion correction                          
-------------------------------------------------------------------------------

SC Energy -2635.766297294 
NL    Energy 0.709097938 
SC+NL Energy -2635.057199356 
NL done in    0.5 sec
-------------------------------------------------------------------------------

----------------
TOTAL SCF ENERGY
----------------

Total Energy       :        -2635.05719936 Eh          -71703.55173 eV

Components:
Nuclear Repulsion  :         2266.72568036 Eh           61680.74155 eV
Electronic Energy  :        -4901.78287971 Eh         -133384.29328 eV
One Electron Energy:        -8214.28639437 Eh         -223522.09643 eV
Two Electron Energy:         3312.50351466 Eh           90137.80315 eV

Virial components:
Potential Energy   :        -5219.97182839 Eh         -142042.65476 eV
Kinetic Energy     :         2584.91462903 Eh           70339.10303 eV
Virial Ratio       :            2.01939815


DFT components:
N(Alpha)           :       93.999908489930 electrons
N(Beta)            :       93.999908489930 electrons
N(Total)           :      187.999816979861 electrons
E(X)               :     -148.464752122182 Eh       
E(C)               :       -8.652363097356 Eh       
NL Energy, E(C,NL) :        0.709097937992 Eh       
E(XC)              :     -156.408017281546 Eh       
DFET-embed. en.    :        0.000000000000 Eh       

---------------
SCF CONVERGENCE
---------------

  Last Energy change         ...    6.5349e-08  Tolerance :   1.0000e-06
  Last MAX-Density change    ...    6.8376e-03  Tolerance :   1.0000e-05
  Last RMS-Density change    ...    2.4984e-05  Tolerance :   1.0000e-06
  Last DIIS Error            ...    1.8507e-05  Tolerance :   1.0000e-06

             **** THE GBW FILE WAS UPDATED (TMB06_C1.gbw) ****
             **** DENSITY FILE WAS UPDATED (TMB06_C1.scfp) ****
             **** ENERGY FILE WAS UPDATED (TMB06_C1.en.tmp) ****
             **** THE GBW FILE WAS UPDATED (TMB06_C1.gbw) ****
             **** DENSITY FILE WAS UPDATED (TMB06_C1.scfp) ****
----------------
ORBITAL ENERGIES
----------------

  NO   OCC          E(Eh)            E(eV) 
   0   2.0000     -88.654466     -2412.4107 
   1   2.0000     -88.624836     -2411.6044 
   2   2.0000     -88.614835     -2411.3323 
   3   2.0000     -88.606576     -2411.1075 
   4   2.0000     -88.602388     -2410.9936 
   5   2.0000     -18.987586      -516.6785 
   6   2.0000     -18.910334      -514.5763 
   7   2.0000     -18.896629      -514.2034 
   8   2.0000     -10.115134      -275.2468 
   9   2.0000     -10.105650      -274.9887 
  10   2.0000     -10.092848      -274.6404 
  11   2.0000     -10.078574      -274.2519 
  12   2.0000     -10.072087      -274.0754 
  13   2.0000     -10.067323      -273.9458 
  14   2.0000     -10.063707      -273.8474 
  15   2.0000     -10.061918      -273.7987 
  16   2.0000     -10.043605      -273.3004 
  17   2.0000      -7.832185      -213.1246 
  18   2.0000      -7.803685      -212.3491 
  19   2.0000      -7.793440      -212.0703 
  20   2.0000      -7.785074      -211.8426 
  21   2.0000      -7.780591      -211.7207 
  22   2.0000      -5.787292      -157.4802 
  23   2.0000      -5.783555      -157.3785 
  24   2.0000      -5.781393      -157.3197 
  25   2.0000      -5.759294      -156.7184 
  26   2.0000      -5.754130      -156.5778 
  27   2.0000      -5.753044      -156.5483 
  28   2.0000      -5.748952      -156.4369 
  29   2.0000      -5.744471      -156.3150 
  30   2.0000      -5.742427      -156.2594 
  31   2.0000      -5.741385      -156.2310 
  32   2.0000      -5.736529      -156.0989 
  33   2.0000      -5.736494      -156.0979 
  34   2.0000      -5.732787      -155.9971 
  35   2.0000      -5.731662      -155.9664 
  36   2.0000      -5.729247      -155.9007 
  37   2.0000      -2.922484       -79.5248 
  38   2.0000      -1.563856       -42.5547 
  39   2.0000      -1.559676       -42.4409 
  40   2.0000      -1.553030       -42.2601 
  41   2.0000      -0.912578       -24.8325 
  42   2.0000      -0.902953       -24.5706 
  43   2.0000      -0.807481       -21.9727 
  44   2.0000      -0.749063       -20.3830 
  45   2.0000      -0.711944       -19.3730 
  46   2.0000      -0.681786       -18.5523 
  47   2.0000      -0.668661       -18.1952 
  48   2.0000      -0.646388       -17.5891 
  49   2.0000      -0.623238       -16.9592 
  50   2.0000      -0.610145       -16.6029 
  51   2.0000      -0.572940       -15.5905 
  52   2.0000      -0.542322       -14.7573 
  53   2.0000      -0.516946       -14.0668 
  54   2.0000      -0.463445       -12.6110 
  55   2.0000      -0.442906       -12.0521 
  56   2.0000      -0.418907       -11.3990 
  57   2.0000      -0.416824       -11.3423 
  58   2.0000      -0.390246       -10.6191 
  59   2.0000      -0.379130       -10.3166 
  60   2.0000      -0.375420       -10.2157 
  61   2.0000      -0.356737        -9.7073 
  62   2.0000      -0.334435        -9.1004 
  63   2.0000      -0.324814        -8.8386 
  64   2.0000      -0.320524        -8.7219 
  65   2.0000      -0.318785        -8.6746 
  66   2.0000      -0.310481        -8.4486 
  67   2.0000      -0.306720        -8.3463 
  68   2.0000      -0.276263        -7.5175 
  69   2.0000      -0.275267        -7.4904 
  70   2.0000      -0.254019        -6.9122 
  71   2.0000      -0.251071        -6.8320 
  72   2.0000      -0.245737        -6.6869 
  73   2.0000      -0.241520        -6.5721 
  74   2.0000      -0.231146        -6.2898 
  75   2.0000      -0.226933        -6.1752 
  76   2.0000      -0.218473        -5.9450 
  77   2.0000      -0.212065        -5.7706 
  78   2.0000      -0.204177        -5.5559 
  79   2.0000      -0.197223        -5.3667 
  80   2.0000      -0.191621        -5.2143 
  81   2.0000      -0.179778        -4.8920 
  82   2.0000      -0.161296        -4.3891 
  83   2.0000      -0.157787        -4.2936 
  84   2.0000      -0.142522        -3.8782 
  85   2.0000      -0.127514        -3.4698 
  86   2.0000      -0.124763        -3.3950 
  87   2.0000      -0.105689        -2.8760 
  88   2.0000      -0.104290        -2.8379 
  89   2.0000      -0.099927        -2.7191 
  90   2.0000      -0.089046        -2.4231 
  91   2.0000      -0.086227        -2.3463 
  92   2.0000      -0.081055        -2.2056 
  93   2.0000      -0.046169        -1.2563 
  94   0.0000       0.182718         4.9720 
  95   0.0000       0.193946         5.2776 
  96   0.0000       0.206535         5.6201 
  97   0.0000       0.211862         5.7651 
  98   0.0000       0.215660         5.8684 
  99   0.0000       0.225430         6.1343 
 100   0.0000       0.229341         6.2407 
 101   0.0000       0.230180         6.2635 
 102   0.0000       0.234774         6.3885 
 103   0.0000       0.243532         6.6269 
 104   0.0000       0.246863         6.7175 
 105   0.0000       0.250321         6.8116 
 106   0.0000       0.256784         6.9874 
 107   0.0000       0.259066         7.0495 
 108   0.0000       0.264546         7.1987 
 109   0.0000       0.267476         7.2784 
 110   0.0000       0.269995         7.3469 
 111   0.0000       0.275299         7.4913 
 112   0.0000       0.277575         7.5532 
 113   0.0000       0.280256         7.6262 
 114   0.0000       0.285092         7.7578 
 115   0.0000       0.288493         7.8503 
 116   0.0000       0.293929         7.9982 
 117   0.0000       0.297146         8.0857 
 118   0.0000       0.298554         8.1241 
 119   0.0000       0.302663         8.2359 
 120   0.0000       0.306509         8.3405 
 121   0.0000       0.312143         8.4938 
 122   0.0000       0.314833         8.5671 
 123   0.0000       0.318738         8.6733 
 124   0.0000       0.320620         8.7245 
 125   0.0000       0.324624         8.8335 
 126   0.0000       0.328674         8.9437 
 127   0.0000       0.335625         9.1328 
 128   0.0000       0.336162         9.1474 
 129   0.0000       0.339687         9.2434 
 130   0.0000       0.340720         9.2715 
 131   0.0000       0.343270         9.3409 
 132   0.0000       0.346880         9.4391 
 133   0.0000       0.355517         9.6741 
 134   0.0000       0.357341         9.7237 
 135   0.0000       0.361962         9.8495 
 136   0.0000       0.364852         9.9281 
 137   0.0000       0.365653         9.9499 
 138   0.0000       0.372153        10.1268 
 139   0.0000       0.377786        10.2801 
 140   0.0000       0.379438        10.3250 
 141   0.0000       0.381372        10.3776 
 142   0.0000       0.385400        10.4873 
 143   0.0000       0.387025        10.5315 
 144   0.0000       0.389717        10.6047 
 145   0.0000       0.396213        10.7815 
 146   0.0000       0.397272        10.8103 
 147   0.0000       0.400275        10.8920 
 148   0.0000       0.405551        11.0356 
 149   0.0000       0.409263        11.1366 
 150   0.0000       0.414278        11.2731 
 151   0.0000       0.415407        11.3038 
 152   0.0000       0.418464        11.3870 
 153   0.0000       0.423996        11.5375 
 154   0.0000       0.425136        11.5685 
 155   0.0000       0.430676        11.7193 
 156   0.0000       0.434929        11.8350 
 157   0.0000       0.436457        11.8766 
 158   0.0000       0.439987        11.9727 
 159   0.0000       0.445857        12.1324 
 160   0.0000       0.448452        12.2030 
 161   0.0000       0.449239        12.2244 
 162   0.0000       0.451825        12.2948 
 163   0.0000       0.453885        12.3508 
 164   0.0000       0.456034        12.4093 
 165   0.0000       0.460923        12.5424 
 166   0.0000       0.462150        12.5757 
 167   0.0000       0.468122        12.7382 
 168   0.0000       0.470153        12.7935 
 169   0.0000       0.474181        12.9031 
 170   0.0000       0.476524        12.9669 
 171   0.0000       0.481857        13.1120 
 172   0.0000       0.484309        13.1787 
 173   0.0000       0.487372        13.2621 
 174   0.0000       0.488716        13.2986 
 175   0.0000       0.491303        13.3690 
 176   0.0000       0.493906        13.4399 
 177   0.0000       0.497264        13.5312 
 178   0.0000       0.498153        13.5554 
 179   0.0000       0.499941        13.6041 
 180   0.0000       0.503140        13.6911 
 181   0.0000       0.503970        13.7137 
 182   0.0000       0.508281        13.8310 
 183   0.0000       0.512049        13.9336 
 184   0.0000       0.513053        13.9609 
 185   0.0000       0.516960        14.0672 
 186   0.0000       0.518710        14.1148 
 187   0.0000       0.523953        14.2575 
 188   0.0000       0.525075        14.2880 
 189   0.0000       0.529802        14.4166 
 190   0.0000       0.532861        14.4999 
 191   0.0000       0.536053        14.5867 
 192   0.0000       0.537707        14.6317 
 193   0.0000       0.542364        14.7585 
 194   0.0000       0.543455        14.7882 
 195   0.0000       0.545090        14.8326 
 196   0.0000       0.552457        15.0331 
 197   0.0000       0.552946        15.0464 
 198   0.0000       0.555634        15.1196 
 199   0.0000       0.560056        15.2399 
 200   0.0000       0.562121        15.2961 
 201   0.0000       0.565010        15.3747 
 202   0.0000       0.565927        15.3997 
 203   0.0000       0.567128        15.4323 
 204   0.0000       0.571310        15.5461 
 205   0.0000       0.573246        15.5988 
 206   0.0000       0.576186        15.6788 
 207   0.0000       0.580245        15.7893 
 208   0.0000       0.580989        15.8095 
 209   0.0000       0.582680        15.8555 
 210   0.0000       0.586692        15.9647 
 211   0.0000       0.590227        16.0609 
 212   0.0000       0.591072        16.0839 
 213   0.0000       0.596748        16.2383 
 214   0.0000       0.598940        16.2980 
 215   0.0000       0.601062        16.3557 
 216   0.0000       0.603292        16.4164 
 217   0.0000       0.607064        16.5190 
 218   0.0000       0.608551        16.5595 
 219   0.0000       0.610354        16.6086 
 220   0.0000       0.616333        16.7713 
 221   0.0000       0.620421        16.8825 
 222   0.0000       0.622429        16.9371 
 223   0.0000       0.625595        17.0233 
 224   0.0000       0.632061        17.1993 
 225   0.0000       0.633064        17.2265 
 226   0.0000       0.635893        17.3035 
 227   0.0000       0.637910        17.3584 
 228   0.0000       0.641976        17.4691 
 229   0.0000       0.644556        17.5393 
 230   0.0000       0.645448        17.5635 
 231   0.0000       0.649434        17.6720 
 232   0.0000       0.650061        17.6891 
 233   0.0000       0.658069        17.9070 
 234   0.0000       0.660687        17.9782 
 235   0.0000       0.661921        18.0118 
 236   0.0000       0.663768        18.0620 
 237   0.0000       0.668121        18.1805 
 238   0.0000       0.673821        18.3356 
 239   0.0000       0.677893        18.4464 
 240   0.0000       0.679072        18.4785 
 241   0.0000       0.682204        18.5637 
 242   0.0000       0.686035        18.6679 
 243   0.0000       0.688308        18.7298 
 244   0.0000       0.691949        18.8289 
 245   0.0000       0.694179        18.8896 
 246   0.0000       0.695595        18.9281 
 247   0.0000       0.701738        19.0953 
 248   0.0000       0.703378        19.1399 
 249   0.0000       0.704112        19.1599 
 250   0.0000       0.710848        19.3432 
 251   0.0000       0.711058        19.3489 
 252   0.0000       0.713367        19.4117 
 253   0.0000       0.717376        19.5208 
 254   0.0000       0.718348        19.5472 
 255   0.0000       0.721690        19.6382 
 256   0.0000       0.722560        19.6619 
 257   0.0000       0.727738        19.8028 
 258   0.0000       0.731161        19.8959 
 259   0.0000       0.736268        20.0349 
 260   0.0000       0.739718        20.1287 
 261   0.0000       0.744115        20.2484 
 262   0.0000       0.747163        20.3314 
 263   0.0000       0.750057        20.4101 
 264   0.0000       0.751944        20.4614 
 265   0.0000       0.754509        20.5312 
 266   0.0000       0.758941        20.6518 
 267   0.0000       0.765022        20.8173 
 268   0.0000       0.765796        20.8384 
 269   0.0000       0.767770        20.8921 
 270   0.0000       0.769708        20.9448 
 271   0.0000       0.775565        21.1042 
 272   0.0000       0.779380        21.2080 
 273   0.0000       0.783834        21.3292 
 274   0.0000       0.787895        21.4397 
 275   0.0000       0.788412        21.4538 
 276   0.0000       0.793036        21.5796 
 277   0.0000       0.795281        21.6407 
 278   0.0000       0.799771        21.7629 
 279   0.0000       0.801713        21.8157 
 280   0.0000       0.803579        21.8665 
 281   0.0000       0.810156        22.0455 
 282   0.0000       0.814038        22.1511 
 283   0.0000       0.817580        22.2475 
 284   0.0000       0.819905        22.3107 
 285   0.0000       0.824586        22.4381 
 286   0.0000       0.827408        22.5149 
 287   0.0000       0.833169        22.6717 
 288   0.0000       0.836812        22.7708 
 289   0.0000       0.841514        22.8987 
 290   0.0000       0.843775        22.9603 
 291   0.0000       0.846545        23.0357 
 292   0.0000       0.850183        23.1346 
 293   0.0000       0.852919        23.2091 
 294   0.0000       0.857110        23.3231 
 295   0.0000       0.862821        23.4786 
 296   0.0000       0.865045        23.5391 
 297   0.0000       0.871336        23.7102 
 298   0.0000       0.872105        23.7312 
 299   0.0000       0.874185        23.7878 
 300   0.0000       0.881024        23.9739 
 301   0.0000       0.885322        24.0908 
 302   0.0000       0.888723        24.1834 
 303   0.0000       0.890148        24.2222 
 304   0.0000       0.893423        24.3113 
 305   0.0000       0.896491        24.3947 
 306   0.0000       0.900142        24.4941 
 307   0.0000       0.901506        24.5312 
 308   0.0000       0.902096        24.5473 
 309   0.0000       0.907280        24.6883 
 310   0.0000       0.911286        24.7974 
 311   0.0000       0.915863        24.9219 
 312   0.0000       0.920115        25.0376 
 313   0.0000       0.921622        25.0786 
 314   0.0000       0.925796        25.1922 
 315   0.0000       0.929981        25.3061 
 316   0.0000       0.933369        25.3983 
 317   0.0000       0.937067        25.4989 
 318   0.0000       0.940626        25.5957 
 319   0.0000       0.944049        25.6889 
 320   0.0000       0.947787        25.7906 
 321   0.0000       0.951921        25.9031 
 322   0.0000       0.953838        25.9553 
 323   0.0000       0.958545        26.0833 
 324   0.0000       0.960002        26.1230 
 325   0.0000       0.962317        26.1860 
 326   0.0000       0.966635        26.3035 
 327   0.0000       0.971481        26.4353 
 328   0.0000       0.974263        26.5111 
 329   0.0000       0.977039        26.5866 
 330   0.0000       0.979879        26.6639 
 331   0.0000       0.982375        26.7318 
 332   0.0000       0.985268        26.8105 
 333   0.0000       0.986362        26.8403 
 334   0.0000       0.991302        26.9747 
 335   0.0000       0.992911        27.0185 
 336   0.0000       0.996612        27.1192 
 337   0.0000       1.000304        27.2197 
 338   0.0000       1.002709        27.2851 
 339   0.0000       1.004987        27.3471 
 340   0.0000       1.008618        27.4459 
 341   0.0000       1.014075        27.5944 
 342   0.0000       1.016746        27.6671 
 343   0.0000       1.020095        27.7582 
 344   0.0000       1.022283        27.8177 
 345   0.0000       1.023503        27.8509 
 346   0.0000       1.029639        28.0179 
 347   0.0000       1.032888        28.1063 
 348   0.0000       1.037618        28.2350 
 349   0.0000       1.041751        28.3475 
 350   0.0000       1.048619        28.5344 
 351   0.0000       1.052968        28.6527 
 352   0.0000       1.053611        28.6702 
 353   0.0000       1.056527        28.7496 
 354   0.0000       1.061405        28.8823 
 355   0.0000       1.066147        29.0113 
 356   0.0000       1.069122        29.0923 
 357   0.0000       1.070652        29.1339 
 358   0.0000       1.071700        29.1624 
 359   0.0000       1.078750        29.3543 
 360   0.0000       1.080923        29.4134 
 361   0.0000       1.082818        29.4650 
 362   0.0000       1.086263        29.5587 
 363   0.0000       1.093585        29.7580 
 364   0.0000       1.098756        29.8987 
 365   0.0000       1.100476        29.9455 
 366   0.0000       1.108477        30.1632 
 367   0.0000       1.111685        30.2505 
 368   0.0000       1.116279        30.3755 
 369   0.0000       1.120077        30.4788 
 370   0.0000       1.126052        30.6414 
 371   0.0000       1.132507        30.8171 
 372   0.0000       1.134317        30.8663 
 373   0.0000       1.136108        30.9151 
 374   0.0000       1.140311        31.0294 
 375   0.0000       1.146938        31.2098 
 376   0.0000       1.151549        31.3353 
 377   0.0000       1.159217        31.5439 
 378   0.0000       1.163618        31.6637 
 379   0.0000       1.166021        31.7290 
 380   0.0000       1.170809        31.8593 
 381   0.0000       1.175005        31.9735 
 382   0.0000       1.181437        32.1485 
 383   0.0000       1.184926        32.2435 
 384   0.0000       1.190813        32.4037 
 385   0.0000       1.198202        32.6047 
 386   0.0000       1.204562        32.7778 
 387   0.0000       1.208011        32.8717 
 388   0.0000       1.211375        32.9632 
 389   0.0000       1.215685        33.0805 
 390   0.0000       1.219007        33.1709 
 391   0.0000       1.229635        33.4601 
 392   0.0000       1.235259        33.6131 
 393   0.0000       1.238278        33.6953 
 394   0.0000       1.241400        33.7802 
 395   0.0000       1.242590        33.8126 
 396   0.0000       1.251415        34.0527 
 397   0.0000       1.257238        34.2112 
 398   0.0000       1.258810        34.2540 
 399   0.0000       1.263207        34.3736 
 400   0.0000       1.268103        34.5069 
 401   0.0000       1.272742        34.6331 
 402   0.0000       1.283328        34.9211 
 403   0.0000       1.286207        34.9995 
 404   0.0000       1.293121        35.1876 
 405   0.0000       1.301812        35.4241 
 406   0.0000       1.306710        35.5574 
 407   0.0000       1.312352        35.7109 
 408   0.0000       1.312937        35.7268 
 409   0.0000       1.315803        35.8048 
 410   0.0000       1.323792        36.0222 
 411   0.0000       1.329614        36.1806 
 412   0.0000       1.339519        36.4502 
 413   0.0000       1.341622        36.5074 
 414   0.0000       1.348511        36.6948 
 415   0.0000       1.350546        36.7502 
 416   0.0000       1.355306        36.8797 
 417   0.0000       1.368971        37.2516 
 418   0.0000       1.380463        37.5643 
 419   0.0000       1.384334        37.6697 
 420   0.0000       1.387038        37.7432 
 421   0.0000       1.391591        37.8671 
 422   0.0000       1.396480        38.0001 
 423   0.0000       1.405696        38.2509 
 424   0.0000       1.415624        38.5211 
 425   0.0000       1.423647        38.7394 
 426   0.0000       1.428971        38.8843 
 427   0.0000       1.430924        38.9374 
 428   0.0000       1.440489        39.1977 
 429   0.0000       1.445734        39.3404 
 430   0.0000       1.445995        39.3475 
 431   0.0000       1.452379        39.5212 
 432   0.0000       1.458330        39.6832 
 433   0.0000       1.465242        39.8713 
 434   0.0000       1.477979        40.2179 
 435   0.0000       1.479780        40.2669 
 436   0.0000       1.492635        40.6167 
 437   0.0000       1.492964        40.6256 
 438   0.0000       1.497510        40.7493 
 439   0.0000       1.506801        41.0022 
 440   0.0000       1.509039        41.0630 
 441   0.0000       1.518613        41.3236 
 442   0.0000       1.529339        41.6154 
 443   0.0000       1.529947        41.6320 
 444   0.0000       1.538821        41.8734 
 445   0.0000       1.543176        41.9919 
 446   0.0000       1.550941        42.2032 
 447   0.0000       1.556584        42.3568 
 448   0.0000       1.559992        42.4495 
 449   0.0000       1.561458        42.4894 
 450   0.0000       1.566580        42.6288 
 451   0.0000       1.578249        42.9463 
 452   0.0000       1.582013        43.0488 
 453   0.0000       1.583051        43.0770 
 454   0.0000       1.591933        43.3187 
 455   0.0000       1.594864        43.3984 
 456   0.0000       1.600202        43.5437 
 457   0.0000       1.606969        43.7279 
 458   0.0000       1.610421        43.8218 
 459   0.0000       1.616906        43.9983 
 460   0.0000       1.621481        44.1227 
 461   0.0000       1.630410        44.3657 
 462   0.0000       1.640398        44.6375 
 463   0.0000       1.645854        44.7860 
 464   0.0000       1.647574        44.8328 
 465   0.0000       1.655429        45.0465 
 466   0.0000       1.658260        45.1236 
 467   0.0000       1.675182        45.5840 
 468   0.0000       1.680842        45.7380 
 469   0.0000       1.690855        46.0105 
 470   0.0000       1.692846        46.0647 
 471   0.0000       1.697726        46.1975 
 472   0.0000       1.699381        46.2425 
 473   0.0000       1.711307        46.5670 
 474   0.0000       1.717646        46.7395 
 475   0.0000       1.718243        46.7558 
 476   0.0000       1.723582        46.9011 
 477   0.0000       1.726731        46.9867 
 478   0.0000       1.732438        47.1420 
 479   0.0000       1.738315        47.3019 
 480   0.0000       1.743253        47.4363 
 481   0.0000       1.757416        47.8217 
 482   0.0000       1.762342        47.9558 
 483   0.0000       1.767257        48.0895 
 484   0.0000       1.773038        48.2468 
 485   0.0000       1.784674        48.5634 
 486   0.0000       1.787680        48.6453 
 487   0.0000       1.798402        48.9370 
 488   0.0000       1.811195        49.2851 
 489   0.0000       1.820834        49.5474 
 490   0.0000       1.834038        49.9067 
 491   0.0000       1.836192        49.9653 
 492   0.0000       1.853220        50.4287 
 493   0.0000       1.860709        50.6325 
 494   0.0000       1.869270        50.8654 
 495   0.0000       1.882709        51.2311 
 496   0.0000       1.891271        51.4641 
 497   0.0000       1.893661        51.5291 
 498   0.0000       1.901661        51.7468 
 499   0.0000       1.906059        51.8665 
 500   0.0000       1.909681        51.9651 
 501   0.0000       1.919784        52.2400 
 502   0.0000       1.933598        52.6159 
 503   0.0000       1.941139        52.8211 
 504   0.0000       1.948534        53.0223 
 505   0.0000       1.955134        53.2019 
 506   0.0000       1.958806        53.3018 
 507   0.0000       1.969151        53.5833 
 508   0.0000       1.977022        53.7975 
 509   0.0000       1.978715        53.8436 
 510   0.0000       1.981937        53.9312 
 511   0.0000       1.989692        54.1423 
 512   0.0000       2.002993        54.5042 
 513   0.0000       2.013242        54.7831 
 514   0.0000       2.020998        54.9942 
 515   0.0000       2.029481        55.2250 
 516   0.0000       2.034286        55.3557 
 517   0.0000       2.038056        55.4583 
 518   0.0000       2.050673        55.8016 
 519   0.0000       2.051873        55.8343 
 520   0.0000       2.054878        55.9161 
 521   0.0000       2.059166        56.0328 
 522   0.0000       2.061810        56.1047 
 523   0.0000       2.068960        56.2993 
 524   0.0000       2.074167        56.4410 
 525   0.0000       2.074948        56.4622 
 526   0.0000       2.080995        56.6268 
 527   0.0000       2.090046        56.8730 
 528   0.0000       2.095351        57.0174 
 529   0.0000       2.098432        57.1012 
 530   0.0000       2.102827        57.2208 
 531   0.0000       2.109641        57.4062 
 532   0.0000       2.111425        57.4548 
 533   0.0000       2.121653        57.7331 
 534   0.0000       2.122943        57.7682 
 535   0.0000       2.130124        57.9636 
 536   0.0000       2.136048        58.1248 
 537   0.0000       2.138152        58.1821 
 538   0.0000       2.143879        58.3379 
 539   0.0000       2.151777        58.5528 
 540   0.0000       2.155899        58.6650 
 541   0.0000       2.163440        58.8702 
 542   0.0000       2.166119        58.9431 
 543   0.0000       2.169046        59.0227 
 544   0.0000       2.175690        59.2035 
 545   0.0000       2.177576        59.2549 
 546   0.0000       2.186908        59.5088 
 547   0.0000       2.196696        59.7751 
 548   0.0000       2.207680        60.0740 
 549   0.0000       2.213943        60.2444 
 550   0.0000       2.221658        60.4544 
 551   0.0000       2.230249        60.6882 
 552   0.0000       2.231029        60.7094 
 553   0.0000       2.239049        60.9276 
 554   0.0000       2.241192        60.9859 
 555   0.0000       2.248322        61.1799 
 556   0.0000       2.253217        61.3132 
 557   0.0000       2.262558        61.5673 
 558   0.0000       2.270414        61.7811 
 559   0.0000       2.272766        61.8451 
 560   0.0000       2.279013        62.0151 
 561   0.0000       2.285021        62.1786 
 562   0.0000       2.289821        62.3092 
 563   0.0000       2.296954        62.5033 
 564   0.0000       2.300934        62.6116 
 565   0.0000       2.303059        62.6694 
 566   0.0000       2.307426        62.7883 
 567   0.0000       2.321321        63.1663 
 568   0.0000       2.322982        63.2116 
 569   0.0000       2.325654        63.2843 
 570   0.0000       2.334746        63.5317 
 571   0.0000       2.342993        63.7561 
 572   0.0000       2.346373        63.8481 
 573   0.0000       2.354230        64.0619 
 574   0.0000       2.363871        64.3242 
 575   0.0000       2.366297        64.3902 
 576   0.0000       2.373024        64.5733 
 577   0.0000       2.376969        64.6806 
 578   0.0000       2.385097        64.9018 
 579   0.0000       2.393554        65.1319 
 580   0.0000       2.400536        65.3219 
 581   0.0000       2.411467        65.6194 
 582   0.0000       2.415447        65.7277 
 583   0.0000       2.421616        65.8955 
 584   0.0000       2.424379        65.9707 
 585   0.0000       2.437162        66.3186 
 586   0.0000       2.442029        66.4510 
 587   0.0000       2.454855        66.8000 
 588   0.0000       2.459847        66.9358 
 589   0.0000       2.466909        67.1280 
 590   0.0000       2.472096        67.2692 
 591   0.0000       2.475190        67.3534 
 592   0.0000       2.488631        67.7191 
 593   0.0000       2.492622        67.8277 
 594   0.0000       2.502155        68.0871 
 595   0.0000       2.512119        68.3582 
 596   0.0000       2.521273        68.6073 
 597   0.0000       2.525848        68.7318 
 598   0.0000       2.533965        68.9527 
 599   0.0000       2.535760        69.0015 
 600   0.0000       2.542446        69.1835 
 601   0.0000       2.553477        69.4836 
 602   0.0000       2.556163        69.5567 
 603   0.0000       2.561658        69.7063 
 604   0.0000       2.565177        69.8020 
 605   0.0000       2.569304        69.9143 
 606   0.0000       2.573634        70.0321 
 607   0.0000       2.586930        70.3940 
 608   0.0000       2.591119        70.5079 
 609   0.0000       2.599119        70.7256 
 610   0.0000       2.610558        71.0369 
 611   0.0000       2.612054        71.0776 
 612   0.0000       2.621756        71.3416 
 613   0.0000       2.635924        71.7271 
 614   0.0000       2.642202        71.8980 
 615   0.0000       2.650983        72.1369 
 616   0.0000       2.659385        72.3655 
 617   0.0000       2.664989        72.5180 
 618   0.0000       2.669034        72.6281 
 619   0.0000       2.676660        72.8356 
 620   0.0000       2.687423        73.1285 
 621   0.0000       2.707491        73.6746 
 622   0.0000       2.715985        73.9057 
 623   0.0000       2.726291        74.1862 
 624   0.0000       2.735319        74.4318 
 625   0.0000       2.744711        74.6874 
 626   0.0000       2.751344        74.8679 
 627   0.0000       2.763719        75.2046 
 628   0.0000       2.782391        75.7127 
 629   0.0000       2.793155        76.0056 
 630   0.0000       2.795743        76.0760 
 631   0.0000       2.805683        76.3465 
 632   0.0000       2.817155        76.6587 
 633   0.0000       2.836532        77.1860 
 634   0.0000       2.842178        77.3396 
 635   0.0000       2.860234        77.8309 
 636   0.0000       2.869290        78.0773 
 637   0.0000       2.881785        78.4174 
 638   0.0000       2.891177        78.6729 
 639   0.0000       2.898599        78.8749 
 640   0.0000       2.911044        79.2135 
 641   0.0000       2.923847        79.5619 
 642   0.0000       2.937624        79.9368 
 643   0.0000       2.952689        80.3467 
 644   0.0000       2.955866        80.4332 
 645   0.0000       2.970168        80.8224 
 646   0.0000       2.978069        81.0374 
 647   0.0000       2.981262        81.1243 
 648   0.0000       3.013001        81.9879 
 649   0.0000       3.027690        82.3876 
 650   0.0000       3.030260        82.4576 
 651   0.0000       3.045285        82.8664 
 652   0.0000       3.060764        83.2876 
 653   0.0000       3.082279        83.8731 
 654   0.0000       3.094796        84.2137 
 655   0.0000       3.107418        84.5572 
 656   0.0000       3.122126        84.9574 
 657   0.0000       3.126839        85.0856 
 658   0.0000       3.134643        85.2980 
 659   0.0000       3.139075        85.4186 
 660   0.0000       3.148853        85.6847 
 661   0.0000       3.158125        85.9369 
 662   0.0000       3.170422        86.2716 
 663   0.0000       3.178237        86.4842 
 664   0.0000       3.185931        86.6936 
 665   0.0000       3.189000        86.7771 
 666   0.0000       3.195453        86.9527 
 667   0.0000       3.207313        87.2754 
 668   0.0000       3.216800        87.5336 
 669   0.0000       3.217036        87.5400 
 670   0.0000       3.225937        87.7822 
 671   0.0000       3.230167        87.8973 
 672   0.0000       3.235027        88.0296 
 673   0.0000       3.256388        88.6108 
 674   0.0000       3.268721        88.9464 
 675   0.0000       3.304218        89.9123 
 676   0.0000       3.310864        90.0932 
 677   0.0000       3.316474        90.2458 
 678   0.0000       3.323188        90.4286 
 679   0.0000       3.332440        90.6803 
 680   0.0000       3.341865        90.9368 
 681   0.0000       3.360824        91.4527 
 682   0.0000       3.366647        91.6111 
 683   0.0000       3.376400        91.8765 
 684   0.0000       3.377955        91.9188 
 685   0.0000       3.378792        91.9416 
 686   0.0000       3.393826        92.3507 
 687   0.0000       3.398568        92.4797 
 688   0.0000       3.399255        92.4984 
 689   0.0000       3.409005        92.7637 
 690   0.0000       3.419327        93.0446 
 691   0.0000       3.427909        93.2781 
 692   0.0000       3.433766        93.4375 
 693   0.0000       3.438654        93.5705 
 694   0.0000       3.443924        93.7139 
 695   0.0000       3.448286        93.8326 
 696   0.0000       3.455738        94.0354 
 697   0.0000       3.473050        94.5065 
 698   0.0000       3.479799        94.6901 
 699   0.0000       3.482734        94.7700 
 700   0.0000       3.494309        95.0850 
 701   0.0000       3.496159        95.1353 
 702   0.0000       3.505074        95.3779 
 703   0.0000       3.508324        95.4664 
 704   0.0000       3.516789        95.6967 
 705   0.0000       3.521097        95.8139 
 706   0.0000       3.527181        95.9795 
 707   0.0000       3.537352        96.2562 
 708   0.0000       3.537549        96.2616 
 709   0.0000       3.539182        96.3060 
 710   0.0000       3.543467        96.4227 
 711   0.0000       3.551703        96.6468 
 712   0.0000       3.560452        96.8848 
 713   0.0000       3.570042        97.1458 
 714   0.0000       3.571416        97.1832 
 715   0.0000       3.584323        97.5344 
 716   0.0000       3.588579        97.6502 
 717   0.0000       3.602164        98.0199 
 718   0.0000       3.615526        98.3835 
 719   0.0000       3.620002        98.5053 
 720   0.0000       3.627122        98.6990 
 721   0.0000       3.629796        98.7718 
 722   0.0000       3.640164        99.0539 
 723   0.0000       3.644297        99.1664 
 724   0.0000       3.660124        99.5970 
 725   0.0000       3.672511        99.9341 
 726   0.0000       3.677526       100.0706 
 727   0.0000       3.690121       100.4133 
 728   0.0000       3.704911       100.8157 
 729   0.0000       3.710686       100.9729 
 730   0.0000       3.721077       101.2557 
 731   0.0000       3.733029       101.5809 
 732   0.0000       3.734417       101.6186 
 733   0.0000       3.747714       101.9805 
 734   0.0000       3.755086       102.1811 
 735   0.0000       3.760023       102.3154 
 736   0.0000       3.764921       102.4487 
 737   0.0000       3.770995       102.6140 
 738   0.0000       3.776964       102.7764 
 739   0.0000       3.785463       103.0077 
 740   0.0000       3.797352       103.3312 
 741   0.0000       3.802353       103.4673 
 742   0.0000       3.806654       103.5843 
 743   0.0000       3.814471       103.7970 
 744   0.0000       3.819229       103.9265 
 745   0.0000       3.825178       104.0884 
 746   0.0000       3.828171       104.1698 
 747   0.0000       3.838523       104.4515 
 748   0.0000       3.844576       104.6162 
 749   0.0000       3.847858       104.7056 
 750   0.0000       3.854310       104.8811 
 751   0.0000       3.859542       105.0235 
 752   0.0000       3.860531       105.0504 
 753   0.0000       3.866222       105.2053 
 754   0.0000       3.872399       105.3733 
 755   0.0000       3.878664       105.5438 
 756   0.0000       3.883104       105.6646 
 757   0.0000       3.895819       106.0106 
 758   0.0000       3.900091       106.1269 
 759   0.0000       3.904099       106.2359 
 760   0.0000       3.916679       106.5783 
 761   0.0000       3.928260       106.8934 
 762   0.0000       3.930597       106.9570 
 763   0.0000       3.937243       107.1378 
 764   0.0000       3.970002       108.0293 
 765   0.0000       3.978091       108.2494 
 766   0.0000       3.984969       108.4365 
 767   0.0000       3.989039       108.5473 
 768   0.0000       3.994314       108.6908 
 769   0.0000       3.998909       108.8158 
 770   0.0000       4.001132       108.8763 
 771   0.0000       4.028849       109.6306 
 772   0.0000       4.037233       109.8587 
 773   0.0000       4.058598       110.4401 
 774   0.0000       4.060749       110.4986 
 775   0.0000       4.071285       110.7853 
 776   0.0000       4.085868       111.1821 
 777   0.0000       4.105155       111.7069 
 778   0.0000       4.107153       111.7613 
 779   0.0000       4.115463       111.9874 
 780   0.0000       4.127496       112.3149 
 781   0.0000       4.135467       112.5318 
 782   0.0000       4.152452       112.9940 
 783   0.0000       4.167009       113.3901 
 784   0.0000       4.176512       113.6487 
 785   0.0000       4.181786       113.7922 
 786   0.0000       4.185557       113.8948 
 787   0.0000       4.191123       114.0463 
 788   0.0000       4.203081       114.3717 
 789   0.0000       4.210730       114.5798 
 790   0.0000       4.214699       114.6878 
 791   0.0000       4.223770       114.9346 
 792   0.0000       4.229623       115.0939 
 793   0.0000       4.240191       115.3815 
 794   0.0000       4.245908       115.5370 
 795   0.0000       4.249058       115.6228 
 796   0.0000       4.253374       115.7402 
 797   0.0000       4.259080       115.8955 
 798   0.0000       4.267217       116.1169 
 799   0.0000       4.287418       116.6666 
 800   0.0000       4.299637       116.9991 
 801   0.0000       4.302164       117.0678 
 802   0.0000       4.311571       117.3238 
 803   0.0000       4.332123       117.8831 
 804   0.0000       4.350189       118.3746 
 805   0.0000       4.355771       118.5265 
 806   0.0000       4.359960       118.6405 
 807   0.0000       4.371753       118.9614 
 808   0.0000       4.377833       119.1269 
 809   0.0000       4.393058       119.5412 
 810   0.0000       4.397006       119.6486 
 811   0.0000       4.406855       119.9166 
 812   0.0000       4.421398       120.3124 
 813   0.0000       4.440107       120.8215 
 814   0.0000       4.452639       121.1625 
 815   0.0000       4.458949       121.3342 
 816   0.0000       4.470667       121.6530 
 817   0.0000       4.483225       121.9947 
 818   0.0000       4.486912       122.0951 
 819   0.0000       4.502884       122.5297 
 820   0.0000       4.514482       122.8453 
 821   0.0000       4.524634       123.1216 
 822   0.0000       4.526236       123.1651 
 823   0.0000       4.528229       123.2194 
 824   0.0000       4.546760       123.7236 
 825   0.0000       4.552406       123.8773 
 826   0.0000       4.556930       124.0004 
 827   0.0000       4.565288       124.2278 
 828   0.0000       4.592205       124.9602 
 829   0.0000       4.601202       125.2051 
 830   0.0000       4.609610       125.4339 
 831   0.0000       4.623437       125.8101 
 832   0.0000       4.639945       126.2593 
 833   0.0000       4.650526       126.5472 
 834   0.0000       4.663444       126.8988 
 835   0.0000       4.676240       127.2470 
 836   0.0000       4.688394       127.5777 
 837   0.0000       4.691414       127.6599 
 838   0.0000       4.699368       127.8763 
 839   0.0000       4.736418       128.8845 
 840   0.0000       4.745089       129.1204 
 841   0.0000       4.751471       129.2941 
 842   0.0000       4.778265       130.0232 
 843   0.0000       4.790289       130.3504 
 844   0.0000       4.807057       130.8067 
 845   0.0000       4.835718       131.5866 
 846   0.0000       4.897077       133.2563 
 847   0.0000       4.929986       134.1517 
 848   0.0000       4.970825       135.2630 
 849   0.0000       4.990875       135.8086 
 850   0.0000       5.015865       136.4886 
 851   0.0000       5.017052       136.5209 
 852   0.0000       5.042391       137.2104 
 853   0.0000       5.044048       137.2555 
 854   0.0000       5.045045       137.2827 
 855   0.0000       5.052378       137.4822 
 856   0.0000       5.071866       138.0125 
 857   0.0000       5.092647       138.5780 
 858   0.0000       5.121939       139.3750 
 859   0.0000       5.146722       140.0494 
 860   0.0000       5.178588       140.9165 
 861   0.0000       5.200363       141.5091 
 862   0.0000       5.215658       141.9253 
 863   0.0000       5.226034       142.2076 
 864   0.0000       5.235416       142.4629 
 865   0.0000       5.239842       142.5834 
 866   0.0000       5.250513       142.8737 
 867   0.0000       5.268202       143.3551 
 868   0.0000       5.272836       143.4812 
 869   0.0000       5.287208       143.8723 
 870   0.0000       5.304125       144.3326 
 871   0.0000       5.335636       145.1900 
 872   0.0000       5.375123       146.2645 
 873   0.0000       5.417232       147.4104 
 874   0.0000       5.446045       148.1944 
 875   0.0000       5.451172       148.3339 
 876   0.0000       5.459195       148.5522 
 877   0.0000       5.466156       148.7417 
 878   0.0000       5.488612       149.3527 
 879   0.0000       5.489940       149.3889 
 880   0.0000       5.510629       149.9519 
 881   0.0000       5.516032       150.0989 
 882   0.0000       5.533865       150.5841 
 883   0.0000       5.557659       151.2316 
 884   0.0000       5.581066       151.8685 
 885   0.0000       5.601518       152.4251 
 886   0.0000       5.613083       152.7398 
 887   0.0000       5.620709       152.9473 
 888   0.0000       5.631479       153.2403 
 889   0.0000       5.639179       153.4499 
 890   0.0000       5.649077       153.7192 
 891   0.0000       5.662205       154.0764 
 892   0.0000       5.666993       154.2067 
 893   0.0000       5.687295       154.7592 
 894   0.0000       5.705431       155.2527 
 895   0.0000       5.720025       155.6498 
 896   0.0000       5.723646       155.7483 
 897   0.0000       5.726569       155.8279 
 898   0.0000       5.748587       156.4270 
 899   0.0000       5.754763       156.5951 
 900   0.0000       5.771996       157.0640 
 901   0.0000       5.787428       157.4839 
 902   0.0000       5.809261       158.0780 
 903   0.0000       5.933042       161.4463 
 904   0.0000       5.956827       162.0935 
 905   0.0000       5.959845       162.1756 
 906   0.0000       5.976930       162.6405 
 907   0.0000       5.992458       163.0631 
 908   0.0000       6.009692       163.5320 
 909   0.0000       6.028288       164.0381 
 910   0.0000       6.031575       164.1275 
 911   0.0000       6.033839       164.1891 
 912   0.0000       6.058667       164.8647 
 913   0.0000       6.078709       165.4101 
 914   0.0000       6.090677       165.7358 
 915   0.0000       6.310098       171.7065 
 916   0.0000       6.455421       175.6609 
 917   0.0000       6.513480       177.2408 
 918   0.0000       6.528877       177.6598 
 919   0.0000       6.623699       180.2400 
 920   0.0000       6.634657       180.5382 
 921   0.0000       6.772562       184.2908 
 922   0.0000       6.849620       186.3876 
 923   0.0000       6.878091       187.1624 
 924   0.0000       6.917621       188.2380 
 925   0.0000       6.936928       188.7634 
 926   0.0000       6.957347       189.3190 
 927   0.0000       6.979895       189.9326 
 928   0.0000       7.038123       191.5171 
 929   0.0000       7.047623       191.7756 
 930   0.0000       7.081476       192.6967 
 931   0.0000       7.147420       194.4912 
 932   0.0000       7.184077       195.4887 
 933   0.0000       7.199750       195.9152 
 934   0.0000       7.210159       196.1984 
 935   0.0000       7.220617       196.4830 
 936   0.0000       7.239002       196.9833 
 937   0.0000       7.240968       197.0368 
 938   0.0000       7.243269       197.0994 
 939   0.0000       7.253382       197.3745 
 940   0.0000       7.264960       197.6896 
 941   0.0000       7.272172       197.8859 
 942   0.0000       7.281164       198.1305 
 943   0.0000       7.290804       198.3929 
 944   0.0000       7.294279       198.4874 
 945   0.0000       7.315893       199.0756 
 946   0.0000       7.326868       199.3742 
 947   0.0000       7.331269       199.4940 
 948   0.0000       7.338714       199.6965 
 949   0.0000       7.343675       199.8316 
 950   0.0000       7.354534       200.1270 
 951   0.0000       7.369890       200.5449 
 952   0.0000       7.397301       201.2908 
 953   0.0000       7.412536       201.7054 
 954   0.0000       7.418918       201.8790 
 955   0.0000       7.452640       202.7966 
 956   0.0000       7.518619       204.5920 
 957   0.0000       7.524103       204.7413 
 958   0.0000       7.535916       205.0627 
 959   0.0000       7.542403       205.2392 
 960   0.0000       7.623176       207.4372 
 961   0.0000       7.631716       207.6695 
 962   0.0000       7.655750       208.3235 
 963   0.0000       7.671117       208.7417 
 964   0.0000       7.731469       210.3840 
 965   0.0000       7.893781       214.8007 
 966   0.0000       7.966426       216.7775 
 967   0.0000       8.130330       221.2375 
 968   0.0000       9.505911       258.6690 
 969   0.0000       9.539627       259.5864 
 970   0.0000       9.545050       259.7340 
 971   0.0000       9.565209       260.2826 
 972   0.0000       9.577945       260.6291 
 973   0.0000       9.711152       264.2539 
 974   0.0000       9.761336       265.6194 
 975   0.0000       9.778411       266.0841 
 976   0.0000       9.818778       267.1825 
 977   0.0000       9.838700       267.7246 
 978   0.0000       9.904184       269.5066 
 979   0.0000       9.912238       269.7257 
 980   0.0000       9.940594       270.4973 
 981   0.0000      10.002707       272.1875 
 982   0.0000      10.049407       273.4583 
 983   0.0000      20.379620       554.5576 
 984   0.0000      20.576198       559.9068 
 985   0.0000      20.722087       563.8767 
 986   0.0000      20.864984       567.7651 
[...]
      dz2     :     0.063359  d :     0.318263
      dxz     :     0.051216
      dyz     :     0.060321
      dx2y2   :     0.085837
      dxy     :     0.057531
      f0      :     0.000544  f :     0.005442
      f+1     :     0.000643
      f-1     :     0.000852
      f+2     :     0.000659
      f-2     :     0.001351
      f+3     :     0.000766
      f-3     :     0.000627
  4 C s       :     2.708948  s :     2.708948
      pz      :     0.944585  p :     2.854226
      px      :     0.943415
      py      :     0.966227
      dz2     :     0.173954  d :     0.734444
      dxz     :     0.186749
      dyz     :     0.130347
      dx2y2   :     0.088444
      dxy     :     0.154949
      f0      :     0.003714  f :     0.027335
      f+1     :     0.004873
      f-1     :     0.003662
      f+2     :     0.003567
      f-2     :     0.004254
      f+3     :     0.004376
      f-3     :     0.002889
  5 S s       :     5.186859  s :     5.186859
      pz      :     3.295537  p :     9.889767
      px      :     3.264086
      py      :     3.330144
      dz2     :     0.087079  d :     0.489071
      dxz     :     0.102851
      dyz     :     0.101819
      dx2y2   :     0.092644
      dxy     :     0.104678
      f0      :     0.002767  f :     0.022877
      f+1     :     0.004764
      f-1     :     0.002271
      f+2     :     0.004488
      f-2     :     0.004612
      f+3     :     0.001922
      f-3     :     0.002052
  6 C s       :     2.748162  s :     2.748162
      pz      :     0.994083  p :     2.831696
      px      :     0.960173
      py      :     0.877440
      dz2     :     0.244556  d :     0.928885
      dxz     :     0.217509
      dyz     :     0.091046
      dx2y2   :     0.185618
      dxy     :     0.190155
      f0      :     0.007616  f :     0.039861
      f+1     :     0.008017
      f-1     :     0.002858
      f+2     :     0.005788
      f-2     :     0.006745
      f+3     :     0.004174
      f-3     :     0.004663
  7 S s       :     5.087410  s :     5.087410
      pz      :     3.337895  p :     9.658260
      px      :     3.087239
      py      :     3.233127
      dz2     :     0.109339  d :     0.603692
      dxz     :     0.161601
      dyz     :     0.088602
      dx2y2   :     0.114571
      dxy     :     0.129580
      f0      :     0.005816  f :     0.032100
      f+1     :     0.006572
      f-1     :     0.003582
      f+2     :     0.002214
      f-2     :     0.003125
      f+3     :     0.005718
      f-3     :     0.005074
  8 C s       :     2.751135  s :     2.751135
      pz      :     1.019446  p :     2.790372
      px      :     0.964859
      py      :     0.806066
      dz2     :     0.334993  d :     1.001085
      dxz     :     0.263188
      dyz     :     0.243404
      dx2y2   :     0.085216
      dxy     :     0.074283
      f0      :     0.009943  f :     0.041841
      f+1     :     0.009490
      f-1     :     0.004967
      f+2     :     0.006672
      f-2     :     0.006684
      f+3     :     0.001455
      f-3     :     0.002629
  9 S s       :     5.141655  s :     5.141655
      pz      :     3.127913  p :     9.799573
      px      :     3.345109
      py      :     3.326551
      dz2     :     0.135061  d :     0.529827
      dxz     :     0.148714
      dyz     :     0.100035
      dx2y2   :     0.077518
      dxy     :     0.068499
      f0      :     0.009079  f :     0.027360
      f+1     :     0.007290
      f-1     :     0.005466
      f+2     :     0.001863
      f-2     :     0.001763
      f+3     :     0.000939
      f-3     :     0.000959
 10 C s       :     2.754699  s :     2.754699
      pz      :     1.017747  p :     2.806457
      px      :     0.886892
      py      :     0.901818
      dz2     :     0.218353  d :     0.981512
      dxz     :     0.171423
      dyz     :     0.205524
      dx2y2   :     0.217622
      dxy     :     0.168591
      f0      :     0.009229  f :     0.040180
      f+1     :     0.005558
      f-1     :     0.005920
      f+2     :     0.004035
      f-2     :     0.007285
      f+3     :     0.004059
      f-3     :     0.004094
 11 S s       :     5.163698  s :     5.163698
      pz      :     3.350748  p :     9.878730
      px      :     3.311840
      py      :     3.216141
      dz2     :     0.093418  d :     0.495963
      dxz     :     0.088269
      dyz     :     0.097979
      dx2y2   :     0.095727
      dxy     :     0.120570
      f0      :     0.004062  f :     0.025491
      f+1     :     0.002906
      f-1     :     0.003190
      f+2     :     0.000324
      f-2     :     0.003884
      f+3     :     0.005621
      f-3     :     0.005504
 12 C s       :     2.751418  s :     2.751418
      pz      :     0.998497  p :     2.805730
      px      :     0.912666
      py      :     0.894567
      dz2     :     0.319554  d :     0.946459
      dxz     :     0.253039
      dyz     :     0.211153
      dx2y2   :     0.055500
      dxy     :     0.107214
      f0      :     0.010756  f :     0.039793
      f+1     :     0.006874
      f-1     :     0.006317
      f+2     :     0.006587
      f-2     :     0.005838
      f+3     :     0.001057
      f-3     :     0.002364
 13 S s       :     5.141612  s :     5.141612
      pz      :     3.206014  p :     9.815677
      px      :     3.327883
      py      :     3.281781
      dz2     :     0.111105  d :     0.494628
      dxz     :     0.103315
      dyz     :     0.130805
      dx2y2   :     0.073540
      dxy     :     0.075863
      f0      :     0.005947  f :     0.027251
      f+1     :     0.005897
      f-1     :     0.005134
      f+2     :     0.003390
      f-2     :     0.003727
      f+3     :     0.001776
      f-3     :     0.001379
 14 W s       :     2.012658  s :     2.012658
      pz      :     2.242343  p :     6.669988
      px      :     2.202623
      py      :     2.225022
      dz2     :     0.946990  d :     4.543862
      dxz     :     1.067849
      dyz     :     0.893096
      dx2y2   :     0.727256
      dxy     :     0.908670
      f0      :     0.106202  f :     0.574580
      f+1     :     0.081251
      f-1     :     0.082242
      f+2     :     0.030515
      f-2     :     0.059736
      f+3     :     0.115529
      f-3     :     0.099105
      g0      :     0.009321  g :     0.051329
      g+1     :     0.005559
      g-1     :     0.005607
      g+2     :     0.002849
      g-2     :     0.006279
      g+3     :     0.002363
      g-3     :     0.003865
      g+4     :     0.007897
      g-4     :     0.007589
 15 O s       :     3.190718  s :     3.190718
      pz      :     1.417433  p :     4.351531
      px      :     1.458762
      py      :     1.475337
      dz2     :     0.005773  d :     0.085312
      dxz     :     0.020702
      dyz     :     0.020985
      dx2y2   :     0.027806
      dxy     :     0.010046
      f0      :     0.000476  f :     0.003045
      f+1     :     0.000313
      f-1     :     0.000142
      f+2     :     0.000932
      f-2     :     0.000384
      f+3     :     0.000344
      f-3     :     0.000454
 16 C s       :     2.733180  s :     2.733180
      pz      :     1.041995  p :     2.682077
      px      :     0.848669
      py      :     0.791413
      dz2     :     0.209466  d :     0.750844
      dxz     :     0.224716
      dyz     :     0.141014
      dx2y2   :     0.090303
      dxy     :     0.085346
      f0      :     0.010539  f :     0.039253
      f+1     :     0.013179
      f-1     :     0.008934
      f+2     :     0.000650
      f-2     :     0.002718
      f+3     :     0.000917
      f-3     :     0.002316
 17 C s       :     2.737049  s :     2.737049
      pz      :     1.045115  p :     2.627861
      px      :     0.822508
      py      :     0.760238
      dz2     :     0.187914  d :     0.764908
      dxz     :     0.204193
      dyz     :     0.156558
      dx2y2   :     0.097082
      dxy     :     0.119162
      f0      :     0.009627  f :     0.040182
      f+1     :     0.013012
      f-1     :     0.009639
      f+2     :     0.000637
      f-2     :     0.002853
      f+3     :     0.001307
      f-3     :     0.003107
 18 H s       :     0.707317  s :     0.707317
      pz      :     0.103893  p :     0.289795
      px      :     0.091595
      py      :     0.094306
      dz2     :     0.008308  d :     0.029115
      dxz     :     0.005691
      dyz     :     0.006079
      dx2y2   :     0.005256
      dxy     :     0.003782
 19 H s       :     0.707081  s :     0.707081
      pz      :     0.081771  p :     0.297126
      px      :     0.084412
      py      :     0.130943
      dz2     :     0.002799  d :     0.029864
      dxz     :     0.000631
      dyz     :     0.009447
      dx2y2   :     0.008409
      dxy     :     0.008578
 20 H s       :     0.724154  s :     0.724154
      pz      :     0.135088  p :     0.331462
      px      :     0.099521
      py      :     0.096853
      dz2     :     0.008872  d :     0.029895
      dxz     :     0.007130
      dyz     :     0.006760
      dx2y2   :     0.003124
      dxy     :     0.004009
 21 H s       :     0.702475  s :     0.702475
      pz      :     0.109928  p :     0.419269
      px      :     0.115587
      py      :     0.193754
      dz2     :     0.003595  d :     0.031534
      dxz     :     0.004194
      dyz     :     0.007042
      dx2y2   :     0.008319
      dxy     :     0.008383
 22 H s       :     0.565387  s :     0.565387
      pz      :     0.172948  p :     0.628840
      px      :     0.141131
      py      :     0.314762
      dz2     :     0.019628  d :     0.092356
      dxz     :     0.008902
      dyz     :     0.023312
      dx2y2   :     0.020057
      dxy     :     0.020457
 23 H s       :     0.635316  s :     0.635316
      pz      :     0.163066  p :     0.494381
      px      :     0.197740
      py      :     0.133576
      dz2     :     0.024086  d :     0.095039
      dxz     :     0.021734
      dyz     :     0.013362
      dx2y2   :     0.017517
      dxy     :     0.018339
 24 H s       :     0.723805  s :     0.723805
      pz      :     0.116143  p :     0.297097
      px      :     0.100913
      py      :     0.080041
      dz2     :     0.009712  d :     0.029321
      dxz     :     0.008270
      dyz     :     0.006759
      dx2y2   :     0.001914
      dxy     :     0.002665
 25 H s       :     0.700152  s :     0.700152
      pz      :     0.106629  p :     0.315533
      px      :     0.117734
      py      :     0.091170
      dz2     :     0.008767  d :     0.028978
      dxz     :     0.007114
      dyz     :     0.005729
      dx2y2   :     0.002746
      dxy     :     0.004622
 26 H s       :     0.734921  s :     0.734921
      pz      :     0.119319  p :     0.316582
      px      :     0.096286
      py      :     0.100977
      dz2     :     0.009257  d :     0.029835
      dxz     :     0.008062
      dyz     :     0.008414
      dx2y2   :     0.001898
      dxy     :     0.002203
 27 H s       :     0.726384  s :     0.726384
      pz      :     0.080627  p :     0.313441
      px      :     0.122278
      py      :     0.110536
      dz2     :     0.003026  d :     0.030007
      dxz     :     0.005348
      dyz     :     0.003578
      dx2y2   :     0.009313
      dxy     :     0.008743
 28 H s       :     0.735662  s :     0.735662
      pz      :     0.092462  p :     0.322822
      px      :     0.115639
      py      :     0.114720
      dz2     :     0.003893  d :     0.029678
      dxz     :     0.004822
      dyz     :     0.004831
      dx2y2   :     0.008696
      dxy     :     0.007437
 29 H s       :     0.734563  s :     0.734563
      pz      :     0.129530  p :     0.319648
      px      :     0.091657
      py      :     0.098462
      dz2     :     0.010313  d :     0.030183
      dxz     :     0.009058
      dyz     :     0.009284
      dx2y2   :     0.000768
      dxy     :     0.000760
 30 H s       :     0.733066  s :     0.733066
      pz      :     0.091743  p :     0.311587
      px      :     0.128688
      py      :     0.091156
      dz2     :     0.003250  d :     0.029629
      dxz     :     0.008757
      dyz     :     0.001335
      dx2y2   :     0.008138
      dxy     :     0.008150
 31 H s       :     0.715496  s :     0.715496
      pz      :     0.079823  p :     0.290764
      px      :     0.129129
      py      :     0.081813
      dz2     :     0.002686  d :     0.029114
      dxz     :     0.009504
      dyz     :     0.000188
      dx2y2   :     0.007815
      dxy     :     0.008922


                      *****************************
                      * MAYER POPULATION ANALYSIS *
                      *****************************

  NA   - Mulliken gross atomic population
  ZA   - Total nuclear charge
  QA   - Mulliken gross atomic charge
  VA   - Mayer's total valence
  BVA  - Mayer's bonded valence
  FA   - Mayer's free valence

  ATOM       NA         ZA         QA         VA         BVA        FA
  0 C      6.1253     6.0000    -0.1253     3.9386     3.9386    -0.0000
  1 C      5.6405     6.0000     0.3595     4.0983     4.0983     0.0000
  2 O      8.7078     8.0000    -0.7078     1.6128     1.6128     0.0000
  3 O      8.5888     8.0000    -0.5888     1.5889     1.5889     0.0000
  4 C      5.8111     6.0000     0.1889     3.6257     3.6257     0.0000
  5 S     16.5106    16.0000    -0.5106     1.9426     1.9426     0.0000
  6 C      5.7382     6.0000     0.2618     3.4328     3.4328    -0.0000
  7 S     16.3633    16.0000    -0.3633     2.2769     2.2769     0.0000
  8 C      5.8635     6.0000     0.1365     3.7241     3.7241     0.0000
  9 S     16.4523    16.0000    -0.4523     2.0512     2.0512     0.0000
 10 C      5.7885     6.0000     0.2115     3.6060     3.6060    -0.0000
 11 S     16.4737    16.0000    -0.4737     1.9788     1.9788    -0.0000
 12 C      5.7287     6.0000     0.2713     3.4644     3.4644     0.0000
 13 S     16.4383    16.0000    -0.4383     2.1213     2.1213    -0.0000
 14 W     13.9573    14.0000     0.0427     7.7684     7.7684     0.0000
 15 O      8.4882     8.0000    -0.4882     1.8922     1.8922    -0.0000
 16 C      5.6407     6.0000     0.3593     3.1490     3.1490     0.0000
 17 C      5.5060     6.0000     0.4940     3.4008     3.4008     0.0000
 18 H      0.9989     1.0000     0.0011     1.1016     1.1016    -0.0000
 19 H      0.9438     1.0000     0.0562     1.0775     1.0775    -0.0000
 20 H      0.9833     1.0000     0.0167     1.0957     1.0957     0.0000
 21 H      1.0631     1.0000    -0.0631     1.2223     1.2223     0.0000
 22 H      0.6603     1.0000     0.3397     0.8799     0.8799     0.0000
 23 H      0.8682     1.0000     0.1318     1.0836     1.0836     0.0000
 24 H      1.1178     1.0000    -0.1178     0.9441     0.9441    -0.0000
 25 H      1.2238     1.0000    -0.2238     1.0193     1.0193     0.0000
 26 H      1.1021     1.0000    -0.1021     0.9974     0.9974    -0.0000
 27 H      1.0903     1.0000    -0.0903     0.9878     0.9878    -0.0000
 28 H      0.9681     1.0000     0.0319     1.0548     1.0548     0.0000
 29 H      1.0884     1.0000    -0.0884     1.0031     1.0031    -0.0000
 30 H      1.1002     1.0000    -0.1002     1.0107     1.0107     0.0000
 31 H      0.9688     1.0000     0.0312     1.1081     1.1081    -0.0000

  Mayer bond orders larger than 0.100000
B(  0-C ,  1-C ) :   0.9018 B(  0-C , 18-H ) :   1.0195 B(  0-C , 19-H ) :   0.9910 
B(  0-C , 31-H ) :   1.0187 B(  1-C ,  2-O ) :   1.5896 B(  1-C ,  3-O ) :   1.5969 
B(  4-C ,  5-S ) :   0.7859 B(  4-C ,  9-S ) :  -0.1149 B(  4-C , 20-H ) :   1.0026 
B(  4-C , 21-H ) :   0.9344 B(  4-C , 28-H ) :   0.9995 B(  5-S , 14-W ) :   1.0460 
B(  5-S , 16-C ) :  -0.1320 B(  6-C ,  7-S ) :   0.9395 B(  6-C ,  8-C ) :   1.4609 
B(  6-C , 29-H ) :   1.1345 B(  6-C , 30-H ) :  -0.1400 B(  7-S , 14-W ) :   1.2177 
B(  8-C ,  9-S ) :   1.0833 B(  8-C , 29-H ) :  -0.1056 B(  8-C , 30-H ) :   1.1655 
B(  9-S , 14-W ) :   0.8874 B( 10-C , 11-S ) :   1.0338 B( 10-C , 12-C ) :   1.4911 
B( 10-C , 26-H ) :   1.1397 B( 10-C , 27-H ) :  -0.1372 B( 11-S , 14-W ) :   0.9771 
B( 11-S , 17-C ) :  -0.1104 B( 12-C , 13-S ) :   0.9286 B( 12-C , 26-H ) :  -0.1135 
B( 12-C , 27-H ) :   1.1617 B( 13-S , 14-W ) :   1.1809 B( 13-S , 16-C ) :  -0.1058 
B( 14-W , 16-C ) :   1.0296 B( 14-W , 17-C ) :   1.1109 B( 15-O , 22-H ) :   0.8467 
B( 15-O , 23-H ) :   1.0539 B( 16-C , 17-C ) :   1.5018 B( 16-C , 24-H ) :   0.9971 
B( 17-C , 25-H ) :   0.9849 

-------
TIMINGS
-------

Total SCF time: 0 days 0 hours 22 min 33 sec 

Total time                  ....    1353.388 sec
Sum of individual times     ....    1351.423 sec  ( 99.9%)

Fock matrix formation       ....    1341.156 sec  ( 99.1%)
  XC integration            ....       9.456 sec  (  0.7% of F)
    Basis function eval.    ....       1.692 sec  ( 17.9% of XC)
    Density eval.           ....       3.314 sec  ( 35.0% of XC)
    XC-Functional eval.     ....       0.162 sec  (  1.7% of XC)
    XC-Potential eval.      ....       2.968 sec  ( 31.4% of XC)
Diagonalization             ....       3.344 sec  (  0.2%)
Density matrix formation    ....       0.172 sec  (  0.0%)
Population analysis         ....       0.262 sec  (  0.0%)
Initial guess               ....       2.273 sec  (  0.2%)
Orbital Transformation      ....       0.000 sec  (  0.0%)
Orbital Orthonormalization  ....       0.000 sec  (  0.0%)
DIIS solution               ....       3.228 sec  (  0.2%)
Grid generation             ....       0.987 sec  (  0.1%)

-------------------------   --------------------
FINAL SINGLE POINT ENERGY     -2635.057199356398
-------------------------   --------------------


                            ***************************************
                            *     ORCA property calculations      *
                            ***************************************

                                    ---------------------
                                    Active property flags
                                    ---------------------
   (+) Dipole Moment


------------------------------------------------------------------------------
                       ORCA ELECTRIC PROPERTIES CALCULATION
------------------------------------------------------------------------------

Dipole Moment Calculation                       ... on
Quadrupole Moment Calculation                   ... off
Polarizability Calculation                      ... off
GBWName                                         ... TMB06_C1.gbw
Electron density file                           ... TMB06_C1.scfp
The origin for moment calculation is the CENTER OF MASS  = ( 0.124163, -0.024989 -0.035323)

-------------
DIPOLE MOMENT
-------------
                                X             Y             Z
Electronic contribution:     92.90520       4.39958     -11.76050
Nuclear contribution   :    -89.05733      -3.76163      13.00017
                        -----------------------------------------
Total Dipole Moment    :      3.84788       0.63795       1.23966
                        -----------------------------------------
Magnitude (a.u.)       :      4.09266
Magnitude (Debye)      :     10.40272



--------------------
Rotational spectrum 
--------------------
 
Rotational constants in cm-1:     0.010716     0.005373     0.005252 
Rotational constants in MHz :   321.254043   161.065395   157.440366 

 Dipole components along the rotational axes: 
x,y,z [a.u.] :     3.851649     0.505822     1.287954 
x,y,z [Debye]:     9.790113     1.285699     3.273719 

 

Timings for individual modules:

Sum of individual times         ...     1359.084 sec (=  22.651 min)
GTO integral calculation        ...        5.269 sec (=   0.088 min)   0.4 %
SCF iterations                  ...     1353.816 sec (=  22.564 min)  99.6 %
                             ****ORCA TERMINATED NORMALLY****
TOTAL RUN TIME: 0 days 0 hours 22 minutes 39 seconds 743 msec
