
                                 *****************
                                 * O   R   C   A *
                                 *****************

           --- An Ab Initio, DFT and Semiempirical electronic structure package ---

                  #######################################################
                  #                        -***-                        #
                  #          Department of theory and spectroscopy      #
                  #               Directorship: Frank Neese             #
                  #        Max Planck Institute fuer Kohlenforschung    #
                  #                Kaiser Wilhelm Platz 1               #
                  #                 D-45470 Muelheim/Ruhr               #
                  #                      Germany                        #
                  #                                                     #
                  #                  All rights reserved                #
                  #                        -***-                        #
                  #######################################################


                         Program Version 4.2.0 -  RELEASE  -


 With contributions from (in alphabetic order):
   Daniel Aravena         : Magnetic Suceptibility
   Michael Atanasov       : Ab Initio Ligand Field Theory (pilot matlab implementation)
   Alexander A. Auer      : GIAO ZORA, VPT2
   Ute Becker             : Parallelization
   Giovanni Bistoni       : ED, misc. LED, open-shell LED, HFLED
   Martin Brehm           : Molecular dynamics
   Dmytro Bykov           : SCF Hessian
   Vijay G. Chilkuri      : MRCI spin determinant printing, contributions to CSF-ICE
   Dipayan Datta          : RHF DLPNO-CCSD density
   Achintya Kumar Dutta   : EOM-CC, STEOM-CC
   Dmitry Ganyushin       : Spin-Orbit,Spin-Spin,Magnetic field MRCI
   Miquel Garcia          : C-PCM Hessian, Gaussian charge scheme
   Yang Guo               : DLPNO-NEVPT2, CIM, IAO-localization
   Andreas Hansen         : Spin unrestricted coupled pair/coupled cluster methods
   Benjamin Helmich-Paris : CASSCF linear response (MC-RPA)
   Lee Huntington         : MR-EOM, pCC
   Robert Izsak           : Overlap fitted RIJCOSX, COSX-SCS-MP3, EOM
   Christian Kollmar      : KDIIS, OOCD, Brueckner-CCSD(T), CCSD density
   Simone Kossmann        : Meta GGA functionals, TD-DFT gradient, OOMP2, MP2 Hessian
   Martin Krupicka        : AUTO-CI
   Lucas Lang             : DCDCAS
   Dagmar Lenk            : GEPOL surface, SMD
   Dimitrios Liakos       : Extrapolation schemes; Compound Job, initial MDCI parallelization
   Dimitrios Manganas     : Further ROCIS development; embedding schemes
   Dimitrios Pantazis     : SARC Basis sets
   Taras Petrenko         : DFT Hessian,TD-DFT gradient, ASA, ECA, R-Raman, ABS, FL, XAS/XES, NRVS
   Peter Pinski           : DLPNO-MP2, DLPNO-MP2 Gradient
   Christoph Reimann      : Effective Core Potentials
   Marius Retegan         : Local ZFS, SOC
   Christoph Riplinger    : Optimizer, TS searches, QM/MM, DLPNO-CCSD(T), (RO)-DLPNO pert. Triples
   Tobias Risthaus        : Range-separated hybrids, TD-DFT gradient, RPA, STAB
   Michael Roemelt        : Original ROCIS implementation
   Masaaki Saitow         : Open-shell DLPNO-CCSD energy and density
   Barbara Sandhoefer     : DKH picture change effects
   Avijit Sen             : IP-ROCIS
   Kantharuban Sivalingam : CASSCF convergence, NEVPT2, FIC-MRCI
   Bernardo de Souza      : ESD, SOC TD-DFT
   Georgi Stoychev        : AutoAux, RI-MP2 NMR
   Willem Van den Heuvel  : Paramagnetic NMR
   Boris Wezisla          : Elementary symmetry handling
   Frank Wennmohs         : Technical directorship


 We gratefully acknowledge several colleagues who have allowed us to
 interface, adapt or use parts of their codes:
   Stefan Grimme, W. Hujo, H. Kruse,             : VdW corrections, initial TS optimization,
                  C. Bannwarth                     DFT functionals, gCP, sTDA/sTD-DF
   Ed Valeev, F. Pavosevic, A. Kumar             : LibInt (2-el integral package), F12 methods
   Garnet Chan, S. Sharma, J. Yang, R. Olivares  : DMRG
   Ulf Ekstrom                                   : XCFun DFT Library
   Mihaly Kallay                                 : mrcc  (arbitrary order and MRCC methods)
   Andreas Klamt, Michael Diedenhofen            : otool_cosmo (COSMO solvation model)
   Jiri Pittner, Ondrej Demel                    : Mk-CCSD
   Frank Weinhold                                : gennbo (NPA and NBO analysis)
   Christopher J. Cramer and Donald G. Truhlar   : smd solvation model
   Lars Goerigk                                  : TD-DFT with DH, B97 family of functionals
   V. Asgeirsson, H. Jonsson                     : NEB implementation
   FAccTs GmbH                                   : IRC, NEB, NEB-TS, Multilevel, MM, QM/MM, CI optimization
   S Lehtola, MJT Oliveira, MAL Marques          : LibXC Library


 Your calculation uses the libint2 library for the computation of 2-el integrals
 For citations please refer to: http://libint.valeyev.net

 Your ORCA version has been built with support for libXC version: 4.2.3
 For citations please refer to: https://tddft.org/programs/libxc/

 This ORCA versions uses:
   CBLAS   interface :  Fast vector & matrix operations
   LAPACKE interface :  Fast linear algebra routines
   SCALAPACK package :  Parallel linear algebra routines


Your calculation utilizes the DFT-NL dispersion correction.
Cite in your paper:
Vydrov, O. A.; Van Voorhis, T. J. Chem. Phys. 2010, 133, 244103
Hujo, W.; Grimme, S. J. Chem. Theory Comput. 2011, 7, 3866 
   

----- Orbital basis set information -----
Your calculation utilizes the basis: def2-TZVPPD
   F. Weigend and R. Ahlrichs, Phys. Chem. Chem. Phys. 7, 3297 (2005).
   D. Rappoport and F. Furche, J. Chem. Phys. 133 134105 (2010).

----- AuxJK basis set information -----
Your calculation utilizes the auxiliary basis: def2/JK
   H-Ba, Hf-Rn: F. Weigend, J. Comput. Chem. 29, 167 (2008).

cite the ECPs for Zr [Def2-ECP] as follows:
Ce-Yb(ecp-28): M. Dolg, H. Stoll, H.Preuss, J. Chem. Phys., 1989, 90, 1730-1734.
Y-Cd(ecp-28), Hf-Hg(ecp-46): D. Andrae,U. Haeussermann, M. Dolg, H. Stoll, H. Preuss, Theor. Chim. Acta, 1990, 77, 123-141.
In-Sb(ecp-28), Tl-Bi(ecp-46): B. Metz, H. Stoll, M. Dolg, J. Chem. Phys., 2000, 113, 2563-2569.
Te-Xe(ecp-28), Po-Rn(ecp-46): K. A. Peterson, D. Figgen, E. Goll, H. Stoll, M. Dolg, J. Chem. Phys., 2003, 119, 11113-11123.
Rb(ecp-28), Cs(ecp-46): T. Leininger, A. Nicklass, W. Kuechle, H. Stoll, M. Dolg, A. Bergner, Chem. Phys. Lett., 1996, 255, 274-280.
Sr(ecp-28), Ba(ecp-46): M. Kaupp, P. V. Schleyer, H. Stoll and H. Preuss, J. Chem. Phys., 1991, 94, 1360-1366.
La(ecp-46): M. Dolg, H. Stoll, A. Savin, H. Preuss, Theor. Chim. Acta, 1989, 75, 173-194.
Lu(ecp-28): X. Cao, M. Dolg, J. Chem. Phys., 2001, 115, 7348-7355.

ECP parameters for Zr [Def2-ECP] have been obtained from:
TURBOMOLE (7.0.2)

================================================================================
                                        WARNINGS
                       Please study these warnings very carefully!
================================================================================


INFO   : the flag for use of LIBINT has been found!

================================================================================
                                       INPUT FILE
================================================================================
NAME = TMB01_T1.in
|  1> #
|  2> # TMB01_T1 wB97X-V/Def2-TZVPPD
|  3> #
|  4> ! wb97x-v def2-tzvppd def2/jk grid4 nofinalgrid
|  5> 
|  6> *xyz 0 1
|  7> Zr       0.019829   -0.026802    0.120636 
|  8> C        2.239874   -0.374444    1.245397 
|  9> C        1.976783   -1.521588    0.474285 
| 10> C        2.416443    0.711808    0.354001 
| 11> H        1.819060   -2.516470    0.858019 
| 12> C        2.001810   -1.148643   -0.895658 
| 13> H        2.608112    1.737773    0.630719 
| 14> C        2.298913    0.223349   -0.961356 
| 15> H        1.861573   -1.806504   -1.739184 
| 16> H        2.356666    0.814844   -1.859655 
| 17> C       -1.057190   -2.235373    0.523484 
| 18> C       -1.856346   -1.294393    1.201077 
| 19> C       -1.167009   -1.987955   -0.868757 
| 20> H       -2.005770   -1.236737    2.266001 
| 21> C       -2.451652   -0.457501    0.227470 
| 22> H       -0.689853   -2.550694   -1.656100 
| 23> C       -2.043033   -0.903228   -1.046149 
| 24> H       -3.108339    0.375352    0.426641 
| 25> H       -2.305042   -0.449162   -1.987488 
| 26> Cl      -0.345437    1.661478   -1.736503 
| 27> C       -1.133945    2.698822    1.012771 
| 28> C       -0.495222    2.377308    1.980322 
| 29> H       -1.676629    3.004729    0.150271 
| 30> H       -0.029188    0.104247    1.943645 
| 31> H        0.041631    2.180985    2.876056 
| 32> H        2.316195   -0.336400    2.319120 
| 33> H       -0.485725   -3.023975    0.985751 
| 34> *
| 35> 
| 36> %maxcore 5000
| 37> 
| 38> %pal
| 39> nprocs = 24
| 40> end
| 41> 
| 42> 
| 43>                          ****END OF INPUT****
================================================================================

                       ****************************
                       * Single Point Calculation *
                       ****************************

---------------------------------
CARTESIAN COORDINATES (ANGSTROEM)
---------------------------------
  Zr     0.019829   -0.026802    0.120636
  C      2.239874   -0.374444    1.245397
  C      1.976783   -1.521588    0.474285
  C      2.416443    0.711808    0.354001
  H      1.819060   -2.516470    0.858019
  C      2.001810   -1.148643   -0.895658
  H      2.608112    1.737773    0.630719
  C      2.298913    0.223349   -0.961356
  H      1.861573   -1.806504   -1.739184
  H      2.356666    0.814844   -1.859655
  C     -1.057190   -2.235373    0.523484
  C     -1.856346   -1.294393    1.201077
  C     -1.167009   -1.987955   -0.868757
  H     -2.005770   -1.236737    2.266001
  C     -2.451652   -0.457501    0.227470
  H     -0.689853   -2.550694   -1.656100
  C     -2.043033   -0.903228   -1.046149
  H     -3.108339    0.375352    0.426641
  H     -2.305042   -0.449162   -1.987488
  Cl    -0.345437    1.661478   -1.736503
  C     -1.133945    2.698822    1.012771
  C     -0.495222    2.377308    1.980322
  H     -1.676629    3.004729    0.150271
  H     -0.029188    0.104247    1.943645
  H      0.041631    2.180985    2.876056
  H      2.316195   -0.336400    2.319120
  H     -0.485725   -3.023975    0.985751

----------------------------
CARTESIAN COORDINATES (A.U.)
----------------------------
  NO LB      ZA    FRAG     MASS         X           Y           Z
   0 Zr   12.0000*   0    91.220    0.037471   -0.050648    0.227969
   1 C     6.0000    0    12.011    4.232748   -0.707597    2.353459
   2 C     6.0000    0    12.011    3.735578   -2.875385    0.896269
   3 C     6.0000    0    12.011    4.566415    1.345122    0.668965
   4 H     1.0000    0     1.008    3.437525   -4.755439    1.621421
   5 C     6.0000    0    12.011    3.782873   -2.170621   -1.692548
   6 H     1.0000    0     1.008    4.928617    3.283915    1.191886
   7 C     6.0000    0    12.011    4.344316    0.422068   -1.816700
   8 H     1.0000    0     1.008    3.517863   -3.413798   -3.286581
   9 H     1.0000    0     1.008    4.453453    1.539832   -3.514239
  10 C     6.0000    0    12.011   -1.997800   -4.224243    0.989241
  11 C     6.0000    0    12.011   -3.507986   -2.446048    2.269707
  12 C     6.0000    0    12.011   -2.205327   -3.756691   -1.641713
  13 H     1.0000    0     1.008   -3.790356   -2.337094    4.282121
  14 C     6.0000    0    12.011   -4.632951   -0.864552    0.429856
  15 H     1.0000    0     1.008   -1.303633   -4.820113   -3.129575
  16 C     6.0000    0    12.011   -3.860773   -1.706854   -1.976935
  17 H     1.0000    0     1.008   -5.873909    0.709312    0.806235
  18 H     1.0000    0     1.008   -4.355898   -0.848793   -3.755808
  19 Cl   17.0000    0    35.453   -0.652781    3.139738   -3.281515
  20 C     6.0000    0    12.011   -2.142846    5.100034    1.913860
  21 C     6.0000    0    12.011   -0.935834    4.492461    3.742266
  22 H     1.0000    0     1.008   -3.168370    5.678115    0.283971
  23 H     1.0000    0     1.008   -0.055157    0.196998    3.672957
  24 H     1.0000    0     1.008    0.078671    4.121464    5.434958
  25 H     1.0000    0     1.008    4.376974   -0.635704    4.382502
  26 H     1.0000    0     1.008   -0.917887   -5.714485    1.862799
* core charge reduced due to ECP

--------------------------------
INTERNAL COORDINATES (ANGSTROEM)
--------------------------------
 Zr     0   0   0     0.000000000000     0.00000000     0.00000000
 C      1   0   0     2.512875259401     0.00000000     0.00000000
 C      2   1   0     1.407042979998    72.68031406     0.00000000
 C      2   1   3     1.416229800591    73.87765652   114.91571753
 H      3   2   1     1.077923244674   125.78464896   244.62833864
 C      3   2   1     1.420020474149   108.13719368    66.62737094
 H      4   2   1     1.079774994297   126.12918862   113.05062749
 C      6   3   2     1.405328597829   107.77200450     0.81029657
 H      6   3   2     1.078880727498   126.28808870   178.34688657
 H      8   6   3     1.077099270000   125.90571372   182.21056556
 C      1   2   3     2.489988413528   100.77837645    45.29771273
 C     11   1   2     1.408270551558    74.37353707   116.95224339
 C     11   1   2     1.418312688220    73.73672681   231.71533529
 H     12  11   1     1.076900585889   126.17930871   244.75507830
 C     12  11   1     1.415163610241   107.62801305    66.06774805
 H     13  11   1     1.079009745139   126.23209166   114.31040517
 C     13  11   1     1.405531442113   107.86518666   292.48595059
 H     15  12  11     1.079143652541   125.83223214   181.08937309
 H     17  13  11     1.077471002560   125.94840995   177.61507022
 Cl     1   2   3     2.536271648400   123.16625043   249.69254847
 C     20   1   2     3.042422549134    66.58474268   263.34141593
 C     21  20   1     1.203118140719   119.86827267    35.81366664
 H     21  20   1     1.063950781994    59.84631683   213.87087256
 H      1   2   3     1.828370400321    65.62633322   123.26690636
 H     22  21  20     1.062588002329   174.57341787   151.45188446
 H      2   1   3     1.077104136890   120.25890068   237.88688808
 H     11   1   2     1.078033459554   119.27022567   354.43539919

---------------------------
INTERNAL COORDINATES (A.U.)
---------------------------
 Zr     0   0   0     0.000000000000     0.00000000     0.00000000
 C      1   0   0     4.748646048974     0.00000000     0.00000000
 C      2   1   0     2.658925890852    72.68031406     0.00000000
 C      2   1   3     2.676286465814    73.87765652   114.91571753
 H      3   2   1     2.036979725822   125.78464896   244.62833864
 C      3   2   1     2.683449800703   108.13719368    66.62737094
 H      4   2   1     2.040479025479   126.12918862   113.05062749
 C      6   3   2     2.655686178065   107.77200450     0.81029657
 H      6   3   2     2.038789106136   126.28808870   178.34688657
 H      8   6   3     2.035422639347   125.90571372   182.21056556
 C      1   2   3     4.705396178206   100.77837645    45.29771273
 C     11   1   2     2.661245664911    74.37353707   116.95224339
 C     11   1   2     2.680222553002    73.73672681   231.71533529
 H     12  11   1     2.035047180789   126.17930871   244.75507830
 C     12  11   1     2.674271658046   107.62801305    66.06774805
 H     13  11   1     2.039032914146   126.23209166   114.31040517
 C     13  11   1     2.656069498209   107.86518666   292.48595059
 H     15  12  11     2.039285962461   125.83223214   181.08937309
 H     17  13  11     2.036125112080   125.94840995   177.61507022
 Cl     1   2   3     4.792858816705   123.16625043   249.69254847
 C     20   1   2     5.749345401529    66.58474268   263.34141593
 C     21  20   1     2.273563792711   119.86827267    35.81366664
 H     21  20   1     2.010575597939    59.84631683   213.87087256
 H      1   2   3     3.455119327975    65.62633322   123.26690636
 H     22  21  20     2.008000317593   174.57341787   151.45188446
 H      2   1   3     2.035431836436   120.25890068   237.88688808
 H     11   1   2     2.037188001761   119.27022567   354.43539919

---------------------
BASIS SET INFORMATION
---------------------
There are 4 groups of distinct atoms

 Group   1 Type Zr  : 7s7p5d2f1g contracted to 6s4p3d2f1g pattern {211111/4111/311/11/1}
 Group   2 Type C   : 12s6p3d1f contracted to 6s3p3d1f pattern {621111/411/111/1}
 Group   3 Type H   : 5s3p1d contracted to 3s3p1d pattern {311/111/1}
 Group   4 Type Cl  : 15s10p4d1f contracted to 6s6p4d1f pattern {732111/511111/1111/1}

Atom   0Zr   basis set group =>   1
Atom   1C    basis set group =>   2
Atom   2C    basis set group =>   2
Atom   3C    basis set group =>   2
Atom   4H    basis set group =>   3
Atom   5C    basis set group =>   2
Atom   6H    basis set group =>   3
Atom   7C    basis set group =>   2
Atom   8H    basis set group =>   3
Atom   9H    basis set group =>   3
Atom  10C    basis set group =>   2
Atom  11C    basis set group =>   2
Atom  12C    basis set group =>   2
Atom  13H    basis set group =>   3
Atom  14C    basis set group =>   2
Atom  15H    basis set group =>   3
Atom  16C    basis set group =>   2
Atom  17H    basis set group =>   3
Atom  18H    basis set group =>   3
Atom  19Cl   basis set group =>   4
Atom  20C    basis set group =>   2
Atom  21C    basis set group =>   2
Atom  22H    basis set group =>   3
Atom  23H    basis set group =>   3
Atom  24H    basis set group =>   3
Atom  25H    basis set group =>   3
Atom  26H    basis set group =>   3
----------------------------------
AUXILIARY/JK BASIS SET INFORMATION
----------------------------------
There are 4 groups of distinct atoms

 Group   1 Type Zr  : 13s12p10d9f6g3h2i contracted to 11s10p9d8f6g3h2i pattern {31111111111/3111111111/211111111/21111111/111111/111/11}
 Group   2 Type C   : 14s10p6d2f1g contracted to 10s8p5d1f1g pattern {5111111111/31111111/21111/2/1}
 Group   3 Type H   : 4s2p2d contracted to 2s2p2d pattern {31/11/11}
 Group   4 Type Cl  : 16s12p10d4f1g contracted to 13s11p9d4f1g pattern {4111111111111/21111111111/211111111/1111/1}

Atom   0Zr   basis set group =>   1
Atom   1C    basis set group =>   2
Atom   2C    basis set group =>   2
Atom   3C    basis set group =>   2
Atom   4H    basis set group =>   3
Atom   5C    basis set group =>   2
Atom   6H    basis set group =>   3
Atom   7C    basis set group =>   2
Atom   8H    basis set group =>   3
Atom   9H    basis set group =>   3
Atom  10C    basis set group =>   2
Atom  11C    basis set group =>   2
Atom  12C    basis set group =>   2
Atom  13H    basis set group =>   3
Atom  14C    basis set group =>   2
Atom  15H    basis set group =>   3
Atom  16C    basis set group =>   2
Atom  17H    basis set group =>   3
Atom  18H    basis set group =>   3
Atom  19Cl   basis set group =>   4
Atom  20C    basis set group =>   2
Atom  21C    basis set group =>   2
Atom  22H    basis set group =>   3
Atom  23H    basis set group =>   3
Atom  24H    basis set group =>   3
Atom  25H    basis set group =>   3
Atom  26H    basis set group =>   3
-------------------------
ECP PARAMETER INFORMATION
-------------------------

 Group 1, Type Zr ECP Def2-ECP (replacing 28 core electrons, lmax=3)

Atom   0Zr   ECP group =>   1



           ************************************************************
           *        Program running with 24 parallel MPI-processes    *
           *              working on a common directory               *
           ************************************************************
------------------------------------------------------------------------------
                           ORCA GTO INTEGRAL CALCULATION
------------------------------------------------------------------------------

                         BASIS SET STATISTICS AND STARTUP INFO

 # of primitive gaussian shells          ...  433
 # of primitive gaussian functions       ... 1019
 # of contracted shells                  ...  280
 # of contracted basis functions         ...  772
 Highest angular momentum                ...    4
 Maximum contraction depth               ...    7
 Integral package used                   ... LIBINT
 Integral threshhold            Thresh   ...  1.000e-10
 Primitive cut-off              TCut     ...  1.000e-11


------------------------------ INTEGRAL EVALUATION ----------------------------


 * One electron integrals 

   ECP integrals                         ... done
 Pre-screening matrix                    ... done
 Shell pair data                         ... done (   0.010 sec)



           ************************************************************
           *        Program running with 24 parallel MPI-processes    *
           *              working on a common directory               *
           ************************************************************
-------------------------------------------------------------------------------
                                 ORCA SCF
-------------------------------------------------------------------------------

------------
SCF SETTINGS
------------
Hamiltonian:
 Density Functional     Method          .... DFT(GTOs)
 Exchange Functional    Exchange        .... WB97X-V
 Correlation Functional Correlation     .... WB97X-V
 Gradients option       PostSCFGGA      .... off
 Hybrid DFT is turned on
   Fraction HF Exchange ScalHFX         ....  0.167000
   Scaling of DF-GGA-X  ScalDFX         ....  0.000000
   Scaling of DF-GGA-C  ScalDFC         ....  1.000000
   Scaling of DF-LDA-C  ScalLDAC        ....  1.000000
   Perturbative correction              ....  0.000000
   Density functional embedding theory  .... OFF
 Long-range corrected/Screened/Range-Separated Hybrid DFT is turned on
   Amount of maximum screened exact exchange              ....  0.833000
   Range separation parameter mu (erf(mu*r12)/r12)        ....  0.300000
   NL short-range parameter             ....  6.000000
   NL long-range parameter              ....  0.010000


General Settings:
 Integral files         IntName         .... TMB01_T1
 Hartree-Fock type      HFTyp           .... RHF
 Total Charge           Charge          ....    0
 Multiplicity           Mult            ....    1
 Number of Electrons    NEL             ....  114
 Basis Dimension        Dim             ....  772
 Nuclear Repulsion      ENuc            ....   1051.2717291813 Eh

Convergence Acceleration:
 DIIS                   CNVDIIS         .... on
   Start iteration      DIISMaxIt       ....    12
   Startup error        DIISStart       ....  0.200000
   # of expansion vecs  DIISMaxEq       ....     5
   Bias factor          DIISBfac        ....   1.050
   Max. coefficient     DIISMaxC        ....  10.000
 Newton-Raphson         CNVNR           .... off
 SOSCF                  CNVSOSCF        .... off
 Level Shifting         CNVShift        .... on
   Level shift para.    LevelShift      ....    0.2500
   Turn off err/grad.   ShiftErr        ....    0.0010
 Zerner damping         CNVZerner       .... off
 Static damping         CNVDamp         .... on
   Fraction old density DampFac         ....    0.7000
   Max. Damping (<1)    DampMax         ....    0.9800
   Min. Damping (>=0)   DampMin         ....    0.0000
   Turn off err/grad.   DampErr         ....    0.1000
 Fernandez-Rico         CNVRico         .... off

SCF Procedure:
 Maximum # iterations   MaxIter         ....   125
 SCF integral mode      SCFMode         .... Direct
   Integral package                     .... LIBINT
 Reset frequency        DirectResetFreq ....    20
 Integral Threshold     Thresh          ....  1.000e-10 Eh
 Primitive CutOff       TCut            ....  1.000e-11 Eh

Convergence Tolerance:
 Convergence Check Mode ConvCheckMode   .... Total+1el-Energy
 Convergence forced     ConvForced      .... 0
 Energy Change          TolE            ....  1.000e-06 Eh
 1-El. energy change                    ....  1.000e-03 Eh
 DIIS Error             TolErr          ....  1.000e-06


Diagonalization of the overlap matrix:
Smallest eigenvalue                        ... 3.883e-07
Time for diagonalization                   ...    0.091 sec
Threshold for overlap eigenvalues          ... 1.000e-08
Number of eigenvalues below threshold      ... 0
Time for construction of square roots      ...    0.074 sec
Total time needed                          ...    0.168 sec

-------------------
DFT GRID GENERATION
-------------------

General Integration Accuracy     IntAcc      ...  4.670
Radial Grid Type                 RadialGrid  ... Gauss-Chebyshev
Angular Grid (max. acc.)         AngularGrid ... Lebedev-302
Angular grid pruning method      GridPruning ... 3 (G Style)
Weight generation scheme         WeightScheme... Becke
Basis function cutoff            BFCut       ...    1.0000e-10
Integration weight cutoff        WCut        ...    1.0000e-14
Grids for H and He will be reduced by one unit

# of grid points (after initial pruning)     ... 136086 (   0.0 sec)
# of grid points (after weights+screening)   ... 118837 (   0.1 sec)
nearest neighbour list constructed           ...    0.0 sec
Grid point re-assignment to atoms done       ...    0.0 sec
Grid point division into batches done        ...    0.4 sec
Reduced shell lists constructed in    0.5 sec

Total number of grid points                  ...   118837
Total number of batches                      ...     1870
Average number of points per batch           ...       63
Average number of grid points per atom       ...     4401
Average number of shells per batch           ...   212.41 (75.86%)
Average number of basis functions per batch  ...   614.05 (79.54%)
Average number of large shells per batch     ...   171.51 (80.74%)
Average number of large basis fcns per batch ...   482.87 (78.64%)
Maximum spatial batch extension              ...   1.82,  2.00,  1.97 au
Average spatial batch extension              ...   0.05,  0.05,  0.05 au

Time for grid setup =    0.613 sec

------------------------------
INITIAL GUESS: MODEL POTENTIAL
------------------------------
Loading Hartree-Fock densities                     ... done
  calling /sw/apps/orca/orca_4_2_0_linux_x86-64_openmpi314/orca TMB01_T1_atom40.inp > TMB01_T1_atom40.out in order to generate an atomic fitting density for atom 0 (Zr with ECP) on-the-fly... 
    atom 0 (Zr), assumed electronic state with S=3: 1s2 2s2 2p6 3s2 3p6 4s2 3d10 4p6 4d2 5s2           ... done
Calculating cut-offs                               ... done
Setting up the integral package                    ... done
Initializing the effective Hamiltonian             ... done
Starting the Coulomb interaction                   ... done (   0.1 sec)
Reading the grid                                   ... done
Mapping shells                                     ... done
Starting the XC term evaluation                    ... done (   0.4 sec)
  promolecular density results
     # of electrons  =    141.994799388
     EX              =   -149.987943950
     EC              =     -7.007678471
     EX+EC           =   -156.995622420
Transforming the Hamiltonian                       ... done (   0.1 sec)
Diagonalizing the Hamiltonian                      ... done (   0.1 sec)
Back transforming the eigenvectors                 ... done (   0.0 sec)
Now organizing SCF variables                       ... done
                      ------------------
                      INITIAL GUESS DONE (   3.2 sec)
                      ------------------
--------------
SCF ITERATIONS
--------------
ITER       Energy         Delta-E        Max-DP      RMS-DP      [F,P]     Damp
               ***  Starting incremental Fock matrix formation  ***
  0   -970.4440679407   0.000000000000 1.61634116  0.00632114  0.5602179 0.7000
  1   -971.6047323204  -1.160664379640 1.16408373  0.00454241  0.2654788 0.7000
                               ***Turning on DIIS***
  2   -972.0385182007  -0.433785880346 0.81127383  0.00310770  0.1396575 0.7000
  3   -972.2526475646  -0.214129363843 1.81687001  0.00692478  0.0853548 0.0000
  4   -972.7296976756  -0.477050111011 0.19046908  0.00168018  0.0866028 0.0000
  5   -972.7751629978  -0.045465322243 0.07844786  0.00076485  0.0240759 0.0000
  6   -972.7784825330  -0.003319535181 0.04544324  0.00035312  0.0104070 0.0000
  7   -972.7791386081  -0.000656075095 0.02641627  0.00018760  0.0042544 0.0000
  8   -972.7792800116  -0.000141403473 0.01713816  0.00011978  0.0023710 0.0000
  9   -972.7793262890  -0.000046277469 0.00931341  0.00009841  0.0009423 0.0000
 10   -972.7793407868  -0.000014497771 0.00691342  0.00004703  0.0003474 0.0000
 11   -972.7793418309  -0.000001044128 0.00607436  0.00005200  0.0001947 0.0000
                 **** Energy Check signals convergence ****

               *****************************************************
               *                     SUCCESS                       *
               *           SCF CONVERGED AFTER  12 CYCLES          *
               *****************************************************


Setting up the DFT-NL grid :

General Integration Accuracy     IntAcc      ...  4.340
Radial Grid Type                 RadialGrid  ... Gauss-Chebyshev
Angular Grid (max. acc.)         AngularGrid ... Lebedev-110
Angular grid pruning method      GridPruning ... 3 (G Style)
Weight generation scheme         WeightScheme... Becke
Basis function cutoff            BFCut       ...    1.0000e-10
Integration weight cutoff        WCut        ...    1.0000e-14
Grids for H and He will be reduced by one unit

# of grid points (after initial pruning)     ...  35318 (   0.0 sec)
# of grid points (after weights+screening)   ...  31419 (   0.0 sec)
nearest neighbour list constructed           ...    0.0 sec
Grid point re-assignment to atoms done       ...    0.0 sec
Grid point division into batches done        ...    0.0 sec
Reduced shell lists constructed in    0.1 sec

Total number of grid points                  ...    31419
Total number of batches                      ...      507
Average number of points per batch           ...       61
Average number of grid points per atom       ...     1164
Average number of shells per batch           ...   213.22 (76.15%)
Average number of basis functions per batch  ...   617.74 (80.02%)
Average number of large shells per batch     ...   174.04 (81.63%)
Average number of large basis fcns per batch ...   494.13 (79.99%)
Maximum spatial batch extension              ...   2.84,  2.34,  2.68 au
Average spatial batch extension              ...   0.08,  0.08,  0.08 au

Final grid set up in    0.1 sec

-------------------------------------------------------------------------------
                         DFT-NL dispersion correction                          
-------------------------------------------------------------------------------

SC Energy -972.779342029 
NL    Energy 0.414515669 
SC+NL Energy -972.364826360 
NL done in    0.3 sec
-------------------------------------------------------------------------------

----------------
TOTAL SCF ENERGY
----------------

Total Energy       :         -972.36482636 Eh          -26459.39209 eV

Components:
Nuclear Repulsion  :         1051.27172918 Eh           28606.55808 eV
Electronic Energy  :        -2023.63655554 Eh          -55065.95018 eV
One Electron Energy:        -3431.19894611 Eh          -93367.67004 eV
Two Electron Energy:         1407.56239057 Eh           38301.71987 eV

Virial components:
Potential Energy   :        -1910.48596059 Eh          -51986.96595 eV
Kinetic Energy     :          938.12113423 Eh           25527.57386 eV
Virial Ratio       :            2.03650242


DFT components:
N(Alpha)           :       57.000216986327 electrons
N(Beta)            :       57.000216986327 electrons
N(Total)           :      114.000433972654 electrons
E(X)               :      -68.180805294013 Eh       
E(C)               :       -4.858411894663 Eh       
NL Energy, E(C,NL) :        0.414515668572 Eh       
E(XC)              :      -72.624701520103 Eh       
DFET-embed. en.    :        0.000000000000 Eh       

---------------
SCF CONVERGENCE
---------------

  Last Energy change         ...   -1.9758e-07  Tolerance :   1.0000e-06
  Last MAX-Density change    ...    1.0766e-02  Tolerance :   1.0000e-05
  Last RMS-Density change    ...    5.5809e-05  Tolerance :   1.0000e-06
  Last DIIS Error            ...    4.1680e-05  Tolerance :   1.0000e-06

             **** THE GBW FILE WAS UPDATED (TMB01_T1.gbw) ****
             **** DENSITY FILE WAS UPDATED (TMB01_T1.scfp) ****
             **** ENERGY FILE WAS UPDATED (TMB01_T1.en.tmp) ****
             **** THE GBW FILE WAS UPDATED (TMB01_T1.gbw) ****
             **** DENSITY FILE WAS UPDATED (TMB01_T1.scfp) ****
----------------
ORBITAL ENERGIES
----------------

  NO   OCC          E(Eh)            E(eV) 
   0   2.0000    -101.439761     -2760.3162 
   1   2.0000     -10.295914      -280.1661 
   2   2.0000     -10.292037      -280.0606 
   3   2.0000     -10.291014      -280.0327 
   4   2.0000     -10.290952      -280.0310 
   5   2.0000     -10.288018      -279.9512 
   6   2.0000     -10.287395      -279.9343 
   7   2.0000     -10.286706      -279.9155 
   8   2.0000     -10.286602      -279.9127 
   9   2.0000     -10.286423      -279.9078 
  10   2.0000     -10.286064      -279.8980 
  11   2.0000     -10.283420      -279.8261 
  12   2.0000     -10.283288      -279.8225 
  13   2.0000      -9.481227      -257.9973 
  14   2.0000      -7.231746      -196.7858 
  15   2.0000      -7.229330      -196.7201 
  16   2.0000      -7.229091      -196.7136 
  17   2.0000      -2.255043       -61.3629 
  18   2.0000      -1.390002       -37.8239 
  19   2.0000      -1.385031       -37.6886 
  20   2.0000      -1.376385       -37.4533 
  21   2.0000      -1.034632       -28.1538 
  22   2.0000      -1.022885       -27.8341 
  23   2.0000      -0.904868       -24.6227 
  24   2.0000      -0.867830       -23.6149 
  25   2.0000      -0.856044       -23.2941 
  26   2.0000      -0.855129       -23.2692 
  27   2.0000      -0.853532       -23.2258 
  28   2.0000      -0.849307       -23.1108 
  29   2.0000      -0.697946       -18.9921 
  30   2.0000      -0.682048       -18.5595 
  31   2.0000      -0.676775       -18.4160 
  32   2.0000      -0.671771       -18.2798 
  33   2.0000      -0.670530       -18.2460 
  34   2.0000      -0.664000       -18.0684 
  35   2.0000      -0.655056       -17.8250 
  36   2.0000      -0.619577       -16.8595 
  37   2.0000      -0.543973       -14.8023 
  38   2.0000      -0.518974       -14.1220 
  39   2.0000      -0.518286       -14.1033 
  40   2.0000      -0.516070       -14.0430 
  41   2.0000      -0.514081       -13.9889 
  42   2.0000      -0.498779       -13.5725 
  43   2.0000      -0.496909       -13.5216 
  44   2.0000      -0.496003       -13.4969 
  45   2.0000      -0.493350       -13.4247 
  46   2.0000      -0.491293       -13.3688 
  47   2.0000      -0.443373       -12.0648 
  48   2.0000      -0.422732       -11.5031 
  49   2.0000      -0.405972       -11.0471 
  50   2.0000      -0.398048       -10.8314 
  51   2.0000      -0.383760       -10.4426 
  52   2.0000      -0.372203       -10.1282 
  53   2.0000      -0.370581       -10.0840 
  54   2.0000      -0.353474        -9.6185 
  55   2.0000      -0.328875        -8.9492 
  56   2.0000      -0.319770        -8.7014 
  57   0.0000       0.038617         1.0508 
  58   0.0000       0.047035         1.2799 
  59   0.0000       0.056167         1.5284 
  60   0.0000       0.057294         1.5590 
  61   0.0000       0.063426         1.7259 
  62   0.0000       0.067757         1.8438 
  63   0.0000       0.071166         1.9365 
  64   0.0000       0.079629         2.1668 
  65   0.0000       0.082939         2.2569 
  66   0.0000       0.086360         2.3500 
  67   0.0000       0.087419         2.3788 
  68   0.0000       0.090723         2.4687 
  69   0.0000       0.092460         2.5160 
  70   0.0000       0.101068         2.7502 
  71   0.0000       0.104216         2.8359 
  72   0.0000       0.114802         3.1239 
  73   0.0000       0.116542         3.1713 
  74   0.0000       0.119912         3.2630 
  75   0.0000       0.122068         3.3216 
  76   0.0000       0.126491         3.4420 
  77   0.0000       0.128277         3.4906 
  78   0.0000       0.129931         3.5356 
  79   0.0000       0.138231         3.7615 
  80   0.0000       0.139857         3.8057 
  81   0.0000       0.141414         3.8481 
  82   0.0000       0.146912         3.9977 
  83   0.0000       0.150489         4.0950 
  84   0.0000       0.159845         4.3496 
  85   0.0000       0.166238         4.5236 
  86   0.0000       0.172385         4.6908 
  87   0.0000       0.177031         4.8173 
  88   0.0000       0.182205         4.9580 
  89   0.0000       0.184421         5.0184 
  90   0.0000       0.185132         5.0377 
  91   0.0000       0.192158         5.2289 
  92   0.0000       0.199250         5.4219 
  93   0.0000       0.205883         5.6023 
  94   0.0000       0.213778         5.8172 
  95   0.0000       0.219634         5.9766 
  96   0.0000       0.223617         6.0849 
  97   0.0000       0.229494         6.2448 
  98   0.0000       0.230402         6.2695 
  99   0.0000       0.235096         6.3973 
 100   0.0000       0.237283         6.4568 
 101   0.0000       0.239263         6.5107 
 102   0.0000       0.240276         6.5383 
 103   0.0000       0.244932         6.6649 
 104   0.0000       0.248862         6.7719 
 105   0.0000       0.258150         7.0246 
 106   0.0000       0.261434         7.1140 
 107   0.0000       0.266573         7.2538 
 108   0.0000       0.272002         7.4016 
 109   0.0000       0.277787         7.5590 
 110   0.0000       0.284792         7.7496 
 111   0.0000       0.292073         7.9477 
 112   0.0000       0.296159         8.0589 
 113   0.0000       0.302932         8.2432 
 114   0.0000       0.306165         8.3312 
 115   0.0000       0.307282         8.3616 
 116   0.0000       0.309521         8.4225 
 117   0.0000       0.312632         8.5071 
 118   0.0000       0.316581         8.6146 
 119   0.0000       0.322740         8.7822 
 120   0.0000       0.325836         8.8664 
 121   0.0000       0.326176         8.8757 
 122   0.0000       0.332904         9.0588 
 123   0.0000       0.334173         9.0933 
 124   0.0000       0.337184         9.1752 
 125   0.0000       0.341089         9.2815 
 126   0.0000       0.341669         9.2973 
 127   0.0000       0.344132         9.3643 
 128   0.0000       0.349305         9.5051 
 129   0.0000       0.350841         9.5469 
 130   0.0000       0.355797         9.6817 
 131   0.0000       0.357899         9.7389 
 132   0.0000       0.358546         9.7565 
 133   0.0000       0.360370         9.8062 
 134   0.0000       0.363168         9.8823 
 135   0.0000       0.367985        10.0134 
 136   0.0000       0.370871        10.0919 
 137   0.0000       0.372952        10.1485 
 138   0.0000       0.374625        10.1941 
 139   0.0000       0.377899        10.2832 
 140   0.0000       0.383284        10.4297 
 141   0.0000       0.387575        10.5464 
 142   0.0000       0.388973        10.5845 
 143   0.0000       0.391790        10.6611 
 144   0.0000       0.395424        10.7600 
 145   0.0000       0.397381        10.8133 
 146   0.0000       0.400970        10.9109 
 147   0.0000       0.409081        11.1317 
 148   0.0000       0.411937        11.2094 
 149   0.0000       0.414885        11.2896 
 150   0.0000       0.420196        11.4341 
 151   0.0000       0.422809        11.5052 
 152   0.0000       0.432217        11.7612 
 153   0.0000       0.435261        11.8441 
 154   0.0000       0.436495        11.8776 
 155   0.0000       0.439164        11.9503 
 156   0.0000       0.441790        12.0217 
 157   0.0000       0.446505        12.1500 
 158   0.0000       0.448713        12.2101 
 159   0.0000       0.449499        12.2315 
 160   0.0000       0.452859        12.3229 
 161   0.0000       0.455595        12.3974 
 162   0.0000       0.456459        12.4209 
 163   0.0000       0.458789        12.4843 
 164   0.0000       0.462879        12.5956 
 165   0.0000       0.469376        12.7724 
 166   0.0000       0.472315        12.8523 
 167   0.0000       0.476447        12.9648 
 168   0.0000       0.479432        13.0460 
 169   0.0000       0.483381        13.1535 
 170   0.0000       0.487784        13.2733 
 171   0.0000       0.489588        13.3224 
 172   0.0000       0.503548        13.7022 
 173   0.0000       0.504030        13.7154 
 174   0.0000       0.509237        13.8570 
 175   0.0000       0.513888        13.9836 
 176   0.0000       0.518973        14.1220 
 177   0.0000       0.526345        14.3226 
 178   0.0000       0.533596        14.5199 
 179   0.0000       0.536853        14.6085 
 180   0.0000       0.541344        14.7307 
 181   0.0000       0.543742        14.7960 
 182   0.0000       0.546044        14.8586 
 183   0.0000       0.548781        14.9331 
 184   0.0000       0.557020        15.1573 
 185   0.0000       0.559724        15.2309 
 186   0.0000       0.561140        15.2694 
 187   0.0000       0.564307        15.3556 
 188   0.0000       0.570894        15.5348 
 189   0.0000       0.574443        15.6314 
 190   0.0000       0.577263        15.7081 
 191   0.0000       0.582591        15.8531 
 192   0.0000       0.584920        15.9165 
 193   0.0000       0.586857        15.9692 
 194   0.0000       0.590406        16.0658 
 195   0.0000       0.596351        16.2275 
 196   0.0000       0.602616        16.3980 
 197   0.0000       0.603716        16.4279 
 198   0.0000       0.608495        16.5580 
 199   0.0000       0.611504        16.6399 
 200   0.0000       0.616332        16.7713 
 201   0.0000       0.620790        16.8926 
 202   0.0000       0.628819        17.1110 
 203   0.0000       0.631787        17.1918 
 204   0.0000       0.633359        17.2346 
 205   0.0000       0.641142        17.4464 
 206   0.0000       0.647852        17.6290 
 207   0.0000       0.650400        17.6983 
 208   0.0000       0.658995        17.9322 
 209   0.0000       0.664245        18.0750 
 210   0.0000       0.666828        18.1453 
 211   0.0000       0.676270        18.4022 
 212   0.0000       0.678551        18.4643 
 213   0.0000       0.681057        18.5325 
 214   0.0000       0.686243        18.6736 
 215   0.0000       0.688033        18.7223 
 216   0.0000       0.693063        18.8592 
 217   0.0000       0.694734        18.9047 
 218   0.0000       0.696856        18.9624 
 219   0.0000       0.702674        19.1207 
 220   0.0000       0.705937        19.2095 
 221   0.0000       0.709509        19.3067 
 222   0.0000       0.716081        19.4856 
 223   0.0000       0.719603        19.5814 
 224   0.0000       0.721657        19.6373 
 225   0.0000       0.728779        19.8311 
 226   0.0000       0.733660        19.9639 
 227   0.0000       0.738067        20.0838 
 228   0.0000       0.739214        20.1150 
 229   0.0000       0.742463        20.2034 
 230   0.0000       0.743699        20.2371 
 231   0.0000       0.748775        20.3752 
 232   0.0000       0.750326        20.4174 
 233   0.0000       0.750455        20.4209 
 234   0.0000       0.758255        20.6332 
 235   0.0000       0.761472        20.7207 
 236   0.0000       0.764366        20.7995 
 237   0.0000       0.769041        20.9267 
 238   0.0000       0.771933        21.0054 
 239   0.0000       0.774272        21.0690 
 240   0.0000       0.777134        21.1469 
 241   0.0000       0.780033        21.2258 
 242   0.0000       0.787154        21.4195 
 243   0.0000       0.789544        21.4846 
 244   0.0000       0.790695        21.5159 
 245   0.0000       0.797990        21.7144 
 246   0.0000       0.801547        21.8112 
 247   0.0000       0.803278        21.8583 
 248   0.0000       0.808154        21.9910 
 249   0.0000       0.812238        22.1021 
 250   0.0000       0.819514        22.3001 
 251   0.0000       0.820433        22.3251 
 252   0.0000       0.823010        22.3952 
 253   0.0000       0.827518        22.5179 
 254   0.0000       0.829342        22.5675 
 255   0.0000       0.835908        22.7462 
 256   0.0000       0.838130        22.8067 
 257   0.0000       0.841835        22.9075 
 258   0.0000       0.842748        22.9324 
 259   0.0000       0.847770        23.0690 
 260   0.0000       0.850757        23.1503 
 261   0.0000       0.855604        23.2822 
 262   0.0000       0.857204        23.3257 
 263   0.0000       0.860673        23.4201 
 264   0.0000       0.864202        23.5161 
 265   0.0000       0.867200        23.5977 
 266   0.0000       0.868598        23.6358 
 267   0.0000       0.876039        23.8382 
 268   0.0000       0.881204        23.9788 
 269   0.0000       0.883609        24.0442 
 270   0.0000       0.888479        24.1767 
 271   0.0000       0.893027        24.3005 
 272   0.0000       0.895328        24.3631 
 273   0.0000       0.899315        24.4716 
 274   0.0000       0.908543        24.7227 
 275   0.0000       0.917077        24.9549 
 276   0.0000       0.922907        25.1136 
 277   0.0000       0.934322        25.4242 
 278   0.0000       0.939469        25.5642 
 279   0.0000       0.945278        25.7223 
 280   0.0000       0.955555        26.0020 
 281   0.0000       0.960795        26.1446 
 282   0.0000       0.964910        26.2565 
 283   0.0000       0.978200        26.6182 
 284   0.0000       0.986110        26.8334 
 285   0.0000       0.991640        26.9839 
 286   0.0000       0.996690        27.1213 
 287   0.0000       0.999854        27.2074 
 288   0.0000       1.006945        27.4004 
 289   0.0000       1.016952        27.6727 
 290   0.0000       1.031405        28.0659 
 291   0.0000       1.038573        28.2610 
 292   0.0000       1.045405        28.4469 
 293   0.0000       1.051471        28.6120 
 294   0.0000       1.056546        28.7501 
 295   0.0000       1.062123        28.9018 
 296   0.0000       1.063282        28.9334 
 297   0.0000       1.083717        29.4894 
 298   0.0000       1.085864        29.5479 
 299   0.0000       1.093512        29.7560 
 300   0.0000       1.102553        30.0020 
 301   0.0000       1.111559        30.2471 
 302   0.0000       1.116857        30.3912 
 303   0.0000       1.124999        30.6128 
 304   0.0000       1.133929        30.8558 
 305   0.0000       1.140716        31.0405 
 306   0.0000       1.144582        31.1457 
 307   0.0000       1.151980        31.3470 
 308   0.0000       1.165885        31.7253 
 309   0.0000       1.173736        31.9390 
 310   0.0000       1.179475        32.0952 
 311   0.0000       1.187196        32.3053 
 312   0.0000       1.207284        32.8519 
 313   0.0000       1.213186        33.0125 
 314   0.0000       1.219336        33.1798 
 315   0.0000       1.223355        33.2892 
 316   0.0000       1.232196        33.5297 
 317   0.0000       1.239209        33.7206 
 318   0.0000       1.244290        33.8588 
 319   0.0000       1.250242        34.0208 
 320   0.0000       1.264478        34.4082 
 321   0.0000       1.266130        34.4532 
 322   0.0000       1.275679        34.7130 
 323   0.0000       1.290611        35.1193 
 324   0.0000       1.295594        35.2549 
 325   0.0000       1.299661        35.3656 
 326   0.0000       1.316367        35.8202 
 327   0.0000       1.322760        35.9941 
 328   0.0000       1.333894        36.2971 
 329   0.0000       1.344358        36.5819 
 330   0.0000       1.359604        36.9967 
 331   0.0000       1.366610        37.1874 
 332   0.0000       1.371167        37.3114 
 333   0.0000       1.379925        37.5497 
 334   0.0000       1.397526        38.0286 
 335   0.0000       1.399629        38.0858 
 336   0.0000       1.407490        38.2998 
 337   0.0000       1.424714        38.7685 
 338   0.0000       1.432055        38.9682 
 339   0.0000       1.435713        39.0677 
 340   0.0000       1.442260        39.2459 
 341   0.0000       1.455279        39.6002 
 342   0.0000       1.460657        39.7465 
 343   0.0000       1.470831        40.0233 
 344   0.0000       1.474520        40.1237 
 345   0.0000       1.477601        40.2076 
 346   0.0000       1.481641        40.3175 
 347   0.0000       1.491616        40.5889 
 348   0.0000       1.496956        40.7342 
 349   0.0000       1.504072        40.9279 
 350   0.0000       1.505603        40.9695 
 351   0.0000       1.513769        41.1917 
 352   0.0000       1.521005        41.3887 
 353   0.0000       1.527418        41.5631 
 354   0.0000       1.540970        41.9319 
 355   0.0000       1.541797        41.9544 
 356   0.0000       1.545532        42.0561 
 357   0.0000       1.556202        42.3464 
 358   0.0000       1.558284        42.4031 
 359   0.0000       1.566055        42.6145 
 360   0.0000       1.574307        42.8391 
 361   0.0000       1.579204        42.9723 
 362   0.0000       1.582603        43.0648 
 363   0.0000       1.586098        43.1599 
 364   0.0000       1.589965        43.2651 
 365   0.0000       1.600475        43.5511 
 366   0.0000       1.606057        43.7030 
 367   0.0000       1.609031        43.7840 
 368   0.0000       1.613722        43.9116 
 369   0.0000       1.621100        44.1124 
 370   0.0000       1.627576        44.2886 
 371   0.0000       1.630154        44.3587 
 372   0.0000       1.639061        44.6011 
 373   0.0000       1.642584        44.6970 
 374   0.0000       1.657879        45.1132 
 375   0.0000       1.660762        45.1916 
 376   0.0000       1.665955        45.3329 
 377   0.0000       1.671955        45.4962 
 378   0.0000       1.681734        45.7623 
 379   0.0000       1.696242        46.1571 
 380   0.0000       1.707175        46.4546 
 381   0.0000       1.708935        46.5025 
 382   0.0000       1.725996        46.9667 
 383   0.0000       1.731102        47.1057 
 384   0.0000       1.734329        47.1935 
 385   0.0000       1.742967        47.4285 
 386   0.0000       1.759378        47.8751 
 387   0.0000       1.771658        48.2093 
 388   0.0000       1.792002        48.7628 
 389   0.0000       1.798286        48.9338 
 390   0.0000       1.807115        49.1741 
 391   0.0000       1.817290        49.4510 
 392   0.0000       1.825209        49.6665 
 393   0.0000       1.834029        49.9065 
 394   0.0000       1.850020        50.3416 
 395   0.0000       1.856461        50.5169 
 396   0.0000       1.875430        51.0331 
 397   0.0000       1.885126        51.2969 
 398   0.0000       1.891619        51.4736 
 399   0.0000       1.900578        51.7174 
 400   0.0000       1.906531        51.8794 
 401   0.0000       1.925571        52.3975 
 402   0.0000       1.938559        52.7509 
 403   0.0000       1.949817        53.0572 
 404   0.0000       1.953935        53.1693 
 405   0.0000       1.959910        53.3319 
 406   0.0000       1.963749        53.4363 
 407   0.0000       1.968928        53.5772 
 408   0.0000       1.972219        53.6668 
 409   0.0000       1.985519        54.0287 
 410   0.0000       1.990746        54.1710 
 411   0.0000       1.993477        54.2453 
 412   0.0000       2.007884        54.6373 
 413   0.0000       2.016413        54.8694 
 414   0.0000       2.022256        55.0284 
 415   0.0000       2.023217        55.0545 
 416   0.0000       2.029509        55.2257 
 417   0.0000       2.041430        55.5501 
 418   0.0000       2.048365        55.7389 
 419   0.0000       2.065207        56.1971 
 420   0.0000       2.066736        56.2388 
 421   0.0000       2.073054        56.4107 
 422   0.0000       2.083927        56.7065 
 423   0.0000       2.087933        56.8155 
 424   0.0000       2.097981        57.0890 
 425   0.0000       2.110112        57.4191 
 426   0.0000       2.116824        57.6017 
 427   0.0000       2.124426        57.8086 
 428   0.0000       2.133656        58.0597 
 429   0.0000       2.148849        58.4732 
 430   0.0000       2.155301        58.6487 
 431   0.0000       2.170111        59.0517 
 432   0.0000       2.184712        59.4490 
 433   0.0000       2.199264        59.8450 
 434   0.0000       2.210562        60.1524 
 435   0.0000       2.214270        60.2533 
 436   0.0000       2.221437        60.4484 
 437   0.0000       2.235530        60.8319 
 438   0.0000       2.243031        61.0360 
 439   0.0000       2.255705        61.3808 
 440   0.0000       2.261651        61.5427 
 441   0.0000       2.276373        61.9433 
 442   0.0000       2.283175        62.1284 
 443   0.0000       2.291880        62.3652 
 444   0.0000       2.304217        62.7009 
 445   0.0000       2.320712        63.1498 
 446   0.0000       2.332264        63.4641 
 447   0.0000       2.341655        63.7197 
 448   0.0000       2.344999        63.8107 
 449   0.0000       2.366543        64.3969 
 450   0.0000       2.371412        64.5294 
 451   0.0000       2.394316        65.1526 
 452   0.0000       2.402286        65.3695 
 453   0.0000       2.416897        65.7671 
 454   0.0000       2.424149        65.9644 
 455   0.0000       2.443468        66.4902 
 456   0.0000       2.464072        67.0508 
 457   0.0000       2.478853        67.4530 
 458   0.0000       2.493973        67.8645 
 459   0.0000       2.501246        68.0624 
 460   0.0000       2.507153        68.2231 
 461   0.0000       2.525339        68.7180 
 462   0.0000       2.555900        69.5496 
 463   0.0000       2.572888        70.0118 
 464   0.0000       2.575538        70.0839 
 465   0.0000       2.588886        70.4472 
 466   0.0000       2.591725        70.5244 
 467   0.0000       2.614042        71.1317 
 468   0.0000       2.624832        71.4253 
 469   0.0000       2.647024        72.0292 
 470   0.0000       2.664847        72.5142 
 471   0.0000       2.677835        72.8676 
 472   0.0000       2.696343        73.3712 
 473   0.0000       2.703248        73.5591 
 474   0.0000       2.720651        74.0327 
 475   0.0000       2.724052        74.1252 
 476   0.0000       2.726583        74.1941 
 477   0.0000       2.733133        74.3723 
 478   0.0000       2.736854        74.4736 
 479   0.0000       2.753033        74.9138 
 480   0.0000       2.762552        75.1729 
 481   0.0000       2.780299        75.6558 
 482   0.0000       2.786981        75.8376 
 483   0.0000       2.800256        76.1988 
 484   0.0000       2.809239        76.4433 
 485   0.0000       2.818320        76.6904 
 486   0.0000       2.822859        76.8139 
 487   0.0000       2.830189        77.0134 
 488   0.0000       2.841151        77.3117 
 489   0.0000       2.864260        77.9405 
 490   0.0000       2.872210        78.1568 
 491   0.0000       2.888726        78.6062 
 492   0.0000       2.911694        79.2312 
 493   0.0000       2.914467        79.3067 
 494   0.0000       2.920375        79.4674 
 495   0.0000       2.946568        80.1802 
 496   0.0000       2.949134        80.2500 
 497   0.0000       2.950726        80.2933 
 498   0.0000       2.954595        80.3986 
 499   0.0000       2.977946        81.0340 
 500   0.0000       2.983464        81.1842 
 501   0.0000       2.987554        81.2955 
 502   0.0000       2.992909        81.4412 
 503   0.0000       3.001402        81.6723 
 504   0.0000       3.006179        81.8023 
 505   0.0000       3.007528        81.8390 
 506   0.0000       3.017592        82.1128 
 507   0.0000       3.026869        82.3653 
 508   0.0000       3.044202        82.8369 
 509   0.0000       3.053569        83.0918 
 510   0.0000       3.068926        83.5097 
 511   0.0000       3.083788        83.9141 
 512   0.0000       3.097521        84.2878 
 513   0.0000       3.098768        84.3218 
 514   0.0000       3.116846        84.8137 
 515   0.0000       3.133580        85.2690 
 516   0.0000       3.152532        85.7848 
 517   0.0000       3.159997        85.9879 
 518   0.0000       3.171375        86.2975 
 519   0.0000       3.175954        86.4221 
 520   0.0000       3.178859        86.5012 
 521   0.0000       3.196457        86.9800 
 522   0.0000       3.197666        87.0129 
 523   0.0000       3.207819        87.2892 
 524   0.0000       3.220552        87.6357 
 525   0.0000       3.238683        88.1290 
 526   0.0000       3.246048        88.3294 
 527   0.0000       3.247167        88.3599 
 528   0.0000       3.257571        88.6430 
 529   0.0000       3.264479        88.8310 
 530   0.0000       3.277837        89.1945 
 531   0.0000       3.286248        89.4233 
 532   0.0000       3.310602        90.0861 
 533   0.0000       3.321143        90.3729 
 534   0.0000       3.324854        90.4739 
 535   0.0000       3.339170        90.8634 
 536   0.0000       3.347912        91.1013 
 537   0.0000       3.360478        91.4432 
 538   0.0000       3.364973        91.5656 
 539   0.0000       3.381052        92.0031 
 540   0.0000       3.393137        92.3319 
 541   0.0000       3.397717        92.4566 
 542   0.0000       3.409025        92.7643 
 543   0.0000       3.412439        92.8572 
 544   0.0000       3.431538        93.3769 
 545   0.0000       3.437507        93.5393 
 546   0.0000       3.456317        94.0512 
 547   0.0000       3.460163        94.1558 
 548   0.0000       3.464997        94.2874 
 549   0.0000       3.476329        94.5957 
 550   0.0000       3.479502        94.6821 
 551   0.0000       3.482872        94.7738 
 552   0.0000       3.488899        94.9378 
 553   0.0000       3.497412        95.1694 
 554   0.0000       3.506623        95.4201 
 555   0.0000       3.508443        95.4696 
 556   0.0000       3.517150        95.7065 
 557   0.0000       3.533502        96.1515 
 558   0.0000       3.540640        96.3457 
 559   0.0000       3.546202        96.4971 
 560   0.0000       3.555628        96.7536 
 561   0.0000       3.563668        96.9723 
 562   0.0000       3.570507        97.1584 
 563   0.0000       3.575338        97.2899 
 564   0.0000       3.577035        97.3361 
 565   0.0000       3.582437        97.4831 
 566   0.0000       3.590228        97.6951 
 567   0.0000       3.607837        98.1742 
 568   0.0000       3.618319        98.4595 
 569   0.0000       3.622473        98.5725 
 570   0.0000       3.624589        98.6301 
 571   0.0000       3.633593        98.8751 
 572   0.0000       3.640103        99.0522 
 573   0.0000       3.640878        99.0733 
 574   0.0000       3.649407        99.3054 
 575   0.0000       3.650576        99.3372 
 576   0.0000       3.657523        99.5263 
 577   0.0000       3.663773        99.6963 
 578   0.0000       3.667325        99.7930 
 579   0.0000       3.680904       100.1625 
 580   0.0000       3.682458       100.2048 
 581   0.0000       3.692159       100.4688 
 582   0.0000       3.702782       100.7578 
 583   0.0000       3.710053       100.9557 
 584   0.0000       3.716655       101.1353 
 585   0.0000       3.726660       101.4076 
 586   0.0000       3.728602       101.4604 
 587   0.0000       3.737830       101.7115 
 588   0.0000       3.750625       102.0597 
 589   0.0000       3.756451       102.2182 
 590   0.0000       3.759807       102.3095 
 591   0.0000       3.766402       102.4890 
 592   0.0000       3.776765       102.7710 
 593   0.0000       3.778557       102.8198 
 594   0.0000       3.779874       102.8556 
 595   0.0000       3.786625       103.0393 
 596   0.0000       3.790941       103.1568 
 597   0.0000       3.797163       103.3261 
 598   0.0000       3.804567       103.5275 
 599   0.0000       3.811432       103.7143 
 600   0.0000       3.826924       104.1359 
 601   0.0000       3.827698       104.1570 
 602   0.0000       3.838092       104.4398 
 603   0.0000       3.847001       104.6822 
 604   0.0000       3.857395       104.9651 
 605   0.0000       3.865637       105.1893 
 606   0.0000       3.873034       105.3906 
 607   0.0000       3.890370       105.8624 
 608   0.0000       3.903669       106.2242 
 609   0.0000       3.920117       106.6718 
 610   0.0000       3.929362       106.9234 
 611   0.0000       3.955425       107.6326 
 612   0.0000       3.963817       107.8610 
 613   0.0000       3.997082       108.7661 
 614   0.0000       3.998589       108.8071 
 615   0.0000       4.006923       109.0339 
 616   0.0000       4.026687       109.5717 
 617   0.0000       4.036015       109.8255 
 618   0.0000       4.054255       110.3219 
 619   0.0000       4.061211       110.5112 
 620   0.0000       4.064397       110.5979 
 621   0.0000       4.070795       110.7720 
 622   0.0000       4.073528       110.8463 
 623   0.0000       4.078415       110.9793 
 624   0.0000       4.095733       111.4506 
 625   0.0000       4.099580       111.5552 
 626   0.0000       4.116594       112.0182 
 627   0.0000       4.146440       112.8304 
 628   0.0000       4.155543       113.0781 
 629   0.0000       4.163540       113.2957 
 630   0.0000       4.183738       113.8453 
 631   0.0000       4.199579       114.2763 
 632   0.0000       4.200195       114.2931 
 633   0.0000       4.225024       114.9687 
 634   0.0000       4.238189       115.3270 
 635   0.0000       4.257435       115.8507 
 636   0.0000       4.268468       116.1509 
 637   0.0000       4.284632       116.5908 
 638   0.0000       4.291356       116.7737 
 639   0.0000       4.308336       117.2358 
 640   0.0000       4.310981       117.3077 
 641   0.0000       4.324695       117.6809 
 642   0.0000       4.336191       117.9937 
 643   0.0000       4.341758       118.1452 
 644   0.0000       4.350513       118.3835 
 645   0.0000       4.360107       118.6445 
 646   0.0000       4.367201       118.8376 
 647   0.0000       4.372747       118.9885 
 648   0.0000       4.380586       119.2018 
 649   0.0000       4.381677       119.2315 
 650   0.0000       4.384314       119.3033 
 651   0.0000       4.392912       119.5372 
 652   0.0000       4.399703       119.7220 
 653   0.0000       4.409964       120.0012 
 654   0.0000       4.413111       120.0868 
 655   0.0000       4.416700       120.1845 
 656   0.0000       4.418876       120.2437 
 657   0.0000       4.428872       120.5157 
 658   0.0000       4.443490       120.9135 
 659   0.0000       4.446026       120.9825 
 660   0.0000       4.454094       121.2020 
 661   0.0000       4.468629       121.5976 
 662   0.0000       4.488513       122.1386 
 663   0.0000       4.508988       122.6958 
 664   0.0000       4.533084       123.3515 
 665   0.0000       4.548279       123.7650 
 666   0.0000       4.573127       124.4411 
 667   0.0000       4.578813       124.5958 
 668   0.0000       4.590622       124.9172 
 669   0.0000       4.601322       125.2083 
 670   0.0000       4.604090       125.2837 
 671   0.0000       4.607106       125.3657 
 672   0.0000       4.624721       125.8451 
 673   0.0000       4.631816       126.0381 
 674   0.0000       4.646271       126.4315 
 675   0.0000       4.656619       126.7131 
 676   0.0000       4.659498       126.7914 
 677   0.0000       4.666521       126.9825 
 678   0.0000       4.684373       127.4683 
 679   0.0000       4.691778       127.6698 
 680   0.0000       4.716840       128.3517 
 681   0.0000       4.725567       128.5892 
 682   0.0000       4.741346       129.0186 
 683   0.0000       4.758926       129.4970 
 684   0.0000       4.773243       129.8865 
 685   0.0000       4.792359       130.4067 
 686   0.0000       4.798987       130.5871 
 687   0.0000       4.883746       132.8935 
 688   0.0000       4.890936       133.0891 
 689   0.0000       4.904669       133.4628 
 690   0.0000       4.945389       134.5709 
 691   0.0000       4.960862       134.9919 
 692   0.0000       4.969571       135.2289 
 693   0.0000       4.971552       135.2828 
 694   0.0000       4.983809       135.6163 
 695   0.0000       5.007468       136.2601 
 696   0.0000       5.021129       136.6319 
 697   0.0000       5.031460       136.9130 
 698   0.0000       5.036694       137.0554 
 699   0.0000       5.045117       137.2846 
 700   0.0000       5.076069       138.1268 
 701   0.0000       5.080988       138.2607 
 702   0.0000       5.089994       138.5058 
 703   0.0000       5.097866       138.7200 
 704   0.0000       5.105153       138.9183 
 705   0.0000       5.134368       139.7132 
 706   0.0000       5.155959       140.3008 
 707   0.0000       5.311912       144.5445 
 708   0.0000       5.374623       146.2509 
 709   0.0000       5.380657       146.4151 
 710   0.0000       5.396103       146.8354 
 711   0.0000       5.400574       146.9571 
 712   0.0000       5.403852       147.0463 
 713   0.0000       5.407647       147.1496 
 714   0.0000       5.418035       147.4322 
 715   0.0000       5.421773       147.5339 
 716   0.0000       5.463659       148.6737 
 717   0.0000       5.464580       148.6988 
 718   0.0000       5.478223       149.0700 
 719   0.0000       5.484955       149.2532 
 720   0.0000       5.504549       149.7864 
 721   0.0000       5.507040       149.8542 
 722   0.0000       5.521036       150.2350 
 723   0.0000       5.527105       150.4002 
 724   0.0000       5.534407       150.5989 
 725   0.0000       5.545425       150.8987 
 726   0.0000       5.553653       151.1226 
 727   0.0000       5.563646       151.3945 
 728   0.0000       5.591023       152.1395 
 729   0.0000       5.605083       152.5221 
 730   0.0000       5.657856       153.9581 
 731   0.0000       5.716453       155.5526 
 732   0.0000       5.728736       155.8868 
 733   0.0000       5.867625       159.6662 
 734   0.0000       5.876569       159.9096 
 735   0.0000       5.883742       160.1048 
 736   0.0000       5.910280       160.8269 
 737   0.0000       6.099984       165.9890 
 738   0.0000       6.111470       166.3016 
 739   0.0000       6.117607       166.4685 
 740   0.0000       6.127940       166.7497 
 741   0.0000       6.136605       166.9855 
 742   0.0000       6.146343       167.2505 
 743   0.0000       6.150623       167.3669 
 744   0.0000       6.161120       167.6526 
 745   0.0000       6.410185       174.4300 
 746   0.0000       6.640229       180.6898 
 747   0.0000       6.736445       183.3080 
 748   0.0000       6.743746       183.5067 
 749   0.0000       8.394876       228.4362 
 750   0.0000       8.416061       229.0127 
 751   0.0000       8.456828       230.1220 
 752   0.0000       8.527108       232.0344 
 753   0.0000       8.534262       232.2291 
 754   0.0000      11.256193       306.2966 
 755   0.0000      11.293894       307.3225 
 756   0.0000      11.453753       311.6725 
 757   0.0000      21.381470       581.8194 
 758   0.0000      23.324270       634.6856 
 759   0.0000      23.370481       635.9431 
 760   0.0000      23.523232       640.0997 
 761   0.0000      23.527601       640.2186 
 762   0.0000      23.551868       640.8789 
 763   0.0000      23.571412       641.4107 
 764   0.0000      23.610813       642.4829 
 765   0.0000      23.893835       650.1843 
 766   0.0000      23.903648       650.4513 
 767   0.0000      23.932486       651.2361 
 768   0.0000      23.935932       651.3298 
 769   0.0000      24.167519       657.6316 
 770   0.0000      26.700749       726.5643 
 771   0.0000      73.043657      1987.6189 

                    ********************************
                    * MULLIKEN POPULATION ANALYSIS *
                    ********************************

-----------------------
MULLIKEN ATOMIC CHARGES
-----------------------
   0 Zr:   -0.868958
   1 C :    0.044661
   2 C :    0.230529
   3 C :    0.124295
   4 H :    0.070896
   5 C :    0.113408
   6 H :    0.063240
   7 C :   -0.093797
   8 H :    0.033679
   9 H :    0.085263
  10 C :    0.062453
  11 C :    0.003048
  12 C :    0.194902
  13 H :    0.064630
  14 C :    0.071516
  15 H :    0.036196
  16 C :   -0.001959
  17 H :    0.155459
  18 H :    0.028737
  19 Cl:   -0.551991
  20 C :   -0.044610
  21 C :    0.018143
  22 H :    0.101530
  23 H :   -0.099756
  24 H :    0.066354
  25 H :    0.048621
  26 H :    0.043511
Sum of atomic charges:   -0.0000000

--------------------------------
MULLIKEN REDUCED ORBITAL CHARGES
--------------------------------
  0 Zrs       :     2.530900  s :     2.530900
      pz      :     2.514664  p :     7.685516
      px      :     2.648112
      py      :     2.522740
      dz2     :     0.601871  d :     2.322290
      dxz     :     0.484327
      dyz     :     0.359747
      dx2y2   :     0.450904
      dxy     :     0.425441
      f0      :     0.062949  f :     0.286657
      f+1     :     0.018360
      f-1     :     0.023667
      f+2     :     0.042390
      f-2     :     0.041872
      f+3     :     0.052043
      f-3     :     0.045377
      g0      :     0.002664  g :     0.043594
      g+1     :     0.004804
      g-1     :     0.004222
      g+2     :     0.003911
      g-2     :     0.003730
      g+3     :     0.005816
      g-3     :     0.005839
      g+4     :     0.005456
      g-4     :     0.007153
  1 C s       :     3.089791  s :     3.089791
      pz      :     0.990524  p :     2.813575
      px      :     0.892652
      py      :     0.930399
      dz2     :     0.014141  d :     0.044171
      dxz     :    -0.017454
      dyz     :     0.003898
      dx2y2   :     0.014810
      dxy     :     0.028775
      f0      :     0.001158  f :     0.007801
      f+1     :     0.000453
      f-1     :     0.002184
      f+2     :     0.000964
      f-2     :     0.001469
      f+3     :     0.000822
      f-3     :     0.000751
  2 C s       :     2.791483  s :     2.791483
      pz      :     0.936631  p :     2.920897
      px      :     0.952017
      py      :     1.032249
      dz2     :     0.036720  d :     0.049563
      dxz     :     0.021134
      dyz     :     0.002246
      dx2y2   :    -0.036031
      dxy     :     0.025494
      f0      :     0.001073  f :     0.007528
      f+1     :     0.001066
      f-1     :     0.001941
      f+2     :     0.000769
      f-2     :     0.000999
      f+3     :     0.000837
      f-3     :     0.000844
  3 C s       :     2.992886  s :     2.992886
      pz      :     0.877821  p :     2.818890
      px      :     0.985415
      py      :     0.955654
      dz2     :     0.018113  d :     0.056501
      dxz     :     0.031558
      dyz     :     0.018035
      dx2y2   :    -0.009611
      dxy     :    -0.001595
      f0      :     0.001315  f :     0.007428
      f+1     :     0.000789
      f-1     :     0.001704
      f+2     :     0.001093
      f-2     :     0.001027
      f+3     :     0.000712
      f-3     :     0.000788
  4 H s       :     0.877308  s :     0.877308
      pz      :     0.011296  p :     0.049681
      px      :     0.012173
      py      :     0.026213
      dz2     :     0.000340  d :     0.002116
      dxz     :     0.000125
      dyz     :     0.000582
      dx2y2   :     0.000363
      dxy     :     0.000705
  5 C s       :     2.898116  s :     2.898116
      pz      :     0.956883  p :     2.914526
      px      :     0.971724
      py      :     0.985919
      dz2     :     0.000741  d :     0.066432
      dxz     :     0.004556
      dyz     :     0.018681
      dx2y2   :     0.025105
      dxy     :     0.017349
      f0      :     0.001528  f :     0.007518
      f+1     :     0.001366
      f-1     :     0.001332
      f+2     :     0.001147
      f-2     :     0.000315
      f+3     :     0.001161
      f-3     :     0.000668
  6 H s       :     0.886075  s :     0.886075
      pz      :    -0.002522  p :     0.048663
      px      :     0.039312
      py      :     0.011873
      dz2     :     0.000204  d :     0.002022
      dxz     :     0.000096
      dyz     :     0.000704
      dx2y2   :     0.000257
      dxy     :     0.000761
  7 C s       :     3.204962  s :     3.204962
      pz      :     0.969665  p :     2.821880
      px      :     0.859642
      py      :     0.992573
      dz2     :    -0.017884  d :     0.059261
      dxz     :    -0.002107
      dyz     :     0.038999
      dx2y2   :     0.020943
      dxy     :     0.019310
      f0      :     0.001699  f :     0.007693
      f+1     :     0.001249
      f-1     :     0.001155
      f+2     :     0.001167
      f-2     :     0.000562
      f+3     :     0.000863
      f-3     :     0.000998
  8 H s       :     0.905846  s :     0.905846
      pz      :     0.020490  p :     0.058416
      px      :     0.028191
      py      :     0.009736
      dz2     :     0.000691  d :     0.002059
      dxz     :     0.000488
      dyz     :     0.000273
      dx2y2   :     0.000269
      dxy     :     0.000338
  9 H s       :     0.856770  s :     0.856770
      pz      :     0.016575  p :     0.055932
      px      :     0.024342
      py      :     0.015015
      dz2     :     0.000679  d :     0.002035
      dxz     :     0.000579
      dyz     :     0.000281
      dx2y2   :     0.000234
      dxy     :     0.000263
 10 C s       :     2.912929  s :     2.912929
      pz      :     0.941328  p :     2.961391
      px      :     0.882170
      py      :     1.137893
      dz2     :     0.018088  d :     0.055698
      dxz     :     0.019308
      dyz     :     0.001176
      dx2y2   :     0.023268
      dxy     :    -0.006143
      f0      :     0.000959  f :     0.007529
      f+1     :     0.001655
      f-1     :     0.001645
      f+2     :     0.000683
      f-2     :     0.000822
      f+3     :     0.000847
      f-3     :     0.000917
 11 C s       :     3.120947  s :     3.120947
      pz      :     0.987914  p :     2.817562
      px      :     0.916200
      py      :     0.913449
      dz2     :     0.003369  d :     0.050646
      dxz     :     0.007239
      dyz     :    -0.010663
      dx2y2   :     0.035167
      dxy     :     0.015534
      f0      :     0.001232  f :     0.007796
      f+1     :     0.001127
      f-1     :     0.001430
      f+2     :     0.001451
      f-2     :     0.000969
      f+3     :     0.000728
      f-3     :     0.000859
 12 C s       :     2.852384  s :     2.852384
      pz      :     0.943367  p :     2.883362
      px      :     0.864215
      py      :     1.075781
      dz2     :     0.014864  d :     0.061835
      dxz     :     0.029563
      dyz     :     0.007553
      dx2y2   :     0.015046
      dxy     :    -0.005191
      f0      :     0.001327  f :     0.007518
      f+1     :     0.001550
      f-1     :     0.001478
      f+2     :     0.000183
      f-2     :     0.001104
      f+3     :     0.000626
      f-3     :     0.001249
 13 H s       :     0.890304  s :     0.890304
      pz      :     0.014618  p :     0.043071
      px      :     0.018297
      py      :     0.010156
      dz2     :     0.000296  d :     0.001994
      dxz     :     0.000805
      dyz     :     0.000814
      dx2y2   :     0.000040
      dxy     :     0.000038
 14 C s       :     2.988563  s :     2.988563
      pz      :     0.884577  p :     2.836692
      px      :     1.024115
      py      :     0.927999
      dz2     :     0.022397  d :     0.095781
      dxz     :    -0.004117
      dyz     :     0.051831
      dx2y2   :     0.050152
      dxy     :    -0.024482
      f0      :     0.001504  f :     0.007448
      f+1     :     0.000836
      f-1     :     0.001296
      f+2     :     0.001382
      f-2     :     0.000999
      f+3     :     0.000777
      f-3     :     0.000655
 15 H s       :     0.903926  s :     0.903926
      pz      :     0.018017  p :     0.057817
      px      :     0.007582
      py      :     0.032218
      dz2     :     0.000704  d :     0.002060
      dxz     :     0.000275
      dyz     :     0.000387
      dx2y2   :     0.000414
      dxy     :     0.000280
 16 C s       :     3.176091  s :     3.176091
      pz      :     0.968110  p :     2.790831
      px      :     0.880288
      py      :     0.942433
      dz2     :    -0.032436  d :     0.027389
      dxz     :    -0.005275
      dyz     :     0.042287
      dx2y2   :     0.008422
      dxy     :     0.014390
      f0      :     0.001729  f :     0.007648
      f+1     :     0.001076
      f-1     :     0.001127
      f+2     :     0.000621
      f-2     :     0.001314
      f+3     :     0.000822
      f-3     :     0.000960
 17 H s       :     0.813123  s :     0.813123
      pz      :    -0.002555  p :     0.029376
      px      :     0.032606
      py      :    -0.000675
      dz2     :     0.000143  d :     0.002042
      dxz     :     0.000344
      dyz     :     0.000511
      dx2y2   :     0.000773
      dxy     :     0.000271
 18 H s       :     0.902871  s :     0.902871
      pz      :     0.019902  p :     0.066347
      px      :     0.026827
      py      :     0.019618
      dz2     :     0.000634  d :     0.002045
      dxz     :     0.000636
      dyz     :     0.000372
      dx2y2   :     0.000205
      dxy     :     0.000198
 19 Cls       :     6.008886  s :     6.008886
      pz      :     3.783810  p :    11.528032
      px      :     3.928044
      py      :     3.816179
      dz2     :     0.003259  d :     0.014170
      dxz     :     0.002419
      dyz     :     0.003002
      dx2y2   :     0.002731
      dxy     :     0.002759
      f0      :     0.000108  f :     0.000902
      f+1     :     0.000062
      f-1     :     0.000276
      f+2     :     0.000185
      f-2     :     0.000133
      f+3     :     0.000067
      f-3     :     0.000072
 20 C s       :     3.196347  s :     3.196347
      pz      :     0.904189  p :     2.807445
      px      :     0.907410
      py      :     0.995846
      dz2     :     0.008901  d :     0.033833
      dxz     :     0.027465
      dyz     :    -0.014928
      dx2y2   :     0.006814
      dxy     :     0.005582
      f0      :     0.001778  f :     0.006985
      f+1     :     0.001023
      f-1     :     0.000934
      f+2     :     0.001376
      f-2     :     0.001203
      f+3     :     0.000386
      f-3     :     0.000284
 21 C s       :     3.174663  s :     3.174663
      pz      :     0.858457  p :     2.761634
      px      :     0.965759
      py      :     0.937417
      dz2     :     0.002060  d :     0.038384
      dxz     :     0.024599
      dyz     :     0.007408
      dx2y2   :     0.003969
      dxy     :     0.000348
      f0      :     0.001991  f :     0.007176
      f+1     :     0.001167
      f-1     :     0.001016
      f+2     :     0.001328
      f-2     :     0.001098
      f+3     :     0.000313
      f-3     :     0.000264
 22 H s       :     0.855037  s :     0.855037
      pz      :     0.025747  p :     0.042446
      px      :     0.003030
      py      :     0.013669
      dz2     :     0.000252  d :     0.000988
      dxz     :     0.000269
      dyz     :     0.000277
      dx2y2   :     0.000089
      dxy     :     0.000100
 23 H s       :     1.172482  s :     1.172482
      pz      :    -0.004705  p :    -0.073869
      px      :    -0.026276
      py      :    -0.042888
      dz2     :     0.000715  d :     0.001144
      dxz     :     0.000195
      dyz     :     0.000119
      dx2y2   :     0.000064
      dxy     :     0.000052
 24 H s       :     0.900695  s :     0.900695
      pz      :     0.010913  p :     0.031999
      px      :     0.007060
      py      :     0.014025
      dz2     :     0.000314  d :     0.000952
      dxz     :     0.000200
[...]
      dxz     :     0.000238
      dyz     :     0.000404
      dx2y2   :     0.000736
      dxy     :     0.000302


                     *******************************
                     * LOEWDIN POPULATION ANALYSIS *
                     *******************************

----------------------
LOEWDIN ATOMIC CHARGES
----------------------
   0 Zr:    0.498466
   1 C :   -0.062585
   2 C :   -0.057298
   3 C :   -0.053409
   4 H :    0.004970
   5 C :   -0.048317
   6 H :    0.011459
   7 C :   -0.084217
   8 H :    0.009678
   9 H :   -0.011595
  10 C :   -0.058160
  11 C :   -0.058489
  12 C :   -0.046634
  13 H :    0.003360
  14 C :   -0.055949
  15 H :    0.010259
  16 C :   -0.076841
  17 H :    0.008250
  18 H :   -0.008233
  19 Cl:    0.144373
  20 C :    0.045705
  21 C :    0.071842
  22 H :   -0.107275
  23 H :   -0.009788
  24 H :   -0.076637
  25 H :    0.002101
  26 H :    0.004963

-------------------------------
LOEWDIN REDUCED ORBITAL CHARGES
-------------------------------
  0 Zrs       :     1.771913  s :     1.771913
      pz      :     2.130323  p :     6.275212
      px      :     2.051231
      py      :     2.093658
      dz2     :     0.715471  d :     2.580546
      dxz     :     0.475073
      dyz     :     0.470001
      dx2y2   :     0.466876
      dxy     :     0.453125
      f0      :     0.139849  f :     0.650945
      f+1     :     0.044111
      f-1     :     0.071073
      f+2     :     0.100782
      f-2     :     0.092999
      f+3     :     0.106588
      f-3     :     0.095545
      g0      :     0.022466  g :     0.222918
      g+1     :     0.023223
      g-1     :     0.020832
      g+2     :     0.020935
      g-2     :     0.019084
      g+3     :     0.028531
      g-3     :     0.028310
      g+4     :     0.026692
      g-4     :     0.032847
  1 C s       :     2.631974  s :     2.631974
      pz      :     0.926594  p :     2.577868
      px      :     0.744259
      py      :     0.907014
      dz2     :     0.217795  d :     0.803944
      dxz     :     0.095941
      dyz     :     0.173912
      dx2y2   :     0.160168
      dxy     :     0.156128
      f0      :     0.006154  f :     0.048800
      f+1     :     0.001593
      f-1     :     0.015474
      f+2     :     0.007833
      f-2     :     0.010673
      f+3     :     0.003208
      f-3     :     0.003864
  2 C s       :     2.623642  s :     2.623642
      pz      :     0.907420  p :     2.593576
      px      :     0.777133
      py      :     0.909022
      dz2     :     0.201423  d :     0.792100
      dxz     :     0.154020
      dyz     :     0.212772
      dx2y2   :     0.119045
      dxy     :     0.104840
      f0      :     0.008126  f :     0.047980
      f+1     :     0.005581
      f-1     :     0.013973
      f+2     :     0.005779
      f-2     :     0.006968
      f+3     :     0.003535
      f-3     :     0.004018
  3 C s       :     2.629603  s :     2.629603
      pz      :     0.911699  p :     2.608672
      px      :     0.778300
      py      :     0.918673
      dz2     :     0.208449  d :     0.767840
      dxz     :     0.152531
      dyz     :     0.201713
      dx2y2   :     0.125906
      dxy     :     0.079241
      f0      :     0.009442  f :     0.047294
      f+1     :     0.003557
      f-1     :     0.012694
      f+2     :     0.007795
      f-2     :     0.007565
      f+3     :     0.002570
      f-3     :     0.003671
  4 H s       :     0.696596  s :     0.696596
      pz      :     0.067554  p :     0.268669
      px      :     0.090209
      py      :     0.110907
      dz2     :     0.004086  d :     0.029764
      dxz     :     0.001339
      dyz     :     0.008619
      dx2y2   :     0.007583
      dxy     :     0.008136
  5 C s       :     2.624907  s :     2.624907
      pz      :     0.910119  p :     2.597793
      px      :     0.778001
      py      :     0.909673
      dz2     :     0.158677  d :     0.777554
      dxz     :     0.115915
      dyz     :     0.256889
      dx2y2   :     0.110954
      dxy     :     0.135120
      f0      :     0.011596  f :     0.048063
      f+1     :     0.008277
      f-1     :     0.009400
      f+2     :     0.006538
      f-2     :     0.002072
      f+3     :     0.005711
      f-3     :     0.004469
  6 H s       :     0.700110  s :     0.700110
      pz      :     0.063765  p :     0.258955
      px      :     0.080632
      py      :     0.114558
      dz2     :     0.003534  d :     0.029476
      dxz     :     0.000904
      dyz     :     0.008430
      dx2y2   :     0.008159
      dxy     :     0.008448
  7 C s       :     2.632573  s :     2.632573
      pz      :     0.924856  p :     2.583586
      px      :     0.739929
      py      :     0.918801
      dz2     :     0.169753  d :     0.819121
      dxz     :     0.118656
      dyz     :     0.247323
      dx2y2   :     0.135583
      dxy     :     0.147806
      f0      :     0.012294  f :     0.048937
      f+1     :     0.007068
      f-1     :     0.008685
      f+2     :     0.007167
      f-2     :     0.003552
      f+3     :     0.004640
      f-3     :     0.005530
  8 H s       :     0.699100  s :     0.699100
      pz      :     0.095414  p :     0.261683
      px      :     0.084000
      py      :     0.082269
      dz2     :     0.008263  d :     0.029539
      dxz     :     0.005707
      dyz     :     0.008603
      dx2y2   :     0.003304
      dxy     :     0.003662
  9 H s       :     0.695933  s :     0.695933
      pz      :     0.104676  p :     0.286044
      px      :     0.096027
      py      :     0.085341
      dz2     :     0.009246  d :     0.029618
      dxz     :     0.005993
      dyz     :     0.008918
      dx2y2   :     0.002771
      dxy     :     0.002690
 10 C s       :     2.623967  s :     2.623967
      pz      :     0.908085  p :     2.595134
      px      :     0.834565
      py      :     0.852484
      dz2     :     0.191105  d :     0.791092
      dxz     :     0.176398
      dyz     :     0.197586
      dx2y2   :     0.103143
      dxy     :     0.122860
      f0      :     0.007736  f :     0.047967
      f+1     :     0.010259
      f-1     :     0.011040
      f+2     :     0.004788
      f-2     :     0.005731
      f+3     :     0.004452
      f-3     :     0.003961
 11 C s       :     2.631658  s :     2.631658
      pz      :     0.927066  p :     2.577055
      px      :     0.802610
      py      :     0.847380
      dz2     :     0.211927  d :     0.800993
      dxz     :     0.133838
      dyz     :     0.143547
      dx2y2   :     0.154136
      dxy     :     0.157545
      f0      :     0.006784  f :     0.048782
      f+1     :     0.006819
      f-1     :     0.009773
      f+2     :     0.010393
      f-2     :     0.007716
      f+3     :     0.004125
      f-3     :     0.003172
 12 C s       :     2.625012  s :     2.625012
      pz      :     0.910274  p :     2.594063
      px      :     0.830340
      py      :     0.853449
      dz2     :     0.156198  d :     0.779377
      dxz     :     0.173732
      dyz     :     0.211245
      dx2y2   :     0.120941
      dxy     :     0.117261
      f0      :     0.010664  f :     0.048182
      f+1     :     0.009965
      f-1     :     0.009686
      f+2     :     0.001123
      f-2     :     0.006286
      f+3     :     0.004513
      f-3     :     0.005945
 13 H s       :     0.701322  s :     0.701322
      pz      :     0.118931  p :     0.265913
      px      :     0.077723
      py      :     0.069259
      dz2     :     0.011738  d :     0.029405
      dxz     :     0.008583
      dyz     :     0.008587
      dx2y2   :     0.000231
      dxy     :     0.000266
 14 C s       :     2.628333  s :     2.628333
      pz      :     0.909983  p :     2.604949
      px      :     0.819024
      py      :     0.875942
      dz2     :     0.218614  d :     0.775322
      dxz     :     0.163365
      dyz     :     0.182478
      dx2y2   :     0.088993
      dxy     :     0.121872
      f0      :     0.010229  f :     0.047345
      f+1     :     0.005392
      f-1     :     0.008738
      f+2     :     0.009580
      f-2     :     0.007850
      f+3     :     0.003535
      f-3     :     0.002021
 15 H s       :     0.698838  s :     0.698838
      pz      :     0.090784  p :     0.261413
      px      :     0.088568
      py      :     0.082061
      dz2     :     0.007595  d :     0.029490
      dxz     :     0.006416
      dyz     :     0.007144
      dx2y2   :     0.004244
      dxy     :     0.004091
 16 C s       :     2.631710  s :     2.631710
      pz      :     0.923476  p :     2.585078
      px      :     0.799519
      py      :     0.862082
      dz2     :     0.176279  d :     0.811264
      dxz     :     0.154776
      dyz     :     0.191627
      dx2y2   :     0.149369
      dxy     :     0.139212
      f0      :     0.012020  f :     0.048789
      f+1     :     0.006925
      f-1     :     0.007792
      f+2     :     0.004234
      f-2     :     0.008236
      f+3     :     0.004947
      f-3     :     0.004635
 17 H s       :     0.697833  s :     0.697833
      pz      :     0.062425  p :     0.264332
      px      :     0.093612
      py      :     0.108295
      dz2     :     0.003286  d :     0.029585
      dxz     :     0.003579
      dyz     :     0.005481
      dx2y2   :     0.008962
      dxy     :     0.008277
 18 H s       :     0.696371  s :     0.696371
      pz      :     0.107969  p :     0.282282
      px      :     0.081079
      py      :     0.093234
      dz2     :     0.009821  d :     0.029580
      dxz     :     0.007185
      dyz     :     0.008304
      dx2y2   :     0.002125
      dxy     :     0.002144
 19 Cls       :     5.588320  s :     5.588320
      pz      :     3.681584  p :    11.097966
      px      :     3.733685
      py      :     3.682697
      dz2     :     0.039666  d :     0.168058
      dxz     :     0.025216
      dyz     :     0.045120
      dx2y2   :     0.021784
      dxy     :     0.036272
      f0      :     0.000179  f :     0.001283
      f+1     :     0.000073
      f-1     :     0.000344
      f+2     :     0.000258
      f-2     :     0.000227
      f+3     :     0.000101
      f-3     :     0.000101
 20 C s       :     2.787940  s :     2.787940
      pz      :     1.011554  p :     2.718599
      px      :     0.879771
      py      :     0.827275
      dz2     :     0.131585  d :     0.414384
      dxz     :     0.114529
      dyz     :     0.084159
      dx2y2   :     0.038767
      dxy     :     0.045343
      f0      :     0.005060  f :     0.033371
      f+1     :     0.010514
      f-1     :     0.004517
      f+2     :     0.005122
      f-2     :     0.006043
      f+3     :     0.000998
      f-3     :     0.001117
 21 C s       :     2.785127  s :     2.785127
      pz      :     1.008178  p :     2.719161
      px      :     0.907096
      py      :     0.803888
      dz2     :     0.107496  d :     0.390037
      dxz     :     0.096098
      dyz     :     0.071126
      dx2y2   :     0.073312
      dxy     :     0.042006
      f0      :     0.005080  f :     0.033832
      f+1     :     0.011053
      f-1     :     0.004454
      f+2     :     0.005453
      f-2     :     0.005612
      f+3     :     0.000985
      f-3     :     0.001195
 22 H s       :     0.723806  s :     0.723806
      pz      :     0.158301  p :     0.354186
      px      :     0.101995
      py      :     0.093889
      dz2     :     0.008090  d :     0.029283
      dxz     :     0.008649
      dyz     :     0.006797
      dx2y2   :     0.002823
      dxy     :     0.002924
 23 H s       :     0.769649  s :     0.769649
      pz      :     0.085783  p :     0.232989
      px      :     0.071984
      py      :     0.075223
      dz2     :     0.005052  d :     0.007150
      dxz     :     0.001051
      dyz     :     0.000640
      dx2y2   :     0.000238
      dxy     :     0.000169
 24 H s       :     0.734303  s :     0.734303
      pz      :     0.121059  p :     0.313361
      px      :     0.096755
      py      :     0.095547
      dz2     :     0.009431  d :     0.028973
      dxz     :     0.008801
      dyz     :     0.005844
      dx2y2   :     0.002615
      dxy     :     0.002281
 25 H s       :     0.702470  s :     0.702470
      pz      :     0.119588  p :     0.266047
      px      :     0.085795
      py      :     0.060665
      dz2     :     0.011829  d :     0.029382
      dxz     :     0.008512
      dyz     :     0.008825
      dx2y2   :     0.000134
      dxy     :     0.000081
 26 H s       :     0.697126  s :     0.697126
      pz      :     0.070837  p :     0.268164
      px      :     0.100352
      py      :     0.096975
      dz2     :     0.004595  d :     0.029747
      dxz     :     0.004120
      dyz     :     0.006344
      dx2y2   :     0.007538
      dxy     :     0.007150


                      *****************************
                      * MAYER POPULATION ANALYSIS *
                      *****************************

  NA   - Mulliken gross atomic population
  ZA   - Total nuclear charge
  QA   - Mulliken gross atomic charge
  VA   - Mayer's total valence
  BVA  - Mayer's bonded valence
  FA   - Mayer's free valence

  ATOM       NA         ZA         QA         VA         BVA        FA
  0 Zr    12.8690    12.0000    -0.8690     6.9175     6.9175    -0.0000
  1 C      5.9553     6.0000     0.0447     3.7744     3.7744     0.0000
  2 C      5.7695     6.0000     0.2305     3.6032     3.6032     0.0000
  3 C      5.8757     6.0000     0.1243     3.7570     3.7570     0.0000
  4 H      0.9291     1.0000     0.0709     0.9945     0.9945     0.0000
  5 C      5.8866     6.0000     0.1134     3.8403     3.8403     0.0000
  6 H      0.9368     1.0000     0.0632     1.0462     1.0462     0.0000
  7 C      6.0938     6.0000    -0.0938     4.0243     4.0243     0.0000
  8 H      0.9663     1.0000     0.0337     1.0466     1.0466     0.0000
  9 H      0.9147     1.0000     0.0853     1.0241     1.0241    -0.0000
 10 C      5.9375     6.0000     0.0625     3.8276     3.8276    -0.0000
 11 C      5.9970     6.0000     0.0030     3.9149     3.9149    -0.0000
 12 C      5.8051     6.0000     0.1949     3.6628     3.6628     0.0000
 13 H      0.9354     1.0000     0.0646     0.9773     0.9773     0.0000
 14 C      5.9285     6.0000     0.0715     3.7863     3.7863    -0.0000
 15 H      0.9638     1.0000     0.0362     1.0493     1.0493     0.0000
 16 C      6.0020     6.0000    -0.0020     3.8905     3.8905    -0.0000
 17 H      0.8445     1.0000     0.1555     0.9597     0.9597    -0.0000
 18 H      0.9713     1.0000     0.0287     1.0914     1.0914    -0.0000
 19 Cl    17.5520    17.0000    -0.5520     0.7645     0.7645    -0.0000
 20 C      6.0446     6.0000    -0.0446     4.1941     4.1941    -0.0000
 21 C      5.9819     6.0000     0.0181     4.0660     4.0660    -0.0000
 22 H      0.8985     1.0000     0.1015     0.9990     0.9990    -0.0000
 23 H      1.0998     1.0000    -0.0998     0.7070     0.7070    -0.0000
 24 H      0.9336     1.0000     0.0664     0.9726     0.9726    -0.0000
 25 H      0.9514     1.0000     0.0486     1.0126     1.0126    -0.0000
 26 H      0.9565     1.0000     0.0435     1.0227     1.0227    -0.0000

  Mayer bond orders larger than 0.100000
B(  0-Zr,  1-C ) :   0.2779 B(  0-Zr,  2-C ) :   0.3490 B(  0-Zr,  3-C ) :   0.4774 
B(  0-Zr,  5-C ) :   0.4986 B(  0-Zr,  7-C ) :   0.4621 B(  0-Zr,  8-H ) :   0.1132 
B(  0-Zr, 10-C ) :   0.4839 B(  0-Zr, 11-C ) :   0.3180 B(  0-Zr, 12-C ) :   0.4156 
B(  0-Zr, 14-C ) :   0.4926 B(  0-Zr, 15-H ) :   0.1198 B(  0-Zr, 16-C ) :   0.3323 
B(  0-Zr, 19-Cl) :   0.7637 B(  0-Zr, 20-C ) :   0.2974 B(  0-Zr, 23-H ) :   0.9904 
B(  1-C ,  2-C ) :   1.3490 B(  1-C ,  3-C ) :   1.3117 B(  1-C , 25-H ) :   0.9396 
B(  2-C ,  4-H ) :   0.8557 B(  2-C ,  5-C ) :   1.1795 B(  3-C ,  6-H ) :   0.9118 
B(  3-C ,  7-C ) :   1.2711 B(  5-C ,  7-C ) :   1.2842 B(  5-C ,  8-H ) :   0.9129 
B(  7-C ,  9-H ) :   0.9587 B(  7-C , 19-Cl) :   0.1072 B( 10-C , 11-C ) :   1.3652 
B( 10-C , 12-C ) :   1.2024 B( 10-C , 26-H ) :   0.8860 B( 11-C , 13-H ) :   0.9462 
B( 11-C , 14-C ) :   1.3407 B( 12-C , 15-H ) :   0.8904 B( 12-C , 16-C ) :   1.2581 
B( 14-C , 16-C ) :   1.3227 B( 14-C , 17-H ) :   0.8684 B( 14-C , 19-Cl) :  -0.1319 
B( 16-C , 18-H ) :   0.9646 B( 20-C , 21-C ) :   2.9928 B( 20-C , 22-H ) :   0.8332 
B( 21-C , 22-H ) :   0.1412 B( 21-C , 24-H ) :   0.9532 

-------
TIMINGS
-------

Total SCF time: 0 days 0 hours 12 min 19 sec 

Total time                  ....     739.405 sec
Sum of individual times     ....     738.257 sec  ( 99.8%)

Fock matrix formation       ....     731.336 sec  ( 98.9%)
  XC integration            ....       6.443 sec  (  0.9% of F)
    Basis function eval.    ....       1.013 sec  ( 15.7% of XC)
    Density eval.           ....       2.006 sec  ( 31.1% of XC)
    XC-Functional eval.     ....       0.088 sec  (  1.4% of XC)
    XC-Potential eval.      ....       2.545 sec  ( 39.5% of XC)
Diagonalization             ....       2.116 sec  (  0.3%)
Density matrix formation    ....       0.093 sec  (  0.0%)
Population analysis         ....       0.129 sec  (  0.0%)
Initial guess               ....       2.604 sec  (  0.4%)
Orbital Transformation      ....       0.000 sec  (  0.0%)
Orbital Orthonormalization  ....       0.000 sec  (  0.0%)
DIIS solution               ....       1.274 sec  (  0.2%)
Grid generation             ....       0.705 sec  (  0.1%)

-------------------------   --------------------
FINAL SINGLE POINT ENERGY      -972.364826359936
-------------------------   --------------------


                            ***************************************
                            *     ORCA property calculations      *
                            ***************************************

                                    ---------------------
                                    Active property flags
                                    ---------------------
   (+) Dipole Moment


------------------------------------------------------------------------------
                       ORCA ELECTRIC PROPERTIES CALCULATION
------------------------------------------------------------------------------

Dipole Moment Calculation                       ... on
Quadrupole Moment Calculation                   ... off
Polarizability Calculation                      ... off
GBWName                                         ... TMB01_T1.gbw
Electron density file                           ... TMB01_T1.scfp
The origin for moment calculation is the CENTER OF MASS  = (-0.006447,  0.038225 -0.041973)

-------------
DIPOLE MOMENT
-------------
                                X             Y             Z
Electronic contribution:      0.48082       2.12146       2.54596
Nuclear contribution   :     -0.31433      -2.93943      -1.59819
                        -----------------------------------------
Total Dipole Moment    :      0.16649      -0.81797       0.94777
                        -----------------------------------------
Magnitude (a.u.)       :      1.26296
Magnitude (Debye)      :      3.21019



--------------------
Rotational spectrum 
--------------------
 
Rotational constants in cm-1:     0.021527     0.019953     0.016159 
Rotational constants in MHz :   645.375909   598.178243   484.447118 

 Dipole components along the rotational axes: 
x,y,z [a.u.] :     0.158060    -0.867676     0.904003 
x,y,z [Debye]:     0.401757    -2.205458     2.297794 

 

Timings for individual modules:

Sum of individual times         ...      743.467 sec (=  12.391 min)
GTO integral calculation        ...        3.652 sec (=   0.061 min)   0.5 %
SCF iterations                  ...      739.814 sec (=  12.330 min)  99.5 %
                             ****ORCA TERMINATED NORMALLY****
TOTAL RUN TIME: 0 days 0 hours 12 minutes 24 seconds 73 msec
