
                                 *****************
                                 * O   R   C   A *
                                 *****************

           --- An Ab Initio, DFT and Semiempirical electronic structure package ---

                  #######################################################
                  #                        -***-                        #
                  #          Department of theory and spectroscopy      #
                  #               Directorship: Frank Neese             #
                  #        Max Planck Institute fuer Kohlenforschung    #
                  #                Kaiser Wilhelm Platz 1               #
                  #                 D-45470 Muelheim/Ruhr               #
                  #                      Germany                        #
                  #                                                     #
                  #                  All rights reserved                #
                  #                        -***-                        #
                  #######################################################


                         Program Version 4.2.0 -  RELEASE  -


 With contributions from (in alphabetic order):
   Daniel Aravena         : Magnetic Suceptibility
   Michael Atanasov       : Ab Initio Ligand Field Theory (pilot matlab implementation)
   Alexander A. Auer      : GIAO ZORA, VPT2
   Ute Becker             : Parallelization
   Giovanni Bistoni       : ED, misc. LED, open-shell LED, HFLED
   Martin Brehm           : Molecular dynamics
   Dmytro Bykov           : SCF Hessian
   Vijay G. Chilkuri      : MRCI spin determinant printing, contributions to CSF-ICE
   Dipayan Datta          : RHF DLPNO-CCSD density
   Achintya Kumar Dutta   : EOM-CC, STEOM-CC
   Dmitry Ganyushin       : Spin-Orbit,Spin-Spin,Magnetic field MRCI
   Miquel Garcia          : C-PCM Hessian, Gaussian charge scheme
   Yang Guo               : DLPNO-NEVPT2, CIM, IAO-localization
   Andreas Hansen         : Spin unrestricted coupled pair/coupled cluster methods
   Benjamin Helmich-Paris : CASSCF linear response (MC-RPA)
   Lee Huntington         : MR-EOM, pCC
   Robert Izsak           : Overlap fitted RIJCOSX, COSX-SCS-MP3, EOM
   Christian Kollmar      : KDIIS, OOCD, Brueckner-CCSD(T), CCSD density
   Simone Kossmann        : Meta GGA functionals, TD-DFT gradient, OOMP2, MP2 Hessian
   Martin Krupicka        : AUTO-CI
   Lucas Lang             : DCDCAS
   Dagmar Lenk            : GEPOL surface, SMD
   Dimitrios Liakos       : Extrapolation schemes; Compound Job, initial MDCI parallelization
   Dimitrios Manganas     : Further ROCIS development; embedding schemes
   Dimitrios Pantazis     : SARC Basis sets
   Taras Petrenko         : DFT Hessian,TD-DFT gradient, ASA, ECA, R-Raman, ABS, FL, XAS/XES, NRVS
   Peter Pinski           : DLPNO-MP2, DLPNO-MP2 Gradient
   Christoph Reimann      : Effective Core Potentials
   Marius Retegan         : Local ZFS, SOC
   Christoph Riplinger    : Optimizer, TS searches, QM/MM, DLPNO-CCSD(T), (RO)-DLPNO pert. Triples
   Tobias Risthaus        : Range-separated hybrids, TD-DFT gradient, RPA, STAB
   Michael Roemelt        : Original ROCIS implementation
   Masaaki Saitow         : Open-shell DLPNO-CCSD energy and density
   Barbara Sandhoefer     : DKH picture change effects
   Avijit Sen             : IP-ROCIS
   Kantharuban Sivalingam : CASSCF convergence, NEVPT2, FIC-MRCI
   Bernardo de Souza      : ESD, SOC TD-DFT
   Georgi Stoychev        : AutoAux, RI-MP2 NMR
   Willem Van den Heuvel  : Paramagnetic NMR
   Boris Wezisla          : Elementary symmetry handling
   Frank Wennmohs         : Technical directorship


 We gratefully acknowledge several colleagues who have allowed us to
 interface, adapt or use parts of their codes:
   Stefan Grimme, W. Hujo, H. Kruse,             : VdW corrections, initial TS optimization,
                  C. Bannwarth                     DFT functionals, gCP, sTDA/sTD-DF
   Ed Valeev, F. Pavosevic, A. Kumar             : LibInt (2-el integral package), F12 methods
   Garnet Chan, S. Sharma, J. Yang, R. Olivares  : DMRG
   Ulf Ekstrom                                   : XCFun DFT Library
   Mihaly Kallay                                 : mrcc  (arbitrary order and MRCC methods)
   Andreas Klamt, Michael Diedenhofen            : otool_cosmo (COSMO solvation model)
   Jiri Pittner, Ondrej Demel                    : Mk-CCSD
   Frank Weinhold                                : gennbo (NPA and NBO analysis)
   Christopher J. Cramer and Donald G. Truhlar   : smd solvation model
   Lars Goerigk                                  : TD-DFT with DH, B97 family of functionals
   V. Asgeirsson, H. Jonsson                     : NEB implementation
   FAccTs GmbH                                   : IRC, NEB, NEB-TS, Multilevel, MM, QM/MM, CI optimization
   S Lehtola, MJT Oliveira, MAL Marques          : LibXC Library


 Your calculation uses the libint2 library for the computation of 2-el integrals
 For citations please refer to: http://libint.valeyev.net

 Your ORCA version has been built with support for libXC version: 4.2.3
 For citations please refer to: https://tddft.org/programs/libxc/

 This ORCA versions uses:
   CBLAS   interface :  Fast vector & matrix operations
   LAPACKE interface :  Fast linear algebra routines
   SCALAPACK package :  Parallel linear algebra routines


Your calculation utilizes the DFT-NL dispersion correction.
Cite in your paper:
Vydrov, O. A.; Van Voorhis, T. J. Chem. Phys. 2010, 133, 244103
Hujo, W.; Grimme, S. J. Chem. Theory Comput. 2011, 7, 3866 
   

----- Orbital basis set information -----
Your calculation utilizes the basis: def2-TZVPPD
   F. Weigend and R. Ahlrichs, Phys. Chem. Chem. Phys. 7, 3297 (2005).
   D. Rappoport and F. Furche, J. Chem. Phys. 133 134105 (2010).

----- AuxJK basis set information -----
Your calculation utilizes the auxiliary basis: def2/JK
   H-Ba, Hf-Rn: F. Weigend, J. Comput. Chem. 29, 167 (2008).

cite the ECPs for Zr [Def2-ECP] as follows:
Ce-Yb(ecp-28): M. Dolg, H. Stoll, H.Preuss, J. Chem. Phys., 1989, 90, 1730-1734.
Y-Cd(ecp-28), Hf-Hg(ecp-46): D. Andrae,U. Haeussermann, M. Dolg, H. Stoll, H. Preuss, Theor. Chim. Acta, 1990, 77, 123-141.
In-Sb(ecp-28), Tl-Bi(ecp-46): B. Metz, H. Stoll, M. Dolg, J. Chem. Phys., 2000, 113, 2563-2569.
Te-Xe(ecp-28), Po-Rn(ecp-46): K. A. Peterson, D. Figgen, E. Goll, H. Stoll, M. Dolg, J. Chem. Phys., 2003, 119, 11113-11123.
Rb(ecp-28), Cs(ecp-46): T. Leininger, A. Nicklass, W. Kuechle, H. Stoll, M. Dolg, A. Bergner, Chem. Phys. Lett., 1996, 255, 274-280.
Sr(ecp-28), Ba(ecp-46): M. Kaupp, P. V. Schleyer, H. Stoll and H. Preuss, J. Chem. Phys., 1991, 94, 1360-1366.
La(ecp-46): M. Dolg, H. Stoll, A. Savin, H. Preuss, Theor. Chim. Acta, 1989, 75, 173-194.
Lu(ecp-28): X. Cao, M. Dolg, J. Chem. Phys., 2001, 115, 7348-7355.

ECP parameters for Zr [Def2-ECP] have been obtained from:
TURBOMOLE (7.0.2)

================================================================================
                                        WARNINGS
                       Please study these warnings very carefully!
================================================================================


INFO   : the flag for use of LIBINT has been found!

================================================================================
                                       INPUT FILE
================================================================================
NAME = TMB01_R1.in
|  1> #
|  2> # TMB01_R1 wB97X-V/Def2-TZVPPD
|  3> #
|  4> ! wb97x-v def2-tzvppd def2/jk grid4 nofinalgrid
|  5> 
|  6> *xyz 0 1
|  7> Zr      -0.000671    0.112924   -0.223454 
|  8> C       -2.181938   -0.834851   -1.042825 
|  9> C       -1.643164   -1.771750   -0.135830 
| 10> C       -2.502306    0.332733   -0.316676 
| 11> H       -1.308937   -2.768103   -0.380464 
| 12> C       -1.636664   -1.184419    1.151214 
| 13> H       -2.895434    1.248967   -0.729119 
| 14> C       -2.175001    0.113493    1.036510 
| 15> H       -1.306352   -1.655857    2.064126 
| 16> H       -2.282924    0.831022    1.835850 
| 17> C        1.600796   -1.794999   -0.006343 
| 18> C        2.125532   -0.971960   -1.023204 
| 19> C        1.653632   -1.076274    1.213076 
| 20> H        2.228565   -1.232630   -2.063673 
| 21> C        2.505388    0.254502   -0.432287 
| 22> H        1.350619   -1.442345    2.182051 
| 23> C        2.228391    0.183709    0.945544 
| 24> H        2.903936    1.111956   -0.952399 
| 25> H        2.382975    0.976423    1.661482 
| 26> Cl       0.011968    2.512474    0.074703 
| 27> H       -0.001250   -0.010619   -2.053074 
| 28> H       -2.330784   -0.986753   -2.099038 
| 29> H        1.234974   -2.802168   -0.132604 
| 30> *
| 31> 
| 32> %maxcore 5000
| 33> 
| 34> %pal
| 35> nprocs = 24
| 36> end
| 37> 
| 38> 
| 39>                          ****END OF INPUT****
================================================================================

                       ****************************
                       * Single Point Calculation *
                       ****************************

---------------------------------
CARTESIAN COORDINATES (ANGSTROEM)
---------------------------------
  Zr    -0.000671    0.112924   -0.223454
  C     -2.181938   -0.834851   -1.042825
  C     -1.643164   -1.771750   -0.135830
  C     -2.502306    0.332733   -0.316676
  H     -1.308937   -2.768103   -0.380464
  C     -1.636664   -1.184419    1.151214
  H     -2.895434    1.248967   -0.729119
  C     -2.175001    0.113493    1.036510
  H     -1.306352   -1.655857    2.064126
  H     -2.282924    0.831022    1.835850
  C      1.600796   -1.794999   -0.006343
  C      2.125532   -0.971960   -1.023204
  C      1.653632   -1.076274    1.213076
  H      2.228565   -1.232630   -2.063673
  C      2.505388    0.254502   -0.432287
  H      1.350619   -1.442345    2.182051
  C      2.228391    0.183709    0.945544
  H      2.903936    1.111956   -0.952399
  H      2.382975    0.976423    1.661482
  Cl     0.011968    2.512474    0.074703
  H     -0.001250   -0.010619   -2.053074
  H     -2.330784   -0.986753   -2.099038
  H      1.234974   -2.802168   -0.132604

----------------------------
CARTESIAN COORDINATES (A.U.)
----------------------------
  NO LB      ZA    FRAG     MASS         X           Y           Z
   0 Zr   12.0000*   0    91.220   -0.001268    0.213395   -0.422267
   1 C     6.0000    0    12.011   -4.123265   -1.577640   -1.970654
   2 C     6.0000    0    12.011   -3.105130   -3.348122   -0.256682
   3 C     6.0000    0    12.011   -4.728673    0.628774   -0.598431
   4 H     1.0000    0     1.008   -2.473532   -5.230957   -0.718973
   5 C     6.0000    0    12.011   -3.092847   -2.238228    2.175479
   6 H     1.0000    0     1.008   -5.471577    2.360206   -1.377835
   7 C     6.0000    0    12.011   -4.110156    0.214471    1.958720
   8 H     1.0000    0     1.008   -2.468648   -3.129116    3.900633
   9 H     1.0000    0     1.008   -4.314101    1.570404    3.469254
  10 C     6.0000    0    12.011    3.025066   -3.392057   -0.011987
  11 C     6.0000    0    12.011    4.016673   -1.836738   -1.933575
  12 C     6.0000    0    12.011    3.124912   -2.033863    2.292381
  13 H     1.0000    0     1.008    4.211378   -2.329333   -3.899777
  14 C     6.0000    0    12.011    4.734497    0.480939   -0.816904
  15 H     1.0000    0     1.008    2.552300   -2.725637    4.123479
  16 C     6.0000    0    12.011    4.211049    0.347160    1.786819
  17 H     1.0000    0     1.008    5.487644    2.101292   -1.799773
  18 H     1.0000    0     1.008    4.503170    1.845172    3.139746
  19 Cl   17.0000    0    35.453    0.022616    4.747888    0.141168
  20 H     1.0000    0     1.008   -0.002362   -0.020067   -3.879748
  21 H     1.0000    0     1.008   -4.404543   -1.864693   -3.966607
  22 H     1.0000    0     1.008    2.333763   -5.295330   -0.250585
* core charge reduced due to ECP

--------------------------------
INTERNAL COORDINATES (ANGSTROEM)
--------------------------------
 Zr     0   0   0     0.000000000000     0.00000000     0.00000000
 C      1   0   0     2.515466559419     0.00000000     0.00000000
 C      2   1   0     1.410920653085    73.12247516     0.00000000
 C      2   1   3     1.411800418856    73.59840866   114.94503470
 H      3   2   1     1.079014727469   125.85250426   245.37267947
 C      3   2   1     1.414737506217   108.11325565    66.23793646
 H      4   2   1     1.078954862536   126.04072486   111.68690894
 C      4   2   1     1.409364073340   108.20939605   293.76875367
 H      6   3   2     1.079244237850   126.12795999   178.46472239
 H      8   4   2     1.079555313715   125.75431252   178.45751450
 C      1   2   3     2.500400750348   107.22796614    37.91257856
 C     11   1   2     1.409520258293    74.35024165   114.93379122
 C     11   1   2     1.416453305295    73.22968211   229.87141530
 H     12  11   1     1.077562243191   126.22323460   245.56044773
 C     12  11   1     1.413393971640   107.76560677    66.10921066
 H     13  11   1     1.079230005993   126.18261805   115.05657889
 C     15  12  11     1.407180603696   108.22840952     0.56700398
 H     15  12  11     1.079159099931   125.96041597   182.70881656
 H     17  15  12     1.079286300615   125.75809091   181.83498265
 Cl     1   2   3     2.418035885480   114.74596236   216.43021223
 H      1   2   3     1.833786397727    69.47288006   123.52537725
 H      2   1   3     1.077411365584   119.48808811   237.59279035
 H     11   1   2     1.078961060635   119.00971341   352.14516703

---------------------------
INTERNAL COORDINATES (A.U.)
---------------------------
 Zr     0   0   0     0.000000000000     0.00000000     0.00000000
 C      1   0   0     4.753542896339     0.00000000     0.00000000
 C      2   1   0     2.666253631024    73.12247516     0.00000000
 C      2   1   3     2.667916147392    73.59840866   114.94503470
 H      3   2   1     2.039042329383   125.85250426   245.37267947
 C      3   2   1     2.673466438137   108.11325565    66.23793646
 H      4   2   1     2.038929201055   126.04072486   111.68690894
 C      4   2   1     2.663312121600   108.20939605   293.76875367
 H      6   3   2     2.039476041149   126.12795999   178.46472239
 H      8   4   2     2.040063889341   125.75431252   178.45751450
 C      1   2   3     4.725072643208   107.22796614    37.91257856
 C     11   1   2     2.663607268387    74.35024165   114.93379122
 C     11   1   2     2.676708828496    73.22968211   229.87141530
 H     12  11   1     2.036297531884   126.22323460   245.56044773
 C     12  11   1     2.670927525735   107.76560677    66.10921066
 H     13  11   1     2.039449146836   126.18261805   115.05657889
 C     15  12  11     2.659185961952   108.22840952     0.56700398
 H     15  12  11     2.039315153799   125.96041597   182.70881656
 H     17  15  12     2.039555528256   125.75809091   181.83498265
 Cl     1   2   3     4.569425605551   114.74596236   216.43021223
 H      1   2   3     3.465354079815    69.47288006   123.52537725
 H      2   1   3     2.036012414527   119.48808811   237.59279035
 H     11   1   2     2.038940913765   119.00971341   352.14516703

---------------------
BASIS SET INFORMATION
---------------------
There are 4 groups of distinct atoms

 Group   1 Type Zr  : 7s7p5d2f1g contracted to 6s4p3d2f1g pattern {211111/4111/311/11/1}
 Group   2 Type C   : 12s6p3d1f contracted to 6s3p3d1f pattern {621111/411/111/1}
 Group   3 Type H   : 5s3p1d contracted to 3s3p1d pattern {311/111/1}
 Group   4 Type Cl  : 15s10p4d1f contracted to 6s6p4d1f pattern {732111/511111/1111/1}

Atom   0Zr   basis set group =>   1
Atom   1C    basis set group =>   2
Atom   2C    basis set group =>   2
Atom   3C    basis set group =>   2
Atom   4H    basis set group =>   3
Atom   5C    basis set group =>   2
Atom   6H    basis set group =>   3
Atom   7C    basis set group =>   2
Atom   8H    basis set group =>   3
Atom   9H    basis set group =>   3
Atom  10C    basis set group =>   2
Atom  11C    basis set group =>   2
Atom  12C    basis set group =>   2
Atom  13H    basis set group =>   3
Atom  14C    basis set group =>   2
Atom  15H    basis set group =>   3
Atom  16C    basis set group =>   2
Atom  17H    basis set group =>   3
Atom  18H    basis set group =>   3
Atom  19Cl   basis set group =>   4
Atom  20H    basis set group =>   3
Atom  21H    basis set group =>   3
Atom  22H    basis set group =>   3
----------------------------------
AUXILIARY/JK BASIS SET INFORMATION
----------------------------------
There are 4 groups of distinct atoms

 Group   1 Type Zr  : 13s12p10d9f6g3h2i contracted to 11s10p9d8f6g3h2i pattern {31111111111/3111111111/211111111/21111111/111111/111/11}
 Group   2 Type C   : 14s10p6d2f1g contracted to 10s8p5d1f1g pattern {5111111111/31111111/21111/2/1}
 Group   3 Type H   : 4s2p2d contracted to 2s2p2d pattern {31/11/11}
 Group   4 Type Cl  : 16s12p10d4f1g contracted to 13s11p9d4f1g pattern {4111111111111/21111111111/211111111/1111/1}

Atom   0Zr   basis set group =>   1
Atom   1C    basis set group =>   2
Atom   2C    basis set group =>   2
Atom   3C    basis set group =>   2
Atom   4H    basis set group =>   3
Atom   5C    basis set group =>   2
Atom   6H    basis set group =>   3
Atom   7C    basis set group =>   2
Atom   8H    basis set group =>   3
Atom   9H    basis set group =>   3
Atom  10C    basis set group =>   2
Atom  11C    basis set group =>   2
Atom  12C    basis set group =>   2
Atom  13H    basis set group =>   3
Atom  14C    basis set group =>   2
Atom  15H    basis set group =>   3
Atom  16C    basis set group =>   2
Atom  17H    basis set group =>   3
Atom  18H    basis set group =>   3
Atom  19Cl   basis set group =>   4
Atom  20H    basis set group =>   3
Atom  21H    basis set group =>   3
Atom  22H    basis set group =>   3
-------------------------
ECP PARAMETER INFORMATION
-------------------------

 Group 1, Type Zr ECP Def2-ECP (replacing 28 core electrons, lmax=3)

Atom   0Zr   ECP group =>   1



           ************************************************************
           *        Program running with 24 parallel MPI-processes    *
           *              working on a common directory               *
           ************************************************************
------------------------------------------------------------------------------
                           ORCA GTO INTEGRAL CALCULATION
------------------------------------------------------------------------------

                         BASIS SET STATISTICS AND STARTUP INFO

 # of primitive gaussian shells          ...  371
 # of primitive gaussian functions       ...  877
 # of contracted shells                  ...  240
 # of contracted basis functions         ...  664
 Highest angular momentum                ...    4
 Maximum contraction depth               ...    7
 Integral package used                   ... LIBINT
 Integral threshhold            Thresh   ...  1.000e-10
 Primitive cut-off              TCut     ...  1.000e-11


------------------------------ INTEGRAL EVALUATION ----------------------------


 * One electron integrals 

   ECP integrals                         ... done
 Pre-screening matrix                    ... done
 Shell pair data                         ... done (   0.007 sec)



           ************************************************************
           *        Program running with 24 parallel MPI-processes    *
           *              working on a common directory               *
           ************************************************************
-------------------------------------------------------------------------------
                                 ORCA SCF
-------------------------------------------------------------------------------

------------
SCF SETTINGS
------------
Hamiltonian:
 Density Functional     Method          .... DFT(GTOs)
 Exchange Functional    Exchange        .... WB97X-V
 Correlation Functional Correlation     .... WB97X-V
 Gradients option       PostSCFGGA      .... off
 Hybrid DFT is turned on
   Fraction HF Exchange ScalHFX         ....  0.167000
   Scaling of DF-GGA-X  ScalDFX         ....  0.000000
   Scaling of DF-GGA-C  ScalDFC         ....  1.000000
   Scaling of DF-LDA-C  ScalLDAC        ....  1.000000
   Perturbative correction              ....  0.000000
   Density functional embedding theory  .... OFF
 Long-range corrected/Screened/Range-Separated Hybrid DFT is turned on
   Amount of maximum screened exact exchange              ....  0.833000
   Range separation parameter mu (erf(mu*r12)/r12)        ....  0.300000
   NL short-range parameter             ....  6.000000
   NL long-range parameter              ....  0.010000


General Settings:
 Integral files         IntName         .... TMB01_R1
 Hartree-Fock type      HFTyp           .... RHF
 Total Charge           Charge          ....    0
 Multiplicity           Mult            ....    1
 Number of Electrons    NEL             ....  100
 Basis Dimension        Dim             ....  664
 Nuclear Repulsion      ENuc            ....    842.2257055069 Eh

Convergence Acceleration:
 DIIS                   CNVDIIS         .... on
   Start iteration      DIISMaxIt       ....    12
   Startup error        DIISStart       ....  0.200000
   # of expansion vecs  DIISMaxEq       ....     5
   Bias factor          DIISBfac        ....   1.050
   Max. coefficient     DIISMaxC        ....  10.000
 Newton-Raphson         CNVNR           .... off
 SOSCF                  CNVSOSCF        .... off
 Level Shifting         CNVShift        .... on
   Level shift para.    LevelShift      ....    0.2500
   Turn off err/grad.   ShiftErr        ....    0.0010
 Zerner damping         CNVZerner       .... off
 Static damping         CNVDamp         .... on
   Fraction old density DampFac         ....    0.7000
   Max. Damping (<1)    DampMax         ....    0.9800
   Min. Damping (>=0)   DampMin         ....    0.0000
   Turn off err/grad.   DampErr         ....    0.1000
 Fernandez-Rico         CNVRico         .... off

SCF Procedure:
 Maximum # iterations   MaxIter         ....   125
 SCF integral mode      SCFMode         .... Direct
   Integral package                     .... LIBINT
 Reset frequency        DirectResetFreq ....    20
 Integral Threshold     Thresh          ....  1.000e-10 Eh
 Primitive CutOff       TCut            ....  1.000e-11 Eh

Convergence Tolerance:
 Convergence Check Mode ConvCheckMode   .... Total+1el-Energy
 Convergence forced     ConvForced      .... 0
 Energy Change          TolE            ....  1.000e-06 Eh
 1-El. energy change                    ....  1.000e-03 Eh
 DIIS Error             TolErr          ....  1.000e-06


Diagonalization of the overlap matrix:
Smallest eigenvalue                        ... 8.497e-07
Time for diagonalization                   ...    0.060 sec
Threshold for overlap eigenvalues          ... 1.000e-08
Number of eigenvalues below threshold      ... 0
Time for construction of square roots      ...    0.064 sec
Total time needed                          ...    0.126 sec

-------------------
DFT GRID GENERATION
-------------------

General Integration Accuracy     IntAcc      ...  4.670
Radial Grid Type                 RadialGrid  ... Gauss-Chebyshev
Angular Grid (max. acc.)         AngularGrid ... Lebedev-302
Angular grid pruning method      GridPruning ... 3 (G Style)
Weight generation scheme         WeightScheme... Becke
Basis function cutoff            BFCut       ...    1.0000e-10
Integration weight cutoff        WCut        ...    1.0000e-14
Grids for H and He will be reduced by one unit

# of grid points (after initial pruning)     ... 116874 (   0.0 sec)
# of grid points (after weights+screening)   ... 103126 (   0.1 sec)
nearest neighbour list constructed           ...    0.0 sec
Grid point re-assignment to atoms done       ...    0.0 sec
Grid point division into batches done        ...    0.3 sec
Reduced shell lists constructed in    0.4 sec

Total number of grid points                  ...   103126
Total number of batches                      ...     1623
Average number of points per batch           ...       63
Average number of grid points per atom       ...     4484
Average number of shells per batch           ...   186.09 (77.54%)
Average number of basis functions per batch  ...   541.57 (81.56%)
Average number of large shells per batch     ...   151.90 (81.63%)
Average number of large basis fcns per batch ...   433.23 (80.00%)
Maximum spatial batch extension              ...   1.99,  2.06,  1.83 au
Average spatial batch extension              ...   0.05,  0.05,  0.05 au

Time for grid setup =    0.507 sec

------------------------------
INITIAL GUESS: MODEL POTENTIAL
------------------------------
Loading Hartree-Fock densities                     ... done
  calling /sw/apps/orca/orca_4_2_0_linux_x86-64_openmpi314/orca TMB01_R1_atom40.inp > TMB01_R1_atom40.out in order to generate an atomic fitting density for atom 0 (Zr with ECP) on-the-fly... 
    atom 0 (Zr), assumed electronic state with S=3: 1s2 2s2 2p6 3s2 3p6 4s2 3d10 4p6 4d2 5s2           ... done
Calculating cut-offs                               ... done
Setting up the integral package                    ... done
Initializing the effective Hamiltonian             ... done
Starting the Coulomb interaction                   ... done (   0.1 sec)
Reading the grid                                   ... done
Mapping shells                                     ... done
Starting the XC term evaluation                    ... done (   0.3 sec)
  promolecular density results
     # of electrons  =    127.994734097
     EX              =   -142.808103483
     EC              =     -6.449952396
     EX+EC           =   -149.258055880
Transforming the Hamiltonian                       ... done (   0.1 sec)
Diagonalizing the Hamiltonian                      ... done (   0.1 sec)
Back transforming the eigenvectors                 ... done (   0.0 sec)
Now organizing SCF variables                       ... done
                      ------------------
                      INITIAL GUESS DONE (   3.2 sec)
                      ------------------
--------------
SCF ITERATIONS
--------------
ITER       Energy         Delta-E        Max-DP      RMS-DP      [F,P]     Damp
               ***  Starting incremental Fock matrix formation  ***
  0   -892.8850237893   0.000000000000 0.64159652  0.00447961  0.9052452 0.7000
  1   -894.1367923149  -1.251768525674 0.47370568  0.00315806  0.4321645 0.7000
                               ***Turning on DIIS***
  2   -894.6065134873  -0.469721172388 0.37374533  0.00202803  0.1822481 0.7000
  3   -894.8377866395  -0.231273152131 0.80789133  0.00467873  0.0851976 0.0000
  4   -895.3441737244  -0.506387084913 0.15889002  0.00177260  0.0890927 0.0000
  5   -895.3974569788  -0.053283254398 0.08990189  0.00090878  0.0266400 0.0000
  6   -895.4020559256  -0.004598946815 0.04112080  0.00037851  0.0107973 0.0000
  7   -895.4028463636  -0.000790438045 0.02512986  0.00019438  0.0046731 0.0000
  8   -895.4030262874  -0.000179923721 0.01744993  0.00011707  0.0025433 0.0000
  9   -895.4030863134  -0.000060026081 0.00462560  0.00005814  0.0014119 0.0000
 10   -895.4031028838  -0.000016570379 0.00533570  0.00005253  0.0006918 0.0000
 11   -895.4031078227  -0.000004938933 0.00302871  0.00002693  0.0001038 0.0000
                 **** Energy Check signals convergence ****

               *****************************************************
               *                     SUCCESS                       *
               *           SCF CONVERGED AFTER  12 CYCLES          *
               *****************************************************


Setting up the DFT-NL grid :

General Integration Accuracy     IntAcc      ...  4.340
Radial Grid Type                 RadialGrid  ... Gauss-Chebyshev
Angular Grid (max. acc.)         AngularGrid ... Lebedev-110
Angular grid pruning method      GridPruning ... 3 (G Style)
Weight generation scheme         WeightScheme... Becke
Basis function cutoff            BFCut       ...    1.0000e-10
Integration weight cutoff        WCut        ...    1.0000e-14
Grids for H and He will be reduced by one unit

# of grid points (after initial pruning)     ...  30418 (   0.0 sec)
# of grid points (after weights+screening)   ...  27268 (   0.0 sec)
nearest neighbour list constructed           ...    0.0 sec
Grid point re-assignment to atoms done       ...    0.0 sec
Grid point division into batches done        ...    0.0 sec
Reduced shell lists constructed in    0.0 sec

Total number of grid points                  ...    27268
Total number of batches                      ...      441
Average number of points per batch           ...       61
Average number of grid points per atom       ...     1186
Average number of shells per batch           ...   184.65 (76.94%)
Average number of basis functions per batch  ...   537.05 (80.88%)
Average number of large shells per batch     ...   152.45 (82.56%)
Average number of large basis fcns per batch ...   439.35 (81.81%)
Maximum spatial batch extension              ...   2.73,  3.14,  2.28 au
Average spatial batch extension              ...   0.08,  0.08,  0.08 au

Final grid set up in    0.1 sec

-------------------------------------------------------------------------------
                         DFT-NL dispersion correction                          
-------------------------------------------------------------------------------

SC Energy -895.403108064 
NL    Energy 0.364455651 
SC+NL Energy -895.038652413 
NL done in    0.2 sec
-------------------------------------------------------------------------------

----------------
TOTAL SCF ENERGY
----------------

Total Energy       :         -895.03865241 Eh          -24355.23993 eV

Components:
Nuclear Repulsion  :          842.22570551 Eh           22918.12658 eV
Electronic Energy  :        -1737.26435792 Eh          -47273.36651 eV
One Electron Energy:        -2910.13959680 Eh          -79188.92432 eV
Two Electron Energy:         1172.87523888 Eh           31915.55781 eV

Virial components:
Potential Energy   :        -1756.06930708 Eh          -47785.07519 eV
Kinetic Energy     :          861.03065466 Eh           23429.83526 eV
Virial Ratio       :            2.03949685


DFT components:
N(Alpha)           :       50.000012193034 electrons
N(Beta)            :       50.000012193034 electrons
N(Total)           :      100.000024386068 electrons
E(X)               :      -60.820051495223 Eh       
E(C)               :       -4.295008329973 Eh       
NL Energy, E(C,NL) :        0.364455650812 Eh       
E(XC)              :      -64.750604174384 Eh       
DFET-embed. en.    :        0.000000000000 Eh       

---------------
SCF CONVERGENCE
---------------

  Last Energy change         ...   -2.4138e-07  Tolerance :   1.0000e-06
  Last MAX-Density change    ...    6.5067e-03  Tolerance :   1.0000e-05
  Last RMS-Density change    ...    5.3680e-05  Tolerance :   1.0000e-06
  Last DIIS Error            ...    4.3890e-05  Tolerance :   1.0000e-06

             **** THE GBW FILE WAS UPDATED (TMB01_R1.gbw) ****
             **** DENSITY FILE WAS UPDATED (TMB01_R1.scfp) ****
             **** ENERGY FILE WAS UPDATED (TMB01_R1.en.tmp) ****
             **** THE GBW FILE WAS UPDATED (TMB01_R1.gbw) ****
             **** DENSITY FILE WAS UPDATED (TMB01_R1.scfp) ****
----------------
ORBITAL ENERGIES
----------------

  NO   OCC          E(Eh)            E(eV) 
   0   2.0000    -101.462802     -2760.9432 
   1   2.0000     -10.295710      -280.1605 
   2   2.0000     -10.295024      -280.1419 
   3   2.0000     -10.294214      -280.1198 
   4   2.0000     -10.294070      -280.1159 
   5   2.0000     -10.293355      -280.0964 
   6   2.0000     -10.292980      -280.0862 
   7   2.0000     -10.292337      -280.0687 
   8   2.0000     -10.291984      -280.0591 
   9   2.0000     -10.287645      -279.9410 
  10   2.0000     -10.287408      -279.9346 
  11   2.0000      -9.504187      -258.6221 
  12   2.0000      -7.254066      -197.3932 
  13   2.0000      -7.253132      -197.3678 
  14   2.0000      -7.251834      -197.3324 
  15   2.0000      -2.259792       -61.4921 
  16   2.0000      -1.393935       -37.9309 
  17   2.0000      -1.390891       -37.8481 
  18   2.0000      -1.382239       -37.6126 
  19   2.0000      -1.040207       -28.3055 
  20   2.0000      -1.028166       -27.9778 
  21   2.0000      -0.886475       -24.1222 
  22   2.0000      -0.861327       -23.4379 
  23   2.0000      -0.860220       -23.4078 
  24   2.0000      -0.859022       -23.3752 
  25   2.0000      -0.855607       -23.2823 
  26   2.0000      -0.686370       -18.6771 
  27   2.0000      -0.681367       -18.5409 
  28   2.0000      -0.676956       -18.4209 
  29   2.0000      -0.676516       -18.4089 
  30   2.0000      -0.668624       -18.1942 
  31   2.0000      -0.660655       -17.9773 
  32   2.0000      -0.548027       -14.9126 
  33   2.0000      -0.523388       -14.2421 
  34   2.0000      -0.522564       -14.2197 
  35   2.0000      -0.520221       -14.1559 
  36   2.0000      -0.520063       -14.1516 
  37   2.0000      -0.503460       -13.6998 
  38   2.0000      -0.502927       -13.6853 
  39   2.0000      -0.501004       -13.6330 
  40   2.0000      -0.497782       -13.5453 
  41   2.0000      -0.497450       -13.5363 
  42   2.0000      -0.429491       -11.6870 
  43   2.0000      -0.414501       -11.2791 
  44   2.0000      -0.403328       -10.9751 
  45   2.0000      -0.381349       -10.3770 
  46   2.0000      -0.372368       -10.1327 
  47   2.0000      -0.367259        -9.9936 
  48   2.0000      -0.349076        -9.4988 
  49   2.0000      -0.336064        -9.1448 
  50   0.0000       0.017790         0.4841 
  51   0.0000       0.048220         1.3121 
  52   0.0000       0.053763         1.4630 
  53   0.0000       0.060667         1.6508 
  54   0.0000       0.063274         1.7218 
  55   0.0000       0.074824         2.0361 
  56   0.0000       0.075606         2.0574 
  57   0.0000       0.082661         2.2493 
  58   0.0000       0.082987         2.2582 
  59   0.0000       0.084863         2.3092 
  60   0.0000       0.093150         2.5347 
  61   0.0000       0.093973         2.5571 
  62   0.0000       0.098240         2.6733 
  63   0.0000       0.113138         3.0786 
  64   0.0000       0.113961         3.1010 
  65   0.0000       0.120703         3.2845 
  66   0.0000       0.122204         3.3253 
  67   0.0000       0.122722         3.3394 
  68   0.0000       0.126753         3.4491 
  69   0.0000       0.129822         3.5326 
  70   0.0000       0.133581         3.6349 
  71   0.0000       0.134158         3.6506 
  72   0.0000       0.138619         3.7720 
  73   0.0000       0.146006         3.9730 
  74   0.0000       0.152094         4.1387 
  75   0.0000       0.167912         4.5691 
  76   0.0000       0.176070         4.7911 
  77   0.0000       0.181659         4.9432 
  78   0.0000       0.183136         4.9834 
  79   0.0000       0.190915         5.1951 
  80   0.0000       0.194274         5.2865 
  81   0.0000       0.201254         5.4764 
  82   0.0000       0.206532         5.6200 
  83   0.0000       0.210993         5.7414 
  84   0.0000       0.214340         5.8325 
  85   0.0000       0.226376         6.1600 
  86   0.0000       0.229191         6.2366 
  87   0.0000       0.230210         6.2643 
  88   0.0000       0.235864         6.4182 
  89   0.0000       0.237354         6.4587 
  90   0.0000       0.242023         6.5858 
  91   0.0000       0.247755         6.7417 
  92   0.0000       0.255544         6.9537 
  93   0.0000       0.259973         7.0742 
  94   0.0000       0.260239         7.0815 
  95   0.0000       0.265963         7.2372 
  96   0.0000       0.272953         7.4274 
  97   0.0000       0.278566         7.5802 
  98   0.0000       0.292838         7.9685 
  99   0.0000       0.298524         8.1232 
 100   0.0000       0.307065         8.3557 
 101   0.0000       0.308147         8.3851 
 102   0.0000       0.309288         8.4161 
 103   0.0000       0.312120         8.4932 
 104   0.0000       0.313936         8.5426 
 105   0.0000       0.316296         8.6069 
 106   0.0000       0.325107         8.8466 
 107   0.0000       0.327649         8.9158 
 108   0.0000       0.328801         8.9471 
 109   0.0000       0.330557         8.9949 
 110   0.0000       0.336218         9.1490 
 111   0.0000       0.339307         9.2330 
 112   0.0000       0.342621         9.3232 
 113   0.0000       0.345419         9.3993 
 114   0.0000       0.350437         9.5359 
 115   0.0000       0.350575         9.5396 
 116   0.0000       0.354524         9.6471 
 117   0.0000       0.355406         9.6711 
 118   0.0000       0.356393         9.6980 
 119   0.0000       0.358805         9.7636 
 120   0.0000       0.364666         9.9231 
 121   0.0000       0.367180         9.9915 
 122   0.0000       0.370022        10.0688 
 123   0.0000       0.374092        10.1796 
 124   0.0000       0.378337        10.2951 
 125   0.0000       0.382023        10.3954 
 126   0.0000       0.386047        10.5049 
 127   0.0000       0.389102        10.5880 
 128   0.0000       0.402625        10.9560 
 129   0.0000       0.407368        11.0850 
 130   0.0000       0.408445        11.1144 
 131   0.0000       0.417211        11.3529 
 132   0.0000       0.420116        11.4319 
 133   0.0000       0.426845        11.6150 
 134   0.0000       0.434239        11.8162 
 135   0.0000       0.435475        11.8499 
 136   0.0000       0.438858        11.9419 
 137   0.0000       0.439684        11.9644 
 138   0.0000       0.442362        12.0373 
 139   0.0000       0.445573        12.1247 
 140   0.0000       0.447406        12.1745 
 141   0.0000       0.449113        12.2210 
 142   0.0000       0.453554        12.3418 
 143   0.0000       0.458125        12.4662 
 144   0.0000       0.462719        12.5912 
 145   0.0000       0.467040        12.7088 
 146   0.0000       0.468391        12.7456 
 147   0.0000       0.474815        12.9204 
 148   0.0000       0.479070        13.0361 
 149   0.0000       0.480536        13.0761 
 150   0.0000       0.484330        13.1793 
 151   0.0000       0.491553        13.3758 
 152   0.0000       0.496286        13.5046 
 153   0.0000       0.500413        13.6169 
 154   0.0000       0.506730        13.7888 
 155   0.0000       0.510625        13.8948 
 156   0.0000       0.513566        13.9749 
 157   0.0000       0.519182        14.1277 
 158   0.0000       0.526765        14.3340 
 159   0.0000       0.530278        14.4296 
 160   0.0000       0.534986        14.5577 
 161   0.0000       0.537776        14.6336 
 162   0.0000       0.542576        14.7642 
 163   0.0000       0.548144        14.9157 
 164   0.0000       0.551729        15.0133 
 165   0.0000       0.561153        15.2697 
 166   0.0000       0.561174        15.2703 
 167   0.0000       0.569266        15.4905 
 168   0.0000       0.570025        15.5112 
 169   0.0000       0.579058        15.7570 
 170   0.0000       0.581575        15.8255 
 171   0.0000       0.590603        16.0711 
 172   0.0000       0.592816        16.1313 
 173   0.0000       0.599222        16.3057 
 174   0.0000       0.602644        16.3988 
 175   0.0000       0.608871        16.5682 
 176   0.0000       0.610736        16.6190 
 177   0.0000       0.611249        16.6329 
 178   0.0000       0.618202        16.8221 
 179   0.0000       0.626431        17.0461 
 180   0.0000       0.629170        17.1206 
 181   0.0000       0.645090        17.5538 
 182   0.0000       0.650965        17.7137 
 183   0.0000       0.654473        17.8091 
 184   0.0000       0.660698        17.9785 
 185   0.0000       0.665448        18.1078 
 186   0.0000       0.671096        18.2614 
 187   0.0000       0.673727        18.3330 
 188   0.0000       0.676164        18.3993 
 189   0.0000       0.682298        18.5663 
 190   0.0000       0.685122        18.6431 
 191   0.0000       0.688189        18.7266 
 192   0.0000       0.694860        18.9081 
 193   0.0000       0.698110        18.9965 
 194   0.0000       0.704700        19.1759 
 195   0.0000       0.712990        19.4014 
 196   0.0000       0.718695        19.5567 
 197   0.0000       0.719014        19.5654 
 198   0.0000       0.724303        19.7093 
 199   0.0000       0.729013        19.8374 
 200   0.0000       0.734379        19.9835 
 201   0.0000       0.737042        20.0559 
 202   0.0000       0.739335        20.1183 
 203   0.0000       0.741485        20.1768 
 204   0.0000       0.746829        20.3222 
 205   0.0000       0.751963        20.4619 
 206   0.0000       0.755456        20.5570 
 207   0.0000       0.756168        20.5764 
 208   0.0000       0.760883        20.7047 
 209   0.0000       0.763169        20.7669 
 210   0.0000       0.768383        20.9088 
 211   0.0000       0.772462        21.0198 
 212   0.0000       0.775757        21.1094 
 213   0.0000       0.781861        21.2755 
 214   0.0000       0.787401        21.4263 
 215   0.0000       0.793428        21.5903 
 216   0.0000       0.798433        21.7265 
 217   0.0000       0.809227        22.0202 
 218   0.0000       0.809858        22.0374 
 219   0.0000       0.811877        22.0923 
 220   0.0000       0.816949        22.2303 
 221   0.0000       0.819530        22.3005 
 222   0.0000       0.822607        22.3843 
 223   0.0000       0.824430        22.4339 
 224   0.0000       0.827439        22.5158 
 225   0.0000       0.830586        22.6014 
 226   0.0000       0.831450        22.6249 
 227   0.0000       0.833023        22.6677 
 228   0.0000       0.838312        22.8116 
 229   0.0000       0.840717        22.8771 
 230   0.0000       0.848625        23.0923 
 231   0.0000       0.857721        23.3398 
 232   0.0000       0.859270        23.3819 
 233   0.0000       0.867775        23.6133 
 234   0.0000       0.871121        23.7044 
 235   0.0000       0.880018        23.9465 
 236   0.0000       0.884694        24.0737 
 237   0.0000       0.887337        24.1457 
 238   0.0000       0.889981        24.2176 
 239   0.0000       0.893786        24.3211 
 240   0.0000       0.902394        24.5554 
 241   0.0000       0.913378        24.8543 
 242   0.0000       0.917724        24.9726 
 243   0.0000       0.933756        25.4088 
 244   0.0000       0.943973        25.6868 
 245   0.0000       0.948983        25.8231 
 246   0.0000       0.964445        26.2439 
 247   0.0000       0.968984        26.3674 
 248   0.0000       0.976368        26.5683 
 249   0.0000       0.984736        26.7960 
 250   0.0000       0.994952        27.0740 
 251   0.0000       1.008674        27.4474 
 252   0.0000       1.013837        27.5879 
 253   0.0000       1.026775        27.9400 
 254   0.0000       1.030141        28.0316 
 255   0.0000       1.033543        28.1241 
 256   0.0000       1.045725        28.4556 
 257   0.0000       1.053254        28.6605 
 258   0.0000       1.066581        29.0231 
 259   0.0000       1.080582        29.4041 
 260   0.0000       1.090564        29.6758 
 261   0.0000       1.093726        29.7618 
 262   0.0000       1.105130        30.0721 
 263   0.0000       1.110741        30.2248 
 264   0.0000       1.123031        30.5592 
 265   0.0000       1.134898        30.8821 
 266   0.0000       1.149140        31.2697 
 267   0.0000       1.151692        31.3391 
 268   0.0000       1.170413        31.8485 
 269   0.0000       1.173901        31.9435 
 270   0.0000       1.204503        32.7762 
 271   0.0000       1.208584        32.8873 
 272   0.0000       1.218766        33.1643 
 273   0.0000       1.228533        33.4301 
 274   0.0000       1.229856        33.4661 
 275   0.0000       1.238937        33.7132 
 276   0.0000       1.261412        34.3248 
 277   0.0000       1.263834        34.3907 
 278   0.0000       1.280595        34.8468 
 279   0.0000       1.284161        34.9438 
 280   0.0000       1.297318        35.3018 
 281   0.0000       1.309778        35.6409 
 282   0.0000       1.313211        35.7343 
 283   0.0000       1.316944        35.8359 
 284   0.0000       1.331492        36.2317 
 285   0.0000       1.344215        36.5779 
 286   0.0000       1.358115        36.9562 
 287   0.0000       1.369961        37.2785 
 288   0.0000       1.376272        37.4503 
 289   0.0000       1.386711        37.7343 
 290   0.0000       1.406509        38.2730 
 291   0.0000       1.414440        38.4889 
 292   0.0000       1.417710        38.5778 
 293   0.0000       1.427178        38.8355 
 294   0.0000       1.432427        38.9783 
 295   0.0000       1.446404        39.3587 
 296   0.0000       1.447237        39.3813 
 297   0.0000       1.459869        39.7251 
 298   0.0000       1.464881        39.8615 
 299   0.0000       1.468232        39.9526 
 300   0.0000       1.478499        40.2320 
 301   0.0000       1.481087        40.3024 
 302   0.0000       1.497242        40.7420 
 303   0.0000       1.500924        40.8422 
 304   0.0000       1.504259        40.9330 
 305   0.0000       1.513773        41.1918 
 306   0.0000       1.523912        41.4678 
 307   0.0000       1.526141        41.5284 
 308   0.0000       1.537507        41.8377 
 309   0.0000       1.540387        41.9161 
 310   0.0000       1.543496        42.0007 
 311   0.0000       1.545139        42.0454 
 312   0.0000       1.549682        42.1690 
 313   0.0000       1.559620        42.4394 
 314   0.0000       1.566304        42.6213 
 315   0.0000       1.572860        42.7997 
 316   0.0000       1.577412        42.9236 
 317   0.0000       1.584383        43.1133 
 318   0.0000       1.593507        43.3615 
 319   0.0000       1.598802        43.5056 
 320   0.0000       1.600285        43.5460 
 321   0.0000       1.606660        43.7194 
 322   0.0000       1.610441        43.8223 
 323   0.0000       1.616445        43.9857 
 324   0.0000       1.625699        44.2375 
 325   0.0000       1.627472        44.2858 
 326   0.0000       1.641106        44.6568 
 327   0.0000       1.642466        44.6938 
 328   0.0000       1.659623        45.1607 
 329   0.0000       1.677237        45.6399 
 330   0.0000       1.680663        45.7332 
 331   0.0000       1.693989        46.0958 
 332   0.0000       1.697673        46.1960 
 333   0.0000       1.725755        46.9602 
 334   0.0000       1.734996        47.2116 
 335   0.0000       1.743719        47.4490 
 336   0.0000       1.766179        48.0602 
 337   0.0000       1.769250        48.1437 
 338   0.0000       1.772659        48.2365 
 339   0.0000       1.785657        48.5902 
 340   0.0000       1.819061        49.4992 
 341   0.0000       1.854631        50.4671 
 342   0.0000       1.860091        50.6156 
 343   0.0000       1.874834        51.0168 
 344   0.0000       1.884084        51.2685 
 345   0.0000       1.919194        52.2239 
 346   0.0000       1.923108        52.3304 
 347   0.0000       1.938977        52.7623 
 348   0.0000       1.941463        52.8299 
 349   0.0000       1.943892        52.8960 
 350   0.0000       1.951454        53.1018 
 351   0.0000       1.954580        53.1868 
 352   0.0000       1.964741        53.4633 
 353   0.0000       1.965841        53.4933 
 354   0.0000       1.968109        53.5550 
 355   0.0000       1.970575        53.6221 
 356   0.0000       1.983614        53.9769 
 357   0.0000       1.987178        54.0739 
 358   0.0000       2.001772        54.4710 
 359   0.0000       2.006621        54.6029 
 360   0.0000       2.014713        54.8231 
 361   0.0000       2.019620        54.9566 
 362   0.0000       2.024857        55.0991 
 363   0.0000       2.047900        55.7262 
 364   0.0000       2.056442        55.9586 
 365   0.0000       2.076616        56.5076 
 366   0.0000       2.084264        56.7157 
 367   0.0000       2.087301        56.7984 
 368   0.0000       2.098697        57.1085 
 369   0.0000       2.110146        57.4200 
 370   0.0000       2.113049        57.4990 
 371   0.0000       2.120089        57.6905 
 372   0.0000       2.150435        58.5163 
 373   0.0000       2.154954        58.6393 
 374   0.0000       2.159865        58.7729 
 375   0.0000       2.176215        59.2178 
 376   0.0000       2.184017        59.4301 
 377   0.0000       2.191681        59.6387 
 378   0.0000       2.206328        60.0372 
 379   0.0000       2.219113        60.3851 
 380   0.0000       2.236883        60.8687 
 381   0.0000       2.248386        61.1817 
 382   0.0000       2.257418        61.4275 
 383   0.0000       2.265703        61.6529 
 384   0.0000       2.278102        61.9903 
 385   0.0000       2.286232        62.2115 
 386   0.0000       2.293257        62.4027 
 387   0.0000       2.315064        62.9961 
 388   0.0000       2.335456        63.5510 
 389   0.0000       2.343089        63.7587 
 390   0.0000       2.350741        63.9669 
 391   0.0000       2.379099        64.7386 
 392   0.0000       2.386213        64.9322 
 393   0.0000       2.437406        66.3252 
 394   0.0000       2.442431        66.4619 
 395   0.0000       2.454306        66.7851 
 396   0.0000       2.484992        67.6201 
 397   0.0000       2.499574        68.0169 
 398   0.0000       2.504347        68.1468 
 399   0.0000       2.517473        68.5039 
 400   0.0000       2.527440        68.7752 
 401   0.0000       2.541507        69.1579 
 402   0.0000       2.567391        69.8623 
 403   0.0000       2.570821        69.9556 
 404   0.0000       2.575148        70.0733 
 405   0.0000       2.590476        70.4904 
 406   0.0000       2.593537        70.5737 
 407   0.0000       2.665783        72.5396 
 408   0.0000       2.680187        72.9316 
 409   0.0000       2.699724        73.4632 
 410   0.0000       2.703368        73.5624 
 411   0.0000       2.713146        73.8284 
 412   0.0000       2.720317        74.0236 
 413   0.0000       2.739077        74.5341 
 414   0.0000       2.741285        74.5941 
 415   0.0000       2.748371        74.7870 
 416   0.0000       2.766209        75.2724 
 417   0.0000       2.770331        75.3846 
 418   0.0000       2.783610        75.7459 
 419   0.0000       2.796940        76.1086 
 420   0.0000       2.811175        76.4960 
 421   0.0000       2.821095        76.7659 
 422   0.0000       2.838882        77.2499 
 423   0.0000       2.848432        77.5098 
 424   0.0000       2.876941        78.2856 
 425   0.0000       2.899666        78.9039 
 426   0.0000       2.904808        79.0439 
 427   0.0000       2.915710        79.3405 
 428   0.0000       2.926820        79.6428 
 429   0.0000       2.943393        80.0938 
 430   0.0000       2.957343        80.4734 
 431   0.0000       2.974908        80.9514 
 432   0.0000       2.976608        80.9976 
 433   0.0000       2.982379        81.1547 
 434   0.0000       2.983482        81.1847 
 435   0.0000       2.986278        81.2607 
 436   0.0000       3.000220        81.6401 
 437   0.0000       3.004275        81.7505 
 438   0.0000       3.032662        82.5229 
 439   0.0000       3.041971        82.7762 
 440   0.0000       3.045368        82.8687 
 441   0.0000       3.062095        83.3238 
 442   0.0000       3.089434        84.0678 
 443   0.0000       3.109083        84.6024 
 444   0.0000       3.123736        85.0012 
 445   0.0000       3.157256        85.9133 
 446   0.0000       3.163894        86.0939 
 447   0.0000       3.175367        86.4061 
 448   0.0000       3.204203        87.1908 
 449   0.0000       3.218965        87.5925 
 450   0.0000       3.227492        87.8245 
 451   0.0000       3.232437        87.9591 
 452   0.0000       3.234373        88.0118 
 453   0.0000       3.250780        88.4582 
 454   0.0000       3.257626        88.6445 
 455   0.0000       3.270395        88.9920 
 456   0.0000       3.290330        89.5344 
 457   0.0000       3.299078        89.7725 
 458   0.0000       3.321609        90.3856 
 459   0.0000       3.336030        90.7780 
 460   0.0000       3.383086        92.0584 
 461   0.0000       3.403341        92.6096 
 462   0.0000       3.407977        92.7358 
 463   0.0000       3.411534        92.8326 
 464   0.0000       3.432696        93.4084 
 465   0.0000       3.438006        93.5529 
 466   0.0000       3.438284        93.5605 
 467   0.0000       3.452640        93.9511 
 468   0.0000       3.460205        94.1570 
 469   0.0000       3.470038        94.4245 
 470   0.0000       3.479825        94.6909 
 471   0.0000       3.483516        94.7913 
 472   0.0000       3.485603        94.8481 
 473   0.0000       3.495264        95.1110 
 474   0.0000       3.502046        95.2955 
 475   0.0000       3.510404        95.5230 
 476   0.0000       3.512495        95.5798 
 477   0.0000       3.516952        95.7011 
 478   0.0000       3.535451        96.2045 
 479   0.0000       3.541937        96.3810 
 480   0.0000       3.547843        96.5417 
 481   0.0000       3.552163        96.6593 
 482   0.0000       3.571868        97.1955 
 483   0.0000       3.574233        97.2598 
 484   0.0000       3.587372        97.6174 
 485   0.0000       3.590854        97.7121 
 486   0.0000       3.600435        97.9728 
 487   0.0000       3.606380        98.1346 
 488   0.0000       3.613158        98.3190 
 489   0.0000       3.626423        98.6800 
 490   0.0000       3.627361        98.7055 
 491   0.0000       3.631187        98.8096 
 492   0.0000       3.635815        98.9355 
 493   0.0000       3.639384        99.0327 
 494   0.0000       3.650306        99.3299 
 495   0.0000       3.656427        99.4964 
 496   0.0000       3.661622        99.6378 
 497   0.0000       3.671245        99.8996 
 498   0.0000       3.681010       100.1654 
 499   0.0000       3.696025       100.5739 
 500   0.0000       3.697125       100.6039 
 501   0.0000       3.706941       100.8710 
 502   0.0000       3.715068       101.0921 
 503   0.0000       3.719161       101.2035 
 504   0.0000       3.727747       101.4372 
 505   0.0000       3.745270       101.9140 
 506   0.0000       3.755048       102.1801 
 507   0.0000       3.762320       102.3779 
 508   0.0000       3.767421       102.5167 
 509   0.0000       3.771244       102.6208 
 510   0.0000       3.783144       102.9446 
 511   0.0000       3.785895       103.0194 
 512   0.0000       3.792536       103.2002 
 513   0.0000       3.800419       103.4147 
 514   0.0000       3.809230       103.6544 
 515   0.0000       3.816315       103.8472 
 516   0.0000       3.826162       104.1152 
 517   0.0000       3.837089       104.4125 
 518   0.0000       3.847983       104.7089 
 519   0.0000       3.861927       105.0884 
 520   0.0000       3.863576       105.1332 
 521   0.0000       3.867304       105.2347 
 522   0.0000       3.908599       106.3584 
 523   0.0000       3.918151       106.6183 
 524   0.0000       3.945329       107.3579 
 525   0.0000       3.960470       107.7699 
 526   0.0000       3.976980       108.2191 
 527   0.0000       3.985799       108.4591 
 528   0.0000       4.000688       108.8642 
 529   0.0000       4.001364       108.8827 
 530   0.0000       4.020266       109.3970 
 531   0.0000       4.034878       109.7946 
 532   0.0000       4.040397       109.9448 
 533   0.0000       4.050532       110.2206 
 534   0.0000       4.051913       110.2582 
 535   0.0000       4.057595       110.4128 
 536   0.0000       4.060568       110.4937 
 537   0.0000       4.076249       110.9204 
 538   0.0000       4.119353       112.0933 
 539   0.0000       4.137829       112.5960 
 540   0.0000       4.144324       112.7728 
 541   0.0000       4.161915       113.2515 
 542   0.0000       4.176966       113.6610 
 543   0.0000       4.200762       114.3086 
 544   0.0000       4.243715       115.4774 
 545   0.0000       4.247747       115.5871 
 546   0.0000       4.273022       116.2748 
 547   0.0000       4.279486       116.4507 
 548   0.0000       4.299675       117.0001 
 549   0.0000       4.307942       117.2250 
 550   0.0000       4.320857       117.5765 
 551   0.0000       4.344205       118.2118 
 552   0.0000       4.346187       118.2658 
 553   0.0000       4.349604       118.3588 
 554   0.0000       4.356451       118.5451 
 555   0.0000       4.364750       118.7709 
 556   0.0000       4.371263       118.9481 
 557   0.0000       4.380985       119.2127 
 558   0.0000       4.389396       119.4415 
 559   0.0000       4.392795       119.5340 
 560   0.0000       4.396265       119.6285 
 561   0.0000       4.405261       119.8732 
 562   0.0000       4.411334       120.0385 
 563   0.0000       4.417993       120.2197 
 564   0.0000       4.418696       120.2388 
 565   0.0000       4.424515       120.3972 
 566   0.0000       4.447304       121.0173 
 567   0.0000       4.460761       121.3835 
 568   0.0000       4.465494       121.5123 
 569   0.0000       4.482750       121.9818 
 570   0.0000       4.502508       122.5195 
 571   0.0000       4.528066       123.2149 
 572   0.0000       4.535288       123.4115 
 573   0.0000       4.556454       123.9874 
 574   0.0000       4.564081       124.1950 
 575   0.0000       4.580749       124.6485 
 576   0.0000       4.592683       124.9733 
 577   0.0000       4.595122       125.0396 
 578   0.0000       4.599355       125.1548 
 579   0.0000       4.626366       125.8898 
 580   0.0000       4.637711       126.1985 
 581   0.0000       4.648218       126.4844 
 582   0.0000       4.655345       126.6784 
 583   0.0000       4.667263       127.0027 
 584   0.0000       4.674173       127.1907 
 585   0.0000       4.688732       127.5869 
 586   0.0000       4.708963       128.1374 
 587   0.0000       4.758140       129.4756 
 588   0.0000       4.773159       129.8842 
 589   0.0000       4.861386       132.2850 
 590   0.0000       4.864512       132.3701 
 591   0.0000       4.879050       132.7657 
 592   0.0000       4.934974       134.2875 
 593   0.0000       4.943543       134.5207 
 594   0.0000       4.948084       134.6442 
 595   0.0000       4.957591       134.9029 
 596   0.0000       4.961346       135.0051 
 597   0.0000       4.987768       135.7241 
 598   0.0000       5.004407       136.1768 
 599   0.0000       5.015428       136.4767 
 600   0.0000       5.019047       136.5752 
 601   0.0000       5.035224       137.0154 
 602   0.0000       5.040763       137.1661 
 603   0.0000       5.060073       137.6916 
 604   0.0000       5.063976       137.7978 
 605   0.0000       5.078521       138.1936 
 606   0.0000       5.081950       138.2869 
 607   0.0000       5.093125       138.5910 
 608   0.0000       5.109300       139.0311 
 609   0.0000       5.363881       145.9586 
 610   0.0000       5.368360       146.0805 
 611   0.0000       5.378568       146.3583 
 612   0.0000       5.388172       146.6196 
 613   0.0000       5.389411       146.6533 
 614   0.0000       5.396203       146.8381 
 615   0.0000       5.400073       146.9435 
 616   0.0000       5.402167       147.0004 
 617   0.0000       5.447683       148.2390 
 618   0.0000       5.459271       148.5543 
 619   0.0000       5.467673       148.7830 
 620   0.0000       5.475557       148.9975 
 621   0.0000       5.488219       149.3420 
 622   0.0000       5.495675       149.5449 
 623   0.0000       5.507443       149.8652 
 624   0.0000       5.508744       149.9005 
 625   0.0000       5.510604       149.9512 
 626   0.0000       5.537749       150.6898 
 627   0.0000       5.653402       153.8369 
 628   0.0000       5.703835       155.2092 
 629   0.0000       5.857336       159.3862 
 630   0.0000       5.866288       159.6298 
 631   0.0000       5.873853       159.8357 
 632   0.0000       5.893294       160.3647 
 633   0.0000       6.089474       165.7030 
 634   0.0000       6.096672       165.8989 
 635   0.0000       6.102255       166.0508 
 636   0.0000       6.112763       166.3367 
 637   0.0000       6.116177       166.4296 
 638   0.0000       6.120499       166.5472 
 639   0.0000       6.136213       166.9748 
 640   0.0000       6.137531       167.0107 
 641   0.0000       6.729948       183.1312 
 642   0.0000       6.736781       183.3171 
 643   0.0000       8.342825       227.0198 
 644   0.0000       8.352571       227.2850 
 645   0.0000       8.408501       228.8070 
 646   0.0000       8.477542       230.6857 
 647   0.0000       8.494262       231.1406 
 648   0.0000      11.167692       303.8884 
 649   0.0000      11.253742       306.2299 
 650   0.0000      11.501710       312.9774 
 651   0.0000      21.365289       581.3791 
 652   0.0000      23.273559       633.3057 
 653   0.0000      23.316062       634.4623 
 654   0.0000      23.506918       639.6558 
 655   0.0000      23.515224       639.8818 
 656   0.0000      23.528419       640.2408 
 657   0.0000      23.542841       640.6333 
 658   0.0000      23.861452       649.3031 
 659   0.0000      23.876378       649.7093 
 660   0.0000      23.903925       650.4589 
 661   0.0000      23.925892       651.0566 
 662   0.0000      26.506124       721.2683 
 663   0.0000      73.034259      1987.3632 

                    ********************************
                    * MULLIKEN POPULATION ANALYSIS *
                    ********************************

-----------------------
MULLIKEN ATOMIC CHARGES
-----------------------
   0 Zr:   -0.008249
   1 C :    0.117071
   2 C :    0.139740
   3 C :    0.027310
   4 H :    0.036811
   5 C :   -0.057007
   6 H :    0.007159
   7 C :    0.073424
   8 H :    0.007079
   9 H :   -0.038020
  10 C :    0.206565
  11 C :    0.059227
  12 C :   -0.086801
  13 H :    0.001844
  14 C :   -0.004272
  15 H :    0.015518
  16 C :    0.096389
  17 H :   -0.012315
  18 H :   -0.018546
  19 Cl:   -0.481515
  20 H :   -0.170139
  21 H :    0.025069
  22 H :    0.063656
Sum of atomic charges:    0.0000000

--------------------------------
MULLIKEN REDUCED ORBITAL CHARGES
--------------------------------
  0 Zrs       :     2.590654  s :     2.590654
      pz      :     2.249156  p :     7.030909
      px      :     2.528681
      py      :     2.253072
      dz2     :     0.646877  d :     2.069080
      dxz     :     0.477492
      dyz     :     0.203991
      dx2y2   :     0.406290
      dxy     :     0.334429
      f0      :     0.042775  f :     0.274287
      f+1     :     0.024127
      f-1     :     0.019720
      f+2     :     0.040536
      f-2     :     0.025458
      f+3     :     0.082956
      f-3     :     0.038716
      g0      :     0.002750  g :     0.043319
      g+1     :     0.004123
      g-1     :     0.003268
      g+2     :     0.004095
      g-2     :     0.002650
      g+3     :     0.004497
      g-3     :     0.005418
      g+4     :     0.009601
      g-4     :     0.006917
  1 C s       :     3.053630  s :     3.053630
      pz      :     0.947566  p :     2.750674
      px      :     0.929566
      py      :     0.873542
      dz2     :     0.023023  d :     0.070934
      dxz     :    -0.024642
      dyz     :     0.027780
      dx2y2   :     0.024007
      dxy     :     0.020766
      f0      :     0.001058  f :     0.007691
      f+1     :     0.000682
      f-1     :     0.002040
      f+2     :     0.001237
      f-2     :     0.001100
      f+3     :     0.000795
      f-3     :     0.000780
  2 C s       :     2.980866  s :     2.980866
      pz      :     0.836277  p :     2.837651
      px      :     0.917020
      py      :     1.084354
      dz2     :     0.037913  d :     0.034283
      dxz     :     0.037381
      dyz     :    -0.030199
      dx2y2   :    -0.018849
      dxy     :     0.008037
      f0      :     0.001376  f :     0.007460
      f+1     :     0.000982
      f-1     :     0.001260
      f+2     :     0.001072
      f-2     :     0.001217
      f+3     :     0.000756
      f-3     :     0.000797
  3 C s       :     3.051303  s :     3.051303
      pz      :     0.922865  p :     2.849939
      px      :     1.032735
      py      :     0.894339
      dz2     :     0.013013  d :     0.063970
      dxz     :     0.014030
      dyz     :     0.034868
      dx2y2   :     0.015349
      dxy     :    -0.013290
      f0      :     0.001086  f :     0.007477
      f+1     :     0.000847
      f-1     :     0.002114
      f+2     :     0.000907
      f-2     :     0.000844
      f+3     :     0.000859
      f-3     :     0.000820
  4 H s       :     0.911957  s :     0.911957
      pz      :     0.001667  p :     0.049142
      px      :     0.007899
      py      :     0.039577
      dz2     :     0.000196  d :     0.002090
      dxz     :     0.000117
      dyz     :     0.000689
      dx2y2   :     0.000526
      dxy     :     0.000562
  5 C s       :     3.072916  s :     3.072916
      pz      :     1.004740  p :     2.900077
      px      :     0.931090
      py      :     0.964246
      dz2     :    -0.012989  d :     0.076522
      dxz     :     0.035201
      dyz     :     0.022691
      dx2y2   :     0.004099
      dxy     :     0.027520
      f0      :     0.001639  f :     0.007493
      f+1     :     0.001287
      f-1     :     0.000950
      f+2     :     0.000913
      f-2     :     0.000957
      f+3     :     0.000764
      f-3     :     0.000982
  6 H s       :     0.914515  s :     0.914515
      pz      :     0.009214  p :     0.076295
      px      :     0.057567
      py      :     0.009515
      dz2     :     0.000367  d :     0.002030
      dxz     :     0.000211
      dyz     :     0.000444
      dx2y2   :     0.000464
      dxy     :     0.000545
  7 C s       :     3.054133  s :     3.054133
      pz      :     0.970008  p :     2.804318
      px      :     0.949999
      py      :     0.884311
      dz2     :     0.004047  d :     0.060586
      dxz     :     0.000338
      dyz     :     0.051571
      dx2y2   :     0.015250
      dxy     :    -0.010621
      f0      :     0.001399  f :     0.007539
      f+1     :     0.001270
      f-1     :     0.001528
      f+2     :     0.000790
      f-2     :     0.000694
      f+3     :     0.000564
      f-3     :     0.001293
  8 H s       :     0.921151  s :     0.921151
      pz      :     0.031286  p :     0.069708
      px      :     0.021217
      py      :     0.017205
      dz2     :     0.000666  d :     0.002062
      dxz     :     0.000456
      dyz     :     0.000487
      dx2y2   :     0.000235
      dxy     :     0.000218
  9 H s       :     0.967799  s :     0.967799
      pz      :     0.017552  p :     0.068208
      px      :     0.041879
      py      :     0.008777
      dz2     :     0.000709  d :     0.002013
      dxz     :     0.000487
      dyz     :     0.000182
      dx2y2   :     0.000266
      dxy     :     0.000368
 10 C s       :     2.949611  s :     2.949611
      pz      :     0.815916  p :     2.809960
      px      :     0.911227
      py      :     1.082817
      dz2     :     0.041959  d :     0.026411
      dxz     :     0.065736
      dyz     :    -0.069999
      dx2y2   :    -0.024462
      dxy     :     0.013178
      f0      :     0.001551  f :     0.007454
      f+1     :     0.000836
      f-1     :     0.001011
      f+2     :     0.001175
      f-2     :     0.001412
      f+3     :     0.000774
      f-3     :     0.000695
 11 C s       :     3.075052  s :     3.075052
      pz      :     0.930785  p :     2.783203
      px      :     0.967145
      py      :     0.885273
      dz2     :     0.023152  d :     0.074847
      dxz     :    -0.030128
      dyz     :     0.039904
      dx2y2   :     0.021320
      dxy     :     0.020597
      f0      :     0.001246  f :     0.007672
      f+1     :     0.000680
      f-1     :     0.001828
      f+2     :     0.001334
      f-2     :     0.000982
      f+3     :     0.000825
      f-3     :     0.000776
 12 C s       :     3.129255  s :     3.129255
      pz      :     1.014273  p :     2.877355
      px      :     0.954021
      py      :     0.909061
      dz2     :    -0.023011  d :     0.072700
      dxz     :     0.016323
      dyz     :     0.013877
      dx2y2   :     0.034504
      dxy     :     0.031007
      f0      :     0.001613  f :     0.007490
      f+1     :     0.001089
      f-1     :     0.001026
      f+2     :     0.000943
      f-2     :     0.001168
      f+3     :     0.000665
      f-3     :     0.000987
 13 H s       :     0.937618  s :     0.937618
      pz      :     0.017555  p :     0.058545
      px      :     0.042951
      py      :    -0.001960
      dz2     :     0.000337  d :     0.001993
      dxz     :     0.000748
      dyz     :     0.000758
      dx2y2   :     0.000072
      dxy     :     0.000078
 14 C s       :     3.047090  s :     3.047090
      pz      :     0.953148  p :     2.876338
      px      :     1.031585
      py      :     0.891605
      dz2     :     0.021227  d :     0.073362
      dxz     :     0.016291
      dyz     :     0.035192
      dx2y2   :     0.010640
      dxy     :    -0.009989
      f0      :     0.001013  f :     0.007482
      f+1     :     0.001016
      f-1     :     0.002209
      f+2     :     0.000769
      f-2     :     0.000705
      f+3     :     0.000836
      f-3     :     0.000934
 15 H s       :     0.923290  s :     0.923290
      pz      :     0.030126  p :     0.059132
      px      :     0.021274
      py      :     0.007733
      dz2     :     0.000589  d :     0.002060
      dxz     :     0.000529
      dyz     :     0.000615
      dx2y2   :     0.000160
      dxy     :     0.000167
 16 C s       :     3.066822  s :     3.066822
      pz      :     0.973000  p :     2.777163
      px      :     0.937189
      py      :     0.866974
      dz2     :     0.008052  d :     0.052063
      dxz     :     0.000098
      dyz     :     0.042167
      dx2y2   :     0.006037
      dxy     :    -0.004290
      f0      :     0.001135  f :     0.007562
      f+1     :     0.001395
      f-1     :     0.001840
      f+2     :     0.000654
      f-2     :     0.000638
      f+3     :     0.000588
      f-3     :     0.001312
 17 H s       :     0.930530  s :     0.930530
      pz      :     0.012562  p :     0.079758
      px      :     0.058091
      py      :     0.009105
      dz2     :     0.000500  d :     0.002027
      dxz     :     0.000262
      dyz     :     0.000311
      dx2y2   :     0.000470
      dxy     :     0.000484
 18 H s       :     0.954177  s :     0.954177
      pz      :     0.012664  p :     0.062357
      px      :     0.040129
      py      :     0.009564
      dz2     :     0.000675  d :     0.002012
      dxz     :     0.000397
      dyz     :     0.000199
      dx2y2   :     0.000290
      dxy     :     0.000450
 19 Cls       :     6.011281  s :     6.011281
      pz      :     3.852430  p :    11.450744
      px      :     3.916958
      py      :     3.681356
      dz2     :     0.001786  d :     0.018300
      dxz     :     0.000224
      dyz     :     0.004605
      dx2y2   :     0.005817
      dxy     :     0.005869
      f0      :     0.000092  f :     0.001190
      f+1     :     0.000017
      f-1     :     0.000218
      f+2     :     0.000166
      f-2     :     0.000031
      f+3     :     0.000230
      f-3     :     0.000438
 20 H s       :     1.201434  s :     1.201434
      pz      :     0.006011  p :    -0.032329
      px      :    -0.028176
      py      :    -0.010164
      dz2     :     0.000664  d :     0.001034
      dxz     :     0.000200
      dyz     :     0.000116
      dx2y2   :     0.000028
      dxy     :     0.000026
 21 H s       :     0.922395  s :     0.922395
      pz      :     0.015632  p :     0.050546
      px      :     0.036836
      py      :    -0.001922
      dz2     :     0.000288  d :     0.001990
      dxz     :     0.000761
      dyz     :     0.000837
      dx2y2   :     0.000052
      dxy     :     0.000051
 22 H s       :     0.884742  s :     0.884742
      pz      :     0.001158  p :     0.049510
      px      :     0.009047
      py      :     0.039305
      dz2     :     0.000106  d :     0.002092
      dxz     :     0.000120
      dyz     :     0.000765
      dx2y2   :     0.000567
      dxy     :     0.000534


                     *******************************
                     * LOEWDIN POPULATION ANALYSIS *
                     *******************************

----------------------
LOEWDIN ATOMIC CHARGES
----------------------
   0 Zr:    0.409315
   1 C :   -0.069161
   2 C :   -0.058756
   3 C :   -0.076379
   4 H :    0.007173
   5 C :   -0.053724
   6 H :    0.007617
   7 C :   -0.063355
   8 H :    0.007998
   9 H :    0.008560
  10 C :   -0.058092
  11 C :   -0.067685
  12 C :   -0.055158
  13 H :    0.001626
  14 C :   -0.072522
  15 H :    0.007187
  16 C :   -0.068422
  17 H :    0.009987
  18 H :    0.006258
  19 Cl:    0.184632
  20 H :   -0.015414
  21 H :    0.001157
  22 H :    0.007158

-------------------------------
LOEWDIN REDUCED ORBITAL CHARGES
-------------------------------
  0 Zrs       :     1.805549  s :     1.805549
      pz      :     2.116032  p :     6.312624
      px      :     2.049734
      py      :     2.146858
      dz2     :     0.796861  d :     2.588360
      dxz     :     0.464833
      dyz     :     0.264034
      dx2y2   :     0.593384
      dxy     :     0.469249
      f0      :     0.104017  f :     0.651929
      f+1     :     0.054782
      f-1     :     0.051712
      f+2     :     0.095479
      f-2     :     0.054158
      f+3     :     0.177236
      f-3     :     0.114546
      g0      :     0.023426  g :     0.232223
      g+1     :     0.021073
      g-1     :     0.017085
      g+2     :     0.020910
      g-2     :     0.012218
      g+3     :     0.023283
      g-3     :     0.027272
      g+4     :     0.050896
      g-4     :     0.036060
  1 C s       :     2.635336  s :     2.635336
      pz      :     0.926394  p :     2.586082
      px      :     0.768493
      py      :     0.891195
      dz2     :     0.204181  d :     0.799261
      dxz     :     0.108828
      dyz     :     0.172075
      dx2y2   :     0.155129
      dxy     :     0.159048
      f0      :     0.005882  f :     0.048482
      f+1     :     0.003514
      f-1     :     0.013947
      f+2     :     0.009150
      f-2     :     0.008476
      f+3     :     0.004523
      f-3     :     0.002992
  2 C s       :     2.627675  s :     2.627675
      pz      :     0.906907  p :     2.601615
      px      :     0.801007
      py      :     0.893701
      dz2     :     0.216888  d :     0.781716
      dxz     :     0.157572
      dyz     :     0.183319
      dx2y2   :     0.112279
      dxy     :     0.111658
      f0      :     0.009148  f :     0.047750
      f+1     :     0.005450
      f-1     :     0.010079
      f+2     :     0.007702
      f-2     :     0.008755
      f+3     :     0.003704
      f-3     :     0.002912
  3 C s       :     2.632635  s :     2.632635
      pz      :     0.910389  p :     2.605649
      px      :     0.782255
      py      :     0.913005
      dz2     :     0.199269  d :     0.790411
      dxz     :     0.146793
      dyz     :     0.210640
      dx2y2   :     0.115489
      dxy     :     0.118221
      f0      :     0.008122  f :     0.047684
      f+1     :     0.005227
      f-1     :     0.014301
      f+2     :     0.006359
      f-2     :     0.005613
      f+3     :     0.004374
      f-3     :     0.003689
  4 H s       :     0.699478  s :     0.699478
      pz      :     0.063432  p :     0.263767
      px      :     0.088908
      py      :     0.111427
      dz2     :     0.003429  d :     0.029582
      dxz     :     0.001303
      dyz     :     0.007929
      dx2y2   :     0.008285
      dxy     :     0.008637
  5 C s       :     2.627502  s :     2.627502
      pz      :     0.910125  p :     2.595989
      px      :     0.792200
      py      :     0.893664
      dz2     :     0.163610  d :     0.781998
      dxz     :     0.129677
      dyz     :     0.223532
      dx2y2   :     0.124230
      dxy     :     0.140949
      f0      :     0.011602  f :     0.048235
      f+1     :     0.007591
      f-1     :     0.007547
      f+2     :     0.005735
      f-2     :     0.005841
      f+3     :     0.004771
      f-3     :     0.005148
  6 H s       :     0.698787  s :     0.698787
      pz      :     0.068891  p :     0.264129
      px      :     0.087231
      py      :     0.108007
      dz2     :     0.004238  d :     0.029467
      dxz     :     0.002449
      dyz     :     0.007621
      dx2y2   :     0.007660
      dxy     :     0.007499
  7 C s       :     2.632113  s :     2.632113
      pz      :     0.914249  p :     2.595516
      px      :     0.774968
      py      :     0.906299
      dz2     :     0.155330  d :     0.787368
      dxz     :     0.134661
      dyz     :     0.246285
      dx2y2   :     0.133268
      dxy     :     0.117823
      f0      :     0.010904  f :     0.048359
      f+1     :     0.007922
      f-1     :     0.010246
      f+2     :     0.004154
      f-2     :     0.004250
      f+3     :     0.004391
      f-3     :     0.006491
  8 H s       :     0.700010  s :     0.700010
      pz      :     0.102041  p :     0.262555
      px      :     0.087089
      py      :     0.073426
      dz2     :     0.009142  d :     0.029437
      dxz     :     0.007246
      dyz     :     0.008001
      dx2y2   :     0.002450
      dxy     :     0.002598
  9 H s       :     0.699600  s :     0.699600
      pz      :     0.094082  p :     0.262584
      px      :     0.076985
      py      :     0.091518
      dz2     :     0.007718  d :     0.029255
      dxz     :     0.004947
      dyz     :     0.008706
      dx2y2   :     0.004021
      dxy     :     0.003864
 10 C s       :     2.627344  s :     2.627344
      pz      :     0.905979  p :     2.599968
      px      :     0.801559
      py      :     0.892431
      dz2     :     0.225182  d :     0.783006
      dxz     :     0.160566
      dyz     :     0.173574
      dx2y2   :     0.110724
      dxy     :     0.112959
      f0      :     0.009932  f :     0.047773
      f+1     :     0.004466
      f-1     :     0.008711
      f+2     :     0.008708
      f-2     :     0.010073
      f+3     :     0.003583
      f-3     :     0.002300
 11 C s       :     2.635248  s :     2.635248
      pz      :     0.925960  p :     2.586356
      px      :     0.769772
      py      :     0.890624
      dz2     :     0.197753  d :     0.797644
      dxz     :     0.106873
      dyz     :     0.184658
      dx2y2   :     0.147869
      dxy     :     0.160492
      f0      :     0.007263  f :     0.048437
      f+1     :     0.003956
      f-1     :     0.012372
      f+2     :     0.009384
      f-2     :     0.007626
      f+3     :     0.004794
      f-3     :     0.003041
 12 C s       :     2.627527  s :     2.627527
      pz      :     0.910028  p :     2.599892
      px      :     0.797246
      py      :     0.892618
      dz2     :     0.175328  d :     0.779647
      dxz     :     0.122395
      dyz     :     0.204943
      dx2y2   :     0.132803
      dxy     :     0.144179
      f0      :     0.010724  f :     0.048092
      f+1     :     0.006242
      f-1     :     0.008123
      f+2     :     0.006309
      f-2     :     0.007564
      f+3     :     0.004288
      f-3     :     0.004841
 13 H s       :     0.702110  s :     0.702110
      pz      :     0.117500  p :     0.266947
      px      :     0.082393
      py      :     0.067054
      dz2     :     0.011267  d :     0.029316
      dxz     :     0.008015
      dyz     :     0.008749
      dx2y2   :     0.000624
      dxy     :     0.000662
 14 C s       :     2.632884  s :     2.632884
      pz      :     0.913808  p :     2.604767
      px      :     0.781845
      py      :     0.909114
      dz2     :     0.184046  d :     0.787201
      dxz     :     0.145996
      dyz     :     0.223500
      dx2y2   :     0.116092
      dxy     :     0.117567
      f0      :     0.008091  f :     0.047669
      f+1     :     0.006391
      f-1     :     0.014671
      f+2     :     0.005191
      f-2     :     0.004203
      f+3     :     0.004680
      f-3     :     0.004444
 15 H s       :     0.700582  s :     0.700582
      pz      :     0.107317  p :     0.262762
      px      :     0.086239
      py      :     0.069206
      dz2     :     0.009890  d :     0.029469
      dxz     :     0.007979
      dyz     :     0.008149
      dx2y2   :     0.001665
      dxy     :     0.001785
 16 C s       :     2.632663  s :     2.632663
      pz      :     0.914522  p :     2.594164
      px      :     0.772650
      py      :     0.906991
      dz2     :     0.157232  d :     0.793137
      dxz     :     0.144993
      dyz     :     0.246178
      dx2y2   :     0.131391
      dxy     :     0.113343
      f0      :     0.009613  f :     0.048458
      f+1     :     0.008516
      f-1     :     0.012114
      f+2     :     0.003247
      f-2     :     0.003931
      f+3     :     0.004405
      f-3     :     0.006632
 17 H s       :     0.699223  s :     0.699223
      pz      :     0.074029  p :     0.261378
      px      :     0.085423
      py      :     0.101926
      dz2     :     0.004978  d :     0.029411
      dxz     :     0.003244
      dyz     :     0.007602
      dx2y2   :     0.006902
      dxy     :     0.006686
 18 H s       :     0.699148  s :     0.699148
      pz      :     0.088034  p :     0.265319
      px      :     0.078646
      py      :     0.098638
      dz2     :     0.006803  d :     0.029276
      dxz     :     0.004065
      dyz     :     0.008648
      dx2y2   :     0.004973
      dxy     :     0.004788
 19 Cls       :     5.595684  s :     5.595684
      pz      :     3.713023  p :    11.093647
      px      :     3.731935
      py      :     3.648688
      dz2     :     0.018389  d :     0.124365
      dxz     :     0.005884
      dyz     :     0.015591
      dx2y2   :     0.041334
      dxy     :     0.043167
      f0      :     0.000070  f :     0.001674
      f+1     :     0.000032
      f-1     :     0.000349
      f+2     :     0.000121
      f-2     :     0.000036
      f+3     :     0.000355
      f-3     :     0.000710
 20 H s       :     0.844667  s :     0.844667
      pz      :     0.083169  p :     0.164520
      px      :     0.053759
      py      :     0.027592
      dz2     :     0.004446  d :     0.006228
      dxz     :     0.001010
      dyz     :     0.000609
      dx2y2   :     0.000104
      dxy     :     0.000060
 21 H s       :     0.701970  s :     0.701970
      pz      :     0.119316  p :     0.267546
      px      :     0.084323
      py      :     0.063907
      dz2     :     0.011557  d :     0.029327
      dxz     :     0.008338
      dyz     :     0.008634
      dx2y2   :     0.000393
      dxy     :     0.000405
 22 H s       :     0.698984  s :     0.698984
      pz      :     0.061292  p :     0.264261
      px      :     0.090441
      py      :     0.112528
      dz2     :     0.003083  d :     0.029597
      dxz     :     0.001128
      dyz     :     0.007790
      dx2y2   :     0.008645
      dxy     :     0.008951


                      *****************************
                      * MAYER POPULATION ANALYSIS *
                      *****************************

  NA   - Mulliken gross atomic population
  ZA   - Total nuclear charge
  QA   - Mulliken gross atomic charge
  VA   - Mayer's total valence
  BVA  - Mayer's bonded valence
  FA   - Mayer's free valence

  ATOM       NA         ZA         QA         VA         BVA        FA
  0 Zr    12.0082    12.0000    -0.0082     6.0177     6.0177     0.0000
  1 C      5.8829     6.0000     0.1171     3.7460     3.7460     0.0000
  2 C      5.8603     6.0000     0.1397     3.6783     3.6783    -0.0000
  3 C      5.9727     6.0000     0.0273     3.7733     3.7733     0.0000
  4 H      0.9632     1.0000     0.0368     1.0470     1.0470     0.0000
  5 C      6.0570     6.0000    -0.0570     3.7864     3.7864     0.0000
  6 H      0.9928     1.0000     0.0072     1.1443     1.1443     0.0000
  7 C      5.9266     6.0000     0.0734     3.7593     3.7593     0.0000
  8 H      0.9929     1.0000     0.0071     1.1180     1.1180     0.0000
  9 H      1.0380     1.0000    -0.0380     1.1437     1.1437     0.0000
 10 C      5.7934     6.0000     0.2066     3.5310     3.5310     0.0000
 11 C      5.9408     6.0000     0.0592     3.7889     3.7889     0.0000
 12 C      6.0868     6.0000    -0.0868     3.7833     3.7833     0.0000
 13 H      0.9982     1.0000     0.0018     1.0789     1.0789     0.0000
 14 C      6.0043     6.0000    -0.0043     3.8430     3.8430    -0.0000
 15 H      0.9845     1.0000     0.0155     1.0874     1.0874     0.0000
 16 C      5.9036     6.0000     0.0964     3.7209     3.7209    -0.0000
 17 H      1.0123     1.0000    -0.0123     1.1570     1.1570    -0.0000
 18 H      1.0185     1.0000    -0.0185     1.1207     1.1207    -0.0000
 19 Cl    17.4815    17.0000    -0.4815     0.9042     0.9042     0.0000
 20 H      1.1701     1.0000    -0.1701     0.8297     0.8297     0.0000
 21 H      0.9749     1.0000     0.0251     1.0443     1.0443     0.0000
 22 H      0.9363     1.0000     0.0637     1.0370     1.0370     0.0000

  Mayer bond orders larger than 0.100000
B(  0-Zr,  1-C ) :   0.2867 B(  0-Zr,  2-C ) :   0.3252 B(  0-Zr,  3-C ) :   0.4267 
B(  0-Zr,  5-C ) :   0.3917 B(  0-Zr,  7-C ) :   0.3226 B(  0-Zr, 10-C ) :   0.2688 
B(  0-Zr, 11-C ) :   0.2730 B(  0-Zr, 12-C ) :   0.4429 B(  0-Zr, 14-C ) :   0.4264 
B(  0-Zr, 16-C ) :   0.3348 B(  0-Zr, 19-Cl) :   0.9308 B(  0-Zr, 20-H ) :   0.9308 
B(  1-C ,  2-C ) :   1.2929 B(  1-C ,  3-C ) :   1.2877 B(  1-C , 21-H ) :   0.9581 
B(  2-C ,  4-H ) :   0.9109 B(  2-C ,  5-C ) :   1.2707 B(  3-C ,  6-H ) :   0.9463 
B(  3-C ,  7-C ) :   1.3129 B(  5-C ,  7-C ) :   1.2764 B(  5-C ,  8-H ) :   0.9616 
B(  7-C ,  9-H ) :   0.9828 B( 10-C , 11-C ) :   1.2764 B( 10-C , 12-C ) :   1.2764 
B( 10-C , 16-C ) :  -0.1149 B( 10-C , 22-H ) :   0.8924 B( 11-C , 13-H ) :   0.9753 
B( 11-C , 14-C ) :   1.3126 B( 12-C , 15-H ) :   0.9749 B( 12-C , 16-C ) :   1.2244 
B( 14-C , 16-C ) :   1.3402 B( 14-C , 17-H ) :   0.9518 B( 16-C , 18-H ) :   0.9851 


-------
TIMINGS
-------

Total SCF time: 0 days 0 hours 7 min 33 sec 

Total time                  ....     453.603 sec
Sum of individual times     ....     452.707 sec  ( 99.8%)

Fock matrix formation       ....     447.137 sec  ( 98.6%)
  XC integration            ....       4.754 sec  (  1.1% of F)
    Basis function eval.    ....       0.785 sec  ( 16.5% of XC)
    Density eval.           ....       1.416 sec  ( 29.8% of XC)
    XC-Functional eval.     ....       0.084 sec  (  1.8% of XC)
    XC-Potential eval.      ....       1.861 sec  ( 39.1% of XC)
Diagonalization             ....       1.334 sec  (  0.3%)
Density matrix formation    ....       0.077 sec  (  0.0%)
Population analysis         ....       0.085 sec  (  0.0%)
Initial guess               ....       2.648 sec  (  0.6%)
Orbital Transformation      ....       0.000 sec  (  0.0%)
Orbital Orthonormalization  ....       0.000 sec  (  0.0%)
DIIS solution               ....       0.847 sec  (  0.2%)
Grid generation             ....       0.579 sec  (  0.1%)

-------------------------   --------------------
FINAL SINGLE POINT ENERGY      -895.038652413317
-------------------------   --------------------


                            ***************************************
                            *     ORCA property calculations      *
                            ***************************************

                                    ---------------------
                                    Active property flags
                                    ---------------------
   (+) Dipole Moment


------------------------------------------------------------------------------
                       ORCA ELECTRIC PROPERTIES CALCULATION
------------------------------------------------------------------------------

Dipole Moment Calculation                       ... on
Quadrupole Moment Calculation                   ... off
Polarizability Calculation                      ... off
GBWName                                         ... TMB01_R1.gbw
Electron density file                           ... TMB01_R1.scfp
The origin for moment calculation is the CENTER OF MASS  = ( 0.000249,  0.084418 -0.012618)

-------------
DIPOLE MOMENT
-------------
                                X             Y             Z
Electronic contribution:     -0.01678      13.04532     -12.57647
Nuclear contribution   :      0.01059     -14.41688      13.08524
                        -----------------------------------------
Total Dipole Moment    :     -0.00619      -1.37155       0.50877
                        -----------------------------------------
Magnitude (a.u.)       :      1.46289
Magnitude (Debye)      :      3.71837



--------------------
Rotational spectrum 
--------------------
 
Rotational constants in cm-1:     0.033538     0.025044     0.018059 
Rotational constants in MHz :  1005.445647   750.792016   541.402542 

 Dipole components along the rotational axes: 
x,y,z [a.u.] :    -0.006721    -1.372736     0.505569 
x,y,z [Debye]:    -0.017084    -3.489218     1.285054 

 

Timings for individual modules:

Sum of individual times         ...      456.924 sec (=   7.615 min)
GTO integral calculation        ...        2.906 sec (=   0.048 min)   0.6 %
SCF iterations                  ...      454.017 sec (=   7.567 min)  99.4 %
                             ****ORCA TERMINATED NORMALLY****
TOTAL RUN TIME: 0 days 0 hours 7 minutes 37 seconds 495 msec
