
                                 *****************
                                 * O   R   C   A *
                                 *****************

           --- An Ab Initio, DFT and Semiempirical electronic structure package ---

                  #######################################################
                  #                        -***-                        #
                  #          Department of theory and spectroscopy      #
                  #               Directorship: Frank Neese             #
                  #        Max Planck Institute fuer Kohlenforschung    #
                  #                Kaiser Wilhelm Platz 1               #
                  #                 D-45470 Muelheim/Ruhr               #
                  #                      Germany                        #
                  #                                                     #
                  #                  All rights reserved                #
                  #                        -***-                        #
                  #######################################################


                         Program Version 4.2.0 -  RELEASE  -


 With contributions from (in alphabetic order):
   Daniel Aravena         : Magnetic Suceptibility
   Michael Atanasov       : Ab Initio Ligand Field Theory (pilot matlab implementation)
   Alexander A. Auer      : GIAO ZORA, VPT2
   Ute Becker             : Parallelization
   Giovanni Bistoni       : ED, misc. LED, open-shell LED, HFLED
   Martin Brehm           : Molecular dynamics
   Dmytro Bykov           : SCF Hessian
   Vijay G. Chilkuri      : MRCI spin determinant printing, contributions to CSF-ICE
   Dipayan Datta          : RHF DLPNO-CCSD density
   Achintya Kumar Dutta   : EOM-CC, STEOM-CC
   Dmitry Ganyushin       : Spin-Orbit,Spin-Spin,Magnetic field MRCI
   Miquel Garcia          : C-PCM Hessian, Gaussian charge scheme
   Yang Guo               : DLPNO-NEVPT2, CIM, IAO-localization
   Andreas Hansen         : Spin unrestricted coupled pair/coupled cluster methods
   Benjamin Helmich-Paris : CASSCF linear response (MC-RPA)
   Lee Huntington         : MR-EOM, pCC
   Robert Izsak           : Overlap fitted RIJCOSX, COSX-SCS-MP3, EOM
   Christian Kollmar      : KDIIS, OOCD, Brueckner-CCSD(T), CCSD density
   Simone Kossmann        : Meta GGA functionals, TD-DFT gradient, OOMP2, MP2 Hessian
   Martin Krupicka        : AUTO-CI
   Lucas Lang             : DCDCAS
   Dagmar Lenk            : GEPOL surface, SMD
   Dimitrios Liakos       : Extrapolation schemes; Compound Job, initial MDCI parallelization
   Dimitrios Manganas     : Further ROCIS development; embedding schemes
   Dimitrios Pantazis     : SARC Basis sets
   Taras Petrenko         : DFT Hessian,TD-DFT gradient, ASA, ECA, R-Raman, ABS, FL, XAS/XES, NRVS
   Peter Pinski           : DLPNO-MP2, DLPNO-MP2 Gradient
   Christoph Reimann      : Effective Core Potentials
   Marius Retegan         : Local ZFS, SOC
   Christoph Riplinger    : Optimizer, TS searches, QM/MM, DLPNO-CCSD(T), (RO)-DLPNO pert. Triples
   Tobias Risthaus        : Range-separated hybrids, TD-DFT gradient, RPA, STAB
   Michael Roemelt        : Original ROCIS implementation
   Masaaki Saitow         : Open-shell DLPNO-CCSD energy and density
   Barbara Sandhoefer     : DKH picture change effects
   Avijit Sen             : IP-ROCIS
   Kantharuban Sivalingam : CASSCF convergence, NEVPT2, FIC-MRCI
   Bernardo de Souza      : ESD, SOC TD-DFT
   Georgi Stoychev        : AutoAux, RI-MP2 NMR
   Willem Van den Heuvel  : Paramagnetic NMR
   Boris Wezisla          : Elementary symmetry handling
   Frank Wennmohs         : Technical directorship


 We gratefully acknowledge several colleagues who have allowed us to
 interface, adapt or use parts of their codes:
   Stefan Grimme, W. Hujo, H. Kruse,             : VdW corrections, initial TS optimization,
                  C. Bannwarth                     DFT functionals, gCP, sTDA/sTD-DF
   Ed Valeev, F. Pavosevic, A. Kumar             : LibInt (2-el integral package), F12 methods
   Garnet Chan, S. Sharma, J. Yang, R. Olivares  : DMRG
   Ulf Ekstrom                                   : XCFun DFT Library
   Mihaly Kallay                                 : mrcc  (arbitrary order and MRCC methods)
   Andreas Klamt, Michael Diedenhofen            : otool_cosmo (COSMO solvation model)
   Jiri Pittner, Ondrej Demel                    : Mk-CCSD
   Frank Weinhold                                : gennbo (NPA and NBO analysis)
   Christopher J. Cramer and Donald G. Truhlar   : smd solvation model
   Lars Goerigk                                  : TD-DFT with DH, B97 family of functionals
   V. Asgeirsson, H. Jonsson                     : NEB implementation
   FAccTs GmbH                                   : IRC, NEB, NEB-TS, Multilevel, MM, QM/MM, CI optimization
   S Lehtola, MJT Oliveira, MAL Marques          : LibXC Library


 Your calculation uses the libint2 library for the computation of 2-el integrals
 For citations please refer to: http://libint.valeyev.net

 Your ORCA version has been built with support for libXC version: 4.2.3
 For citations please refer to: https://tddft.org/programs/libxc/

 This ORCA versions uses:
   CBLAS   interface :  Fast vector & matrix operations
   LAPACKE interface :  Fast linear algebra routines
   SCALAPACK package :  Parallel linear algebra routines


Your calculation utilizes the DFT-NL dispersion correction.
Cite in your paper:
Vydrov, O. A.; Van Voorhis, T. J. Chem. Phys. 2010, 133, 244103
Hujo, W.; Grimme, S. J. Chem. Theory Comput. 2011, 7, 3866 
   

----- Orbital basis set information -----
Your calculation utilizes the basis: def2-TZVPPD
   F. Weigend and R. Ahlrichs, Phys. Chem. Chem. Phys. 7, 3297 (2005).
   D. Rappoport and F. Furche, J. Chem. Phys. 133 134105 (2010).

----- AuxJK basis set information -----
Your calculation utilizes the auxiliary basis: def2/JK
   H-Ba, Hf-Rn: F. Weigend, J. Comput. Chem. 29, 167 (2008).

cite the ECPs for Mo [Def2-ECP] as follows:
Ce-Yb(ecp-28): M. Dolg, H. Stoll, H.Preuss, J. Chem. Phys., 1989, 90, 1730-1734.
Y-Cd(ecp-28), Hf-Hg(ecp-46): D. Andrae,U. Haeussermann, M. Dolg, H. Stoll, H. Preuss, Theor. Chim. Acta, 1990, 77, 123-141.
In-Sb(ecp-28), Tl-Bi(ecp-46): B. Metz, H. Stoll, M. Dolg, J. Chem. Phys., 2000, 113, 2563-2569.
Te-Xe(ecp-28), Po-Rn(ecp-46): K. A. Peterson, D. Figgen, E. Goll, H. Stoll, M. Dolg, J. Chem. Phys., 2003, 119, 11113-11123.
Rb(ecp-28), Cs(ecp-46): T. Leininger, A. Nicklass, W. Kuechle, H. Stoll, M. Dolg, A. Bergner, Chem. Phys. Lett., 1996, 255, 274-280.
Sr(ecp-28), Ba(ecp-46): M. Kaupp, P. V. Schleyer, H. Stoll and H. Preuss, J. Chem. Phys., 1991, 94, 1360-1366.
La(ecp-46): M. Dolg, H. Stoll, A. Savin, H. Preuss, Theor. Chim. Acta, 1989, 75, 173-194.
Lu(ecp-28): X. Cao, M. Dolg, J. Chem. Phys., 2001, 115, 7348-7355.

ECP parameters for Mo [Def2-ECP] have been obtained from:
TURBOMOLE (7.0.2)

================================================================================
                                        WARNINGS
                       Please study these warnings very carefully!
================================================================================


INFO   : the flag for use of LIBINT has been found!

================================================================================
                                       INPUT FILE
================================================================================
NAME = TMB09_T1.in
|  1> #
|  2> # TMB09_T1 wB97X-V/Def2-TZVPPD
|  3> #
|  4> ! wb97x-v def2-tzvppd def2/jk grid4 nofinalgrid
|  5> 
|  6> *xyz 0 1
|  7> Mo       0.144293   -0.018278    0.187956 
|  8> C       -1.882744   -1.070987   -0.485243 
|  9> C       -1.076439    2.809087   -0.488683 
| 10> H       -1.056313    3.572787    0.310053 
| 11> H       -2.117393    2.730299   -0.852689 
| 12> H       -0.453643    3.172151   -1.326804 
| 13> C        1.996084   -2.290843   -0.946924 
| 14> C        2.556730    1.794509   -0.039409 
| 15> N       -0.610025    1.553803    0.004719 
| 16> O        1.936938    0.565567   -0.322724 
| 17> O        0.833025   -1.766355   -0.360705 
| 18> H        1.780871   -2.689531   -1.957376 
| 19> H        2.380311   -3.126092   -0.331250 
| 20> H        2.779790   -1.516765   -1.025980 
| 21> H        3.470410    1.892833   -0.654307 
| 22> H        2.854397    1.863620    1.026056 
| 23> H        1.897937    2.657406   -0.259961 
| 24> C       -0.134457   -0.284271    2.087106 
| 25> C       -1.864166   -1.358035    0.884748 
| 26> H        0.299474   -1.167843    2.578202 
| 27> H       -0.661177    0.399181    2.762773 
| 28> H       -1.449974   -2.303708    1.234049 
| 29> H       -2.567349   -0.858578    1.555883 
| 30> C       -2.930318   -0.174171   -1.105185 
| 31> H       -2.557155    0.344677   -2.001613 
| 32> H       -3.799822   -0.779414   -1.421129 
| 33> H       -3.293476    0.582538   -0.393193 
| 34> H       -1.444854   -1.827941   -1.140932 
| 35> *
| 36> 
| 37> %maxcore 5000
| 38> 
| 39> %pal
| 40> nprocs = 24
| 41> end
| 42> 
| 43> 
| 44>                          ****END OF INPUT****
================================================================================

                       ****************************
                       * Single Point Calculation *
                       ****************************

---------------------------------
CARTESIAN COORDINATES (ANGSTROEM)
---------------------------------
  Mo     0.144293   -0.018278    0.187956
  C     -1.882744   -1.070987   -0.485243
  C     -1.076439    2.809087   -0.488683
  H     -1.056313    3.572787    0.310053
  H     -2.117393    2.730299   -0.852689
  H     -0.453643    3.172151   -1.326804
  C      1.996084   -2.290843   -0.946924
  C      2.556730    1.794509   -0.039409
  N     -0.610025    1.553803    0.004719
  O      1.936938    0.565567   -0.322724
  O      0.833025   -1.766355   -0.360705
  H      1.780871   -2.689531   -1.957376
  H      2.380311   -3.126092   -0.331250
  H      2.779790   -1.516765   -1.025980
  H      3.470410    1.892833   -0.654307
  H      2.854397    1.863620    1.026056
  H      1.897937    2.657406   -0.259961
  C     -0.134457   -0.284271    2.087106
  C     -1.864166   -1.358035    0.884748
  H      0.299474   -1.167843    2.578202
  H     -0.661177    0.399181    2.762773
  H     -1.449974   -2.303708    1.234049
  H     -2.567349   -0.858578    1.555883
  C     -2.930318   -0.174171   -1.105185
  H     -2.557155    0.344677   -2.001613
  H     -3.799822   -0.779414   -1.421129
  H     -3.293476    0.582538   -0.393193
  H     -1.444854   -1.827941   -1.140932

----------------------------
CARTESIAN COORDINATES (A.U.)
----------------------------
  NO LB      ZA    FRAG     MASS         X           Y           Z
   0 Mo   14.0000*   0    95.940    0.272674   -0.034540    0.355185
   1 C     6.0000    0    12.011   -3.557871   -2.023872   -0.916976
   2 C     6.0000    0    12.011   -2.034175    5.308405   -0.923477
   3 H     1.0000    0     1.008   -1.996142    6.751589    0.585915
   4 H     1.0000    0     1.008   -4.001293    5.159517   -1.611349
   5 H     1.0000    0     1.008   -0.857261    5.994497   -2.507296
   6 C     6.0000    0    12.011    3.772052   -4.329066   -1.789427
   7 C     6.0000    0    12.011    4.831519    3.391131   -0.074472
   8 N     7.0000    0    14.007   -1.152780    2.936262    0.008918
   9 O     8.0000    0    15.999    3.660282    1.068767   -0.609860
  10 O     8.0000    0    15.999    1.574189   -3.337927   -0.681634
  11 H     1.0000    0     1.008    3.365358   -5.082477   -3.698905
  12 H     1.0000    0     1.008    4.498136   -5.907458   -0.625972
  13 H     1.0000    0     1.008    5.253042   -2.866270   -1.938821
  14 H     1.0000    0     1.008    6.558124    3.576936   -1.236461
  15 H     1.0000    0     1.008    5.394029    3.521731    1.938965
  16 H     1.0000    0     1.008    3.586581    5.021770   -0.491255
  17 C     6.0000    0    12.011   -0.254087   -0.537194    3.944059
  18 C     6.0000    0    12.011   -3.522763   -2.566314    1.671931
  19 H     1.0000    0     1.008    0.565924   -2.206903    4.872096
  20 H     1.0000    0     1.008   -1.249443    0.754343    5.220884
  21 H     1.0000    0     1.008   -2.740054   -4.353377    2.332015
  22 H     1.0000    0     1.008   -4.851587   -1.622477    2.940193
  23 C     6.0000    0    12.011   -5.537499   -0.329135   -2.088497
  24 H     1.0000    0     1.008   -4.832323    0.651345   -3.782500
  25 H     1.0000    0     1.008   -7.180623   -1.472879   -2.685545
  26 H     1.0000    0     1.008   -6.223768    1.100837   -0.743027
  27 H     1.0000    0     1.008   -2.730378   -3.454308   -2.156049
* core charge reduced due to ECP

--------------------------------
INTERNAL COORDINATES (ANGSTROEM)
--------------------------------
 Mo     0   0   0     0.000000000000     0.00000000     0.00000000
 C      1   0   0     2.381233321548     0.00000000     0.00000000
 C      1   2   0     3.153096857911    90.35416580     0.00000000
 H      3   1   2     1.105270077208   117.22287164   125.98189637
 H      3   1   2     1.105573673301   111.79438695     0.93323316
 H      3   1   2     1.105503114583   103.83186971   245.09209323
 C      1   2   3     3.143506672699    94.57678127   216.68676685
 C      1   2   3     3.026176437282   157.24926990   308.16077783
 N      3   1   2     1.427138911829     8.33579235    87.31623396
 O      8   1   2     1.405243022346    30.64532601   277.48267478
 O      7   1   2     1.404082125656    24.66757243   327.13618320
 H      7   1   2     1.107376178639   118.37357679    44.97133975
 H      7   1   2     1.106492545753   123.32566127   264.80956309
 H      7   1   2     1.104373893053    86.39702684   154.60695032
 H      8   1   2     1.105702628097   138.92033387   295.55831576
 H      8   1   2     1.108421237362   100.32403884   162.39971618
 H      8   1   2     1.107809836643    90.42894388    54.40925173
 C      1   2   3     1.937840179439    95.38999786   106.23184163
 C      2   1   3     1.399863220629    78.61953806   245.90319180
 H     18   1   2     1.100077666877   119.40723354    94.01901505
 H     18   1   2     1.095931790575   125.99730880   271.02019269
 H     19   2   1     1.089891565429   119.77641259   265.45198793
 H     19   2   1     1.092861297038   119.91738675   108.56187226
 C      2   1   3     1.511958434183   116.32713961     6.30003436
 H     24   2   1     1.100925533747   112.24433834    58.40885355
 H     24   2   1     1.105521101653   109.71783228   177.19901419
 H     24   2   1     1.100647469315   111.78755294   296.43929625
 H      2   1   3     1.093002779016    97.74258943   130.73038408

---------------------------
INTERNAL COORDINATES (A.U.)
---------------------------
 Mo     0   0   0     0.000000000000     0.00000000     0.00000000
 C      1   0   0     4.499878838694     0.00000000     0.00000000
 C      1   2   0     5.958489535180    90.35416580     0.00000000
 H      3   1   2     2.088657749942   117.22287164   125.98189637
 H      3   1   2     2.089231463412   111.79438695     0.93323316
 H      3   1   2     2.089098126759   103.83186971   245.09209323
 C      1   2   3     5.940366711556    94.57678127   216.68676685
 C      1   2   3     5.718644699389   157.24926990   308.16077783
 N      3   1   2     2.696901698419     8.33579235    87.31623396
 O      8   1   2     2.655524463838    30.64532601   277.48267478
 O      7   1   2     2.653330687023    24.66757243   327.13618320
 H      7   1   2     2.092637704856   118.37357679    44.97133975
 H      7   1   2     2.090967880698   123.32566127   264.80956309
 H      7   1   2     2.086964207322    86.39702684   154.60695032
 H      8   1   2     2.089475152660   138.92033387   295.55831576
 H      8   1   2     2.094612579636   100.32403884   162.39971618
 H      8   1   2     2.093457199718    90.42894388    54.40925173
 C      1   2   3     3.661987230449    95.38999786   106.23184163
 C      2   1   3     2.645358111937    78.61953806   245.90319180
 H     18   1   2     2.078845516440   119.40723354    94.01901505
 H     18   1   2     2.071010945645   125.99730880   271.02019269
 H     19   2   1     2.059596574332   119.77641259   265.45198793
 H     19   2   1     2.065208553763   119.91738675   108.56187226
 C      2   1   3     2.857187366478   116.32713961     6.30003436
 H     24   2   1     2.080447752624   112.24433834    58.40885355
 H     24   2   1     2.089132117396   109.71783228   177.19901419
 H     24   2   1     2.079922286998   111.78755294   296.43929625
 H      2   1   3     2.065475915955    97.74258943   130.73038408

---------------------
BASIS SET INFORMATION
---------------------
There are 5 groups of distinct atoms

 Group   1 Type Mo  : 7s7p5d2f1g contracted to 6s4p3d2f1g pattern {211111/4111/311/11/1}
 Group   2 Type C   : 12s6p3d1f contracted to 6s3p3d1f pattern {621111/411/111/1}
 Group   3 Type H   : 5s3p1d contracted to 3s3p1d pattern {311/111/1}
 Group   4 Type N   : 12s6p3d1f contracted to 6s3p3d1f pattern {621111/411/111/1}
 Group   5 Type O   : 12s7p3d1f contracted to 6s4p3d1f pattern {621111/4111/111/1}

Atom   0Mo   basis set group =>   1
Atom   1C    basis set group =>   2
Atom   2C    basis set group =>   2
Atom   3H    basis set group =>   3
Atom   4H    basis set group =>   3
Atom   5H    basis set group =>   3
Atom   6C    basis set group =>   2
Atom   7C    basis set group =>   2
Atom   8N    basis set group =>   4
Atom   9O    basis set group =>   5
Atom  10O    basis set group =>   5
Atom  11H    basis set group =>   3
Atom  12H    basis set group =>   3
Atom  13H    basis set group =>   3
Atom  14H    basis set group =>   3
Atom  15H    basis set group =>   3
Atom  16H    basis set group =>   3
Atom  17C    basis set group =>   2
Atom  18C    basis set group =>   2
Atom  19H    basis set group =>   3
Atom  20H    basis set group =>   3
Atom  21H    basis set group =>   3
Atom  22H    basis set group =>   3
Atom  23C    basis set group =>   2
Atom  24H    basis set group =>   3
Atom  25H    basis set group =>   3
Atom  26H    basis set group =>   3
Atom  27H    basis set group =>   3
----------------------------------
AUXILIARY/JK BASIS SET INFORMATION
----------------------------------
There are 5 groups of distinct atoms

 Group   1 Type Mo  : 13s12p10d9f6g3h2i contracted to 11s10p9d8f6g3h2i pattern {31111111111/3111111111/211111111/21111111/111111/111/11}
 Group   2 Type C   : 14s10p6d2f1g contracted to 10s8p5d1f1g pattern {5111111111/31111111/21111/2/1}
 Group   3 Type H   : 4s2p2d contracted to 2s2p2d pattern {31/11/11}
 Group   4 Type N   : 14s10p6d2f1g contracted to 10s8p4d2f1g pattern {5111111111/31111111/3111/11/1}
 Group   5 Type O   : 14s10p6d2f1g contracted to 10s8p4d2f1g pattern {5111111111/31111111/3111/11/1}

Atom   0Mo   basis set group =>   1
Atom   1C    basis set group =>   2
Atom   2C    basis set group =>   2
Atom   3H    basis set group =>   3
Atom   4H    basis set group =>   3
Atom   5H    basis set group =>   3
Atom   6C    basis set group =>   2
Atom   7C    basis set group =>   2
Atom   8N    basis set group =>   4
Atom   9O    basis set group =>   5
Atom  10O    basis set group =>   5
Atom  11H    basis set group =>   3
Atom  12H    basis set group =>   3
Atom  13H    basis set group =>   3
Atom  14H    basis set group =>   3
Atom  15H    basis set group =>   3
Atom  16H    basis set group =>   3
Atom  17C    basis set group =>   2
Atom  18C    basis set group =>   2
Atom  19H    basis set group =>   3
Atom  20H    basis set group =>   3
Atom  21H    basis set group =>   3
Atom  22H    basis set group =>   3
Atom  23C    basis set group =>   2
Atom  24H    basis set group =>   3
Atom  25H    basis set group =>   3
Atom  26H    basis set group =>   3
Atom  27H    basis set group =>   3
-------------------------
ECP PARAMETER INFORMATION
-------------------------

 Group 1, Type Mo ECP Def2-ECP (replacing 28 core electrons, lmax=3)

Atom   0Mo   ECP group =>   1



           ************************************************************
           *        Program running with 24 parallel MPI-processes    *
           *              working on a common directory               *
           ************************************************************
------------------------------------------------------------------------------
                           ORCA GTO INTEGRAL CALCULATION
------------------------------------------------------------------------------

                         BASIS SET STATISTICS AND STARTUP INFO

 # of primitive gaussian shells          ...  397
 # of primitive gaussian functions       ...  925
 # of contracted shells                  ...  267
 # of contracted basis functions         ...  721
 Highest angular momentum                ...    4
 Maximum contraction depth               ...    6
 Integral package used                   ... LIBINT
 Integral threshhold            Thresh   ...  1.000e-10
 Primitive cut-off              TCut     ...  1.000e-11


------------------------------ INTEGRAL EVALUATION ----------------------------


 * One electron integrals 

   ECP integrals                         ... done
 Pre-screening matrix                    ... done
 Shell pair data                         ... done (   0.008 sec)



           ************************************************************
           *        Program running with 24 parallel MPI-processes    *
           *              working on a common directory               *
           ************************************************************
-------------------------------------------------------------------------------
                                 ORCA SCF
-------------------------------------------------------------------------------

------------
SCF SETTINGS
------------
Hamiltonian:
 Density Functional     Method          .... DFT(GTOs)
 Exchange Functional    Exchange        .... WB97X-V
 Correlation Functional Correlation     .... WB97X-V
 Gradients option       PostSCFGGA      .... off
 Hybrid DFT is turned on
   Fraction HF Exchange ScalHFX         ....  0.167000
   Scaling of DF-GGA-X  ScalDFX         ....  0.000000
   Scaling of DF-GGA-C  ScalDFC         ....  1.000000
   Scaling of DF-LDA-C  ScalLDAC        ....  1.000000
   Perturbative correction              ....  0.000000
   Density functional embedding theory  .... OFF
 Long-range corrected/Screened/Range-Separated Hybrid DFT is turned on
   Amount of maximum screened exact exchange              ....  0.833000
   Range separation parameter mu (erf(mu*r12)/r12)        ....  0.300000
   NL short-range parameter             ....  6.000000
   NL long-range parameter              ....  0.010000


General Settings:
 Integral files         IntName         .... TMB09_T1
 Hartree-Fock type      HFTyp           .... RHF
 Total Charge           Charge          ....    0
 Multiplicity           Mult            ....    1
 Number of Electrons    NEL             ....   96
 Basis Dimension        Dim             ....  721
 Nuclear Repulsion      ENuc            ....    772.8237984215 Eh

Convergence Acceleration:
 DIIS                   CNVDIIS         .... on
   Start iteration      DIISMaxIt       ....    12
   Startup error        DIISStart       ....  0.200000
   # of expansion vecs  DIISMaxEq       ....     5
   Bias factor          DIISBfac        ....   1.050
   Max. coefficient     DIISMaxC        ....  10.000
 Newton-Raphson         CNVNR           .... off
 SOSCF                  CNVSOSCF        .... off
 Level Shifting         CNVShift        .... on
   Level shift para.    LevelShift      ....    0.2500
   Turn off err/grad.   ShiftErr        ....    0.0010
 Zerner damping         CNVZerner       .... off
 Static damping         CNVDamp         .... on
   Fraction old density DampFac         ....    0.7000
   Max. Damping (<1)    DampMax         ....    0.9800
   Min. Damping (>=0)   DampMin         ....    0.0000
   Turn off err/grad.   DampErr         ....    0.1000
 Fernandez-Rico         CNVRico         .... off

SCF Procedure:
 Maximum # iterations   MaxIter         ....   125
 SCF integral mode      SCFMode         .... Direct
   Integral package                     .... LIBINT
 Reset frequency        DirectResetFreq ....    20
 Integral Threshold     Thresh          ....  1.000e-10 Eh
 Primitive CutOff       TCut            ....  1.000e-11 Eh

Convergence Tolerance:
 Convergence Check Mode ConvCheckMode   .... Total+1el-Energy
 Convergence forced     ConvForced      .... 0
 Energy Change          TolE            ....  1.000e-06 Eh
 1-El. energy change                    ....  1.000e-03 Eh
 DIIS Error             TolErr          ....  1.000e-06


Diagonalization of the overlap matrix:
Smallest eigenvalue                        ... 2.613e-06
Time for diagonalization                   ...    0.082 sec
Threshold for overlap eigenvalues          ... 1.000e-08
Number of eigenvalues below threshold      ... 0
Time for construction of square roots      ...    0.070 sec
Total time needed                          ...    0.154 sec

-------------------
DFT GRID GENERATION
-------------------

General Integration Accuracy     IntAcc      ...  4.670
Radial Grid Type                 RadialGrid  ... Gauss-Chebyshev
Angular Grid (max. acc.)         AngularGrid ... Lebedev-302
Angular grid pruning method      GridPruning ... 3 (G Style)
Weight generation scheme         WeightScheme... Becke
Basis function cutoff            BFCut       ...    1.0000e-10
Integration weight cutoff        WCut        ...    1.0000e-14
Grids for H and He will be reduced by one unit

# of grid points (after initial pruning)     ... 130416 (   0.0 sec)
# of grid points (after weights+screening)   ... 116069 (   0.1 sec)
nearest neighbour list constructed           ...    0.0 sec
Grid point re-assignment to atoms done       ...    0.0 sec
Grid point division into batches done        ...    0.3 sec
Reduced shell lists constructed in    0.5 sec

Total number of grid points                  ...   116069
Total number of batches                      ...     1829
Average number of points per batch           ...       63
Average number of grid points per atom       ...     4145
Average number of shells per batch           ...   194.05 (72.68%)
Average number of basis functions per batch  ...   535.85 (74.32%)
Average number of large shells per batch     ...   151.29 (77.97%)
Average number of large basis fcns per batch ...   410.37 (76.58%)
Maximum spatial batch extension              ...   2.09,  2.19,  2.23 au
Average spatial batch extension              ...   0.05,  0.05,  0.05 au

Time for grid setup =    0.573 sec

------------------------------
INITIAL GUESS: MODEL POTENTIAL
------------------------------
Loading Hartree-Fock densities                     ... done
  calling /sw/apps/orca/orca_4_2_0_linux_x86-64_openmpi314/orca TMB09_T1_atom42.inp > TMB09_T1_atom42.out in order to generate an atomic fitting density for atom 0 (Mo with ECP) on-the-fly... 
    atom 0 (Mo), assumed electronic state with S=5: 1s2 2s2 2p6 3s2 3p6 4s2 3d10 4p6 5s2 4d4           ... done
Calculating cut-offs                               ... done
Setting up the integral package                    ... done
Initializing the effective Hamiltonian             ... done
Starting the Coulomb interaction                   ... done (   0.1 sec)
Reading the grid                                   ... done
Mapping shells                                     ... done
Starting the XC term evaluation                    ... done (   0.3 sec)
  promolecular density results
     # of electrons  =    123.992171550
     EX              =   -135.673090422
     EC              =     -6.137173149
     EX+EC           =   -141.810263571
Transforming the Hamiltonian                       ... done (   0.0 sec)
Diagonalizing the Hamiltonian                      ... done (   0.1 sec)
Back transforming the eigenvectors                 ... done (   0.0 sec)
Now organizing SCF variables                       ... done
                      ------------------
                      INITIAL GUESS DONE (   3.1 sec)
                      ------------------
--------------
SCF ITERATIONS
--------------
ITER       Energy         Delta-E        Max-DP      RMS-DP      [F,P]     Damp
               ***  Starting incremental Fock matrix formation  ***
  0   -550.5305263096   0.000000000000 0.28344593  0.00109943  0.3375423 0.7000
  1   -550.6224198568  -0.091893547186 0.15098375  0.00070853  0.2344564 0.7000
                               ***Turning on DIIS***
  2   -550.6544417001  -0.032021843290 0.08539175  0.00048649  0.1726038 0.7000
  3   -550.6800208957  -0.025579195645 0.06813650  0.00037196  0.1231788 0.7000
  4   -550.6986598721  -0.018638976381 0.12792301  0.00085683  0.0851171 0.0000
  5   -550.7425737290  -0.043913856897 0.02048111  0.00009658  0.0063141 0.0000
  6   -550.7427718532  -0.000198124241 0.00799005  0.00005015  0.0064907 0.0000
  7   -550.7429152725  -0.000143419245 0.00621563  0.00003785  0.0016492 0.0000
  8   -550.7429556061  -0.000040333619 0.00336914  0.00002090  0.0015136 0.0000
  9   -550.7429739485  -0.000018342437 0.00501522  0.00002520  0.0008006 0.0000
 10   -550.7429842034  -0.000010254899 0.00245279  0.00001052  0.0003521 0.0000
 11   -550.7429855627  -0.000001359278 0.00212391  0.00000834  0.0002606 0.0000
                 **** Energy Check signals convergence ****

               *****************************************************
               *                     SUCCESS                       *
               *           SCF CONVERGED AFTER  12 CYCLES          *
               *****************************************************


Setting up the DFT-NL grid :

General Integration Accuracy     IntAcc      ...  4.340
Radial Grid Type                 RadialGrid  ... Gauss-Chebyshev
Angular Grid (max. acc.)         AngularGrid ... Lebedev-110
Angular grid pruning method      GridPruning ... 3 (G Style)
Weight generation scheme         WeightScheme... Becke
Basis function cutoff            BFCut       ...    1.0000e-10
Integration weight cutoff        WCut        ...    1.0000e-14
Grids for H and He will be reduced by one unit

# of grid points (after initial pruning)     ...  33504 (   0.0 sec)
# of grid points (after weights+screening)   ...  30308 (   0.0 sec)
nearest neighbour list constructed           ...    0.0 sec
Grid point re-assignment to atoms done       ...    0.0 sec
Grid point division into batches done        ...    0.0 sec
Reduced shell lists constructed in    0.1 sec

Total number of grid points                  ...    30308
Total number of batches                      ...      491
Average number of points per batch           ...       61
Average number of grid points per atom       ...     1082
Average number of shells per batch           ...   193.95 (72.64%)
Average number of basis functions per batch  ...   538.95 (74.75%)
Average number of large shells per batch     ...   155.45 (80.15%)
Average number of large basis fcns per batch ...   423.27 (78.54%)
Maximum spatial batch extension              ...   2.83,  2.63,  2.88 au
Average spatial batch extension              ...   0.08,  0.07,  0.07 au

Final grid set up in    0.1 sec

-------------------------------------------------------------------------------
                         DFT-NL dispersion correction                          
-------------------------------------------------------------------------------

SC Energy -550.742985956 
NL    Energy 0.354906727 
SC+NL Energy -550.388079229 
NL done in    0.3 sec
-------------------------------------------------------------------------------

----------------
TOTAL SCF ENERGY
----------------

Total Energy       :         -550.38807923 Eh          -14976.82104 eV

Components:
Nuclear Repulsion  :          772.82379842 Eh           21029.60468 eV
Electronic Energy  :        -1323.21187765 Eh          -36006.42572 eV
One Electron Energy:        -2307.12865943 Eh          -62780.16250 eV
Two Electron Energy:          983.91678178 Eh           26773.73678 eV

Virial components:
Potential Energy   :        -1053.23588186 Eh          -28660.00539 eV
Kinetic Energy     :          502.84780263 Eh           13683.18435 eV
Virial Ratio       :            2.09454208


DFT components:
N(Alpha)           :       47.999972620490 electrons
N(Beta)            :       47.999972620490 electrons
N(Total)           :       95.999945240980 electrons
E(X)               :      -47.892973281308 Eh       
E(C)               :       -3.932333558955 Eh       
NL Energy, E(C,NL) :        0.354906727161 Eh       
E(XC)              :      -51.470400113103 Eh       
DFET-embed. en.    :        0.000000000000 Eh       

---------------
SCF CONVERGENCE
---------------

  Last Energy change         ...   -3.9365e-07  Tolerance :   1.0000e-06
  Last MAX-Density change    ...    6.4945e-04  Tolerance :   1.0000e-05
  Last RMS-Density change    ...    4.8424e-06  Tolerance :   1.0000e-06
  Last DIIS Error            ...    5.9213e-05  Tolerance :   1.0000e-06

             **** THE GBW FILE WAS UPDATED (TMB09_T1.gbw) ****
             **** DENSITY FILE WAS UPDATED (TMB09_T1.scfp) ****
             **** ENERGY FILE WAS UPDATED (TMB09_T1.en.tmp) ****
             **** THE GBW FILE WAS UPDATED (TMB09_T1.gbw) ****
             **** DENSITY FILE WAS UPDATED (TMB09_T1.scfp) ****
----------------
ORBITAL ENERGIES
----------------

  NO   OCC          E(Eh)            E(eV) 
   0   2.0000     -19.171098      -521.6721 
   1   2.0000     -19.170423      -521.6537 
   2   2.0000     -14.407142      -392.0383 
   3   2.0000     -10.313362      -280.6408 
   4   2.0000     -10.305623      -280.4303 
   5   2.0000     -10.293822      -280.1091 
   6   2.0000     -10.293076      -280.0888 
   7   2.0000     -10.292343      -280.0689 
   8   2.0000     -10.286379      -279.9066 
   9   2.0000     -10.277462      -279.6640 
  10   2.0000      -2.743002       -74.6409 
  11   2.0000      -1.750738       -47.6400 
  12   2.0000      -1.738791       -47.3149 
  13   2.0000      -1.730857       -47.0990 
  14   2.0000      -1.084135       -29.5008 
  15   2.0000      -1.075926       -29.2774 
  16   2.0000      -0.971706       -26.4415 
  17   2.0000      -0.938266       -25.5315 
  18   2.0000      -0.834535       -22.7089 
  19   2.0000      -0.783425       -21.3181 
  20   2.0000      -0.771500       -20.9936 
  21   2.0000      -0.765128       -20.8202 
  22   2.0000      -0.745440       -20.2845 
  23   2.0000      -0.695769       -18.9328 
  24   2.0000      -0.602055       -16.3827 
  25   2.0000      -0.567946       -15.4546 
  26   2.0000      -0.561418       -15.2770 
  27   2.0000      -0.558519       -15.1981 
  28   2.0000      -0.552653       -15.0385 
  29   2.0000      -0.547940       -14.9102 
  30   2.0000      -0.540775       -14.7152 
  31   2.0000      -0.535620       -14.5750 
  32   2.0000      -0.528004       -14.3677 
  33   2.0000      -0.522787       -14.2258 
  34   2.0000      -0.520748       -14.1703 
  35   2.0000      -0.501105       -13.6358 
  36   2.0000      -0.495517       -13.4837 
  37   2.0000      -0.488613       -13.2958 
  38   2.0000      -0.464277       -12.6336 
  39   2.0000      -0.453444       -12.3388 
  40   2.0000      -0.419808       -11.4236 
  41   2.0000      -0.397180       -10.8078 
  42   2.0000      -0.388026       -10.5587 
  43   2.0000      -0.367946       -10.0123 
  44   2.0000      -0.363427        -9.8893 
  45   2.0000      -0.346933        -9.4405 
  46   2.0000      -0.336010        -9.1433 
  47   2.0000      -0.309168        -8.4129 
  48   0.0000       0.028105         0.7648 
  49   0.0000       0.039365         1.0712 
  50   0.0000       0.049802         1.3552 
  51   0.0000       0.054837         1.4922 
  52   0.0000       0.062204         1.6927 
  53   0.0000       0.068776         1.8715 
  54   0.0000       0.070711         1.9241 
  55   0.0000       0.077638         2.1126 
  56   0.0000       0.082387         2.2419 
  57   0.0000       0.092310         2.5119 
  58   0.0000       0.096301         2.6205 
  59   0.0000       0.099528         2.7083 
  60   0.0000       0.103483         2.8159 
  61   0.0000       0.108731         2.9587 
  62   0.0000       0.121372         3.3027 
  63   0.0000       0.130344         3.5469 
  64   0.0000       0.137158         3.7322 
  65   0.0000       0.141839         3.8596 
  66   0.0000       0.145140         3.9495 
  67   0.0000       0.149911         4.0793 
  68   0.0000       0.151002         4.1090 
  69   0.0000       0.156375         4.2552 
  70   0.0000       0.166457         4.5295 
  71   0.0000       0.170860         4.6493 
  72   0.0000       0.180062         4.8997 
  73   0.0000       0.182132         4.9561 
  74   0.0000       0.183135         4.9834 
  75   0.0000       0.187484         5.1017 
  76   0.0000       0.196597         5.3497 
  77   0.0000       0.198286         5.3956 
  78   0.0000       0.206560         5.6208 
  79   0.0000       0.212947         5.7946 
  80   0.0000       0.216358         5.8874 
  81   0.0000       0.219099         5.9620 
  82   0.0000       0.227121         6.1803 
  83   0.0000       0.230629         6.2757 
  84   0.0000       0.236673         6.4402 
  85   0.0000       0.240275         6.5382 
  86   0.0000       0.241527         6.5723 
  87   0.0000       0.246177         6.6988 
  88   0.0000       0.250696         6.8218 
  89   0.0000       0.253440         6.8965 
  90   0.0000       0.262075         7.1314 
  91   0.0000       0.267832         7.2881 
  92   0.0000       0.272352         7.4111 
  93   0.0000       0.276945         7.5361 
  94   0.0000       0.281205         7.6520 
  95   0.0000       0.286159         7.7868 
  96   0.0000       0.293207         7.9786 
  97   0.0000       0.300732         8.1833 
  98   0.0000       0.303160         8.2494 
  99   0.0000       0.305727         8.3193 
 100   0.0000       0.307313         8.3624 
 101   0.0000       0.313662         8.5352 
 102   0.0000       0.313782         8.5384 
 103   0.0000       0.318058         8.6548 
 104   0.0000       0.324131         8.8201 
 105   0.0000       0.328524         8.9396 
 106   0.0000       0.332940         9.0598 
 107   0.0000       0.336331         9.1520 
 108   0.0000       0.338457         9.2099 
 109   0.0000       0.341566         9.2945 
 110   0.0000       0.350597         9.5402 
 111   0.0000       0.350873         9.5477 
 112   0.0000       0.352095         9.5810 
 113   0.0000       0.355490         9.6734 
 114   0.0000       0.359703         9.7880 
 115   0.0000       0.362609         9.8671 
 116   0.0000       0.366577         9.9751 
 117   0.0000       0.369928        10.0663 
 118   0.0000       0.371018        10.0959 
 119   0.0000       0.371839        10.1183 
 120   0.0000       0.376192        10.2367 
 121   0.0000       0.383002        10.4220 
 122   0.0000       0.386399        10.5145 
 123   0.0000       0.390891        10.6367 
 124   0.0000       0.395760        10.7692 
 125   0.0000       0.396780        10.7969 
 126   0.0000       0.399792        10.8789 
 127   0.0000       0.402028        10.9397 
 128   0.0000       0.409563        11.1448 
 129   0.0000       0.413068        11.2402 
 130   0.0000       0.414343        11.2748 
 131   0.0000       0.415952        11.3186 
 132   0.0000       0.420244        11.4354 
 133   0.0000       0.422895        11.5075 
 134   0.0000       0.429725        11.6934 
 135   0.0000       0.432716        11.7748 
 136   0.0000       0.437564        11.9067 
 137   0.0000       0.441370        12.0103 
 138   0.0000       0.445202        12.1146 
 139   0.0000       0.446165        12.1408 
 140   0.0000       0.448924        12.2158 
 141   0.0000       0.450617        12.2619 
 142   0.0000       0.457322        12.4444 
 143   0.0000       0.464110        12.6291 
 144   0.0000       0.465651        12.6710 
 145   0.0000       0.471237        12.8230 
 146   0.0000       0.474214        12.9040 
 147   0.0000       0.482366        13.1258 
 148   0.0000       0.483372        13.1532 
 149   0.0000       0.485412        13.2087 
 150   0.0000       0.488279        13.2867 
 151   0.0000       0.496260        13.5039 
 152   0.0000       0.497039        13.5251 
 153   0.0000       0.501651        13.6506 
 154   0.0000       0.503722        13.7070 
 155   0.0000       0.511196        13.9103 
 156   0.0000       0.514482        13.9998 
 157   0.0000       0.516248        14.0478 
 158   0.0000       0.518423        14.1070 
 159   0.0000       0.523033        14.2325 
 160   0.0000       0.527417        14.3518 
 161   0.0000       0.529634        14.4121 
 162   0.0000       0.535956        14.5841 
 163   0.0000       0.541841        14.7443 
 164   0.0000       0.547094        14.8872 
 165   0.0000       0.552011        15.0210 
 166   0.0000       0.559555        15.2263 
 167   0.0000       0.560664        15.2564 
 168   0.0000       0.563524        15.3343 
 169   0.0000       0.566063        15.4034 
 170   0.0000       0.574058        15.6209 
 171   0.0000       0.578424        15.7397 
 172   0.0000       0.586537        15.9605 
 173   0.0000       0.590814        16.0769 
 174   0.0000       0.595698        16.2098 
 175   0.0000       0.597201        16.2507 
 176   0.0000       0.601722        16.3737 
 177   0.0000       0.604898        16.4601 
 178   0.0000       0.609856        16.5950 
 179   0.0000       0.614480        16.7208 
 180   0.0000       0.626407        17.0454 
 181   0.0000       0.627267        17.0688 
 182   0.0000       0.633574        17.2404 
 183   0.0000       0.640231        17.4216 
 184   0.0000       0.645569        17.5668 
 185   0.0000       0.649185        17.6652 
 186   0.0000       0.653494        17.7825 
 187   0.0000       0.661891        18.0110 
 188   0.0000       0.671055        18.2603 
 189   0.0000       0.674734        18.3604 
 190   0.0000       0.679815        18.4987 
 191   0.0000       0.685121        18.6431 
 192   0.0000       0.693515        18.8715 
 193   0.0000       0.695501        18.9255 
 194   0.0000       0.701129        19.0787 
 195   0.0000       0.707698        19.2574 
 196   0.0000       0.717259        19.5176 
 197   0.0000       0.721325        19.6282 
 198   0.0000       0.728651        19.8276 
 199   0.0000       0.734272        19.9806 
 200   0.0000       0.742871        20.2146 
 201   0.0000       0.744342        20.2546 
 202   0.0000       0.744791        20.2668 
 203   0.0000       0.753379        20.5005 
 204   0.0000       0.761163        20.7123 
 205   0.0000       0.762845        20.7581 
 206   0.0000       0.767591        20.8872 
 207   0.0000       0.770308        20.9612 
 208   0.0000       0.776357        21.1258 
 209   0.0000       0.778187        21.1755 
 210   0.0000       0.780592        21.2410 
 211   0.0000       0.784747        21.3540 
 212   0.0000       0.791545        21.5390 
 213   0.0000       0.794341        21.6151 
 214   0.0000       0.796567        21.6757 
 215   0.0000       0.802936        21.8490 
 216   0.0000       0.809187        22.0191 
 217   0.0000       0.814751        22.1705 
 218   0.0000       0.823461        22.4075 
 219   0.0000       0.829022        22.5588 
 220   0.0000       0.830572        22.6010 
 221   0.0000       0.832591        22.6560 
 222   0.0000       0.840379        22.8679 
 223   0.0000       0.841594        22.9010 
 224   0.0000       0.846205        23.0264 
 225   0.0000       0.849973        23.1289 
 226   0.0000       0.854281        23.2462 
 227   0.0000       0.858012        23.3477 
 228   0.0000       0.862709        23.4755 
 229   0.0000       0.866664        23.5831 
 230   0.0000       0.872886        23.7524 
 231   0.0000       0.876697        23.8561 
 232   0.0000       0.883463        24.0402 
 233   0.0000       0.889232        24.1972 
 234   0.0000       0.894537        24.3416 
 235   0.0000       0.901044        24.5187 
 236   0.0000       0.907143        24.6846 
 237   0.0000       0.916703        24.9448 
 238   0.0000       0.922760        25.1096 
 239   0.0000       0.930185        25.3116 
 240   0.0000       0.940154        25.5829 
 241   0.0000       0.950076        25.8529 
 242   0.0000       0.956178        26.0189 
 243   0.0000       0.969952        26.3937 
 244   0.0000       0.972764        26.4703 
 245   0.0000       0.977646        26.6031 
 246   0.0000       0.984246        26.7827 
 247   0.0000       0.996319        27.1112 
 248   0.0000       1.014143        27.5962 
 249   0.0000       1.020507        27.7694 
 250   0.0000       1.025315        27.9002 
 251   0.0000       1.044377        28.4189 
 252   0.0000       1.050600        28.5883 
 253   0.0000       1.055065        28.7098 
 254   0.0000       1.075549        29.2672 
 255   0.0000       1.077398        29.3175 
 256   0.0000       1.089823        29.6556 
 257   0.0000       1.094714        29.7887 
 258   0.0000       1.104664        30.0594 
 259   0.0000       1.120353        30.4864 
 260   0.0000       1.127122        30.6706 
 261   0.0000       1.136783        30.9334 
 262   0.0000       1.142345        31.0848 
 263   0.0000       1.153414        31.3860 
 264   0.0000       1.160137        31.5689 
 265   0.0000       1.168799        31.8046 
 266   0.0000       1.174874        31.9699 
 267   0.0000       1.175516        31.9874 
 268   0.0000       1.184638        32.2356 
 269   0.0000       1.189414        32.3656 
 270   0.0000       1.201270        32.6882 
 271   0.0000       1.206358        32.8267 
 272   0.0000       1.216078        33.0912 
 273   0.0000       1.224275        33.3142 
 274   0.0000       1.228768        33.4365 
 275   0.0000       1.241499        33.7829 
 276   0.0000       1.250380        34.0246 
 277   0.0000       1.254892        34.1473 
 278   0.0000       1.257199        34.2101 
 279   0.0000       1.270282        34.5661 
 280   0.0000       1.276904        34.7463 
 281   0.0000       1.285675        34.9850 
 282   0.0000       1.292247        35.1638 
 283   0.0000       1.302595        35.4454 
 284   0.0000       1.305227        35.5170 
 285   0.0000       1.312972        35.7278 
 286   0.0000       1.320671        35.9373 
 287   0.0000       1.327810        36.1315 
 288   0.0000       1.332779        36.2668 
 289   0.0000       1.338421        36.4203 
 290   0.0000       1.342101        36.5204 
 291   0.0000       1.353001        36.8170 
 292   0.0000       1.365815        37.1657 
 293   0.0000       1.375014        37.4160 
 294   0.0000       1.375628        37.4327 
 295   0.0000       1.388950        37.7953 
 296   0.0000       1.396708        38.0063 
 297   0.0000       1.405720        38.2516 
 298   0.0000       1.410160        38.3724 
 299   0.0000       1.413639        38.4671 
 300   0.0000       1.421159        38.6717 
 301   0.0000       1.425068        38.7781 
 302   0.0000       1.428129        38.8614 
 303   0.0000       1.442762        39.2595 
 304   0.0000       1.453672        39.5564 
 305   0.0000       1.459272        39.7088 
 306   0.0000       1.462979        39.8097 
 307   0.0000       1.469157        39.9778 
 308   0.0000       1.473376        40.0926 
 309   0.0000       1.481064        40.3018 
 310   0.0000       1.487677        40.4817 
 311   0.0000       1.497187        40.7405 
 312   0.0000       1.502146        40.8755 
 313   0.0000       1.515291        41.2332 
 314   0.0000       1.516850        41.2756 
 315   0.0000       1.525072        41.4993 
 316   0.0000       1.528129        41.5825 
 317   0.0000       1.538977        41.8777 
 318   0.0000       1.542203        41.9655 
 319   0.0000       1.558080        42.3975 
 320   0.0000       1.559545        42.4374 
 321   0.0000       1.565493        42.5992 
 322   0.0000       1.573270        42.8109 
 323   0.0000       1.575570        42.8734 
 324   0.0000       1.590082        43.2683 
 325   0.0000       1.596068        43.4312 
 326   0.0000       1.606529        43.7159 
 327   0.0000       1.608744        43.7762 
 328   0.0000       1.621134        44.1133 
 329   0.0000       1.629542        44.3421 
 330   0.0000       1.640102        44.6294 
 331   0.0000       1.649597        44.8878 
 332   0.0000       1.656091        45.0645 
 333   0.0000       1.664463        45.2924 
 334   0.0000       1.691345        46.0238 
 335   0.0000       1.692171        46.0463 
 336   0.0000       1.698393        46.2156 
 337   0.0000       1.705691        46.4142 
 338   0.0000       1.717482        46.7351 
 339   0.0000       1.722145        46.8620 
 340   0.0000       1.725112        46.9427 
 341   0.0000       1.740386        47.3583 
 342   0.0000       1.752227        47.6805 
 343   0.0000       1.754500        47.7424 
 344   0.0000       1.762545        47.9613 
 345   0.0000       1.774566        48.2884 
 346   0.0000       1.781076        48.4655 
 347   0.0000       1.787093        48.6293 
 348   0.0000       1.790708        48.7276 
 349   0.0000       1.797728        48.9187 
 350   0.0000       1.805780        49.1378 
 351   0.0000       1.812829        49.3296 
 352   0.0000       1.826901        49.7125 
 353   0.0000       1.830075        49.7989 
 354   0.0000       1.851646        50.3859 
 355   0.0000       1.869244        50.8647 
 356   0.0000       1.873452        50.9792 
 357   0.0000       1.894414        51.5496 
 358   0.0000       1.905695        51.8566 
 359   0.0000       1.927675        52.4547 
 360   0.0000       1.935668        52.6722 
 361   0.0000       1.948079        53.0099 
 362   0.0000       1.958657        53.2978 
 363   0.0000       1.984537        54.0020 
 364   0.0000       1.994678        54.2779 
 365   0.0000       2.018144        54.9165 
 366   0.0000       2.020559        54.9822 
 367   0.0000       2.034256        55.3549 
 368   0.0000       2.051199        55.8160 
 369   0.0000       2.062857        56.1332 
 370   0.0000       2.065928        56.2168 
 371   0.0000       2.070700        56.3466 
 372   0.0000       2.086179        56.7678 
 373   0.0000       2.090988        56.8987 
 374   0.0000       2.103039        57.2266 
 375   0.0000       2.122235        57.7490 
 376   0.0000       2.129672        57.9513 
 377   0.0000       2.141235        58.2660 
 378   0.0000       2.152209        58.5646 
 379   0.0000       2.173706        59.1496 
 380   0.0000       2.192183        59.6523 
 381   0.0000       2.198962        59.8368 
 382   0.0000       2.236489        60.8580 
 383   0.0000       2.245548        61.1045 
 384   0.0000       2.256326        61.3978 
 385   0.0000       2.272031        61.8251 
 386   0.0000       2.305460        62.7348 
 387   0.0000       2.328891        63.3723 
 388   0.0000       2.364451        64.3400 
 389   0.0000       2.378793        64.7302 
 390   0.0000       2.384520        64.8861 
 391   0.0000       2.392718        65.1092 
 392   0.0000       2.407965        65.5241 
 393   0.0000       2.433594        66.2215 
 394   0.0000       2.445468        66.5446 
 395   0.0000       2.457804        66.8802 
 396   0.0000       2.468425        67.1693 
 397   0.0000       2.497420        67.9582 
 398   0.0000       2.527292        68.7711 
 399   0.0000       2.535432        68.9926 
 400   0.0000       2.576236        70.1029 
 401   0.0000       2.608374        70.9775 
 402   0.0000       2.625285        71.4376 
 403   0.0000       2.636244        71.7358 
 404   0.0000       2.668365        72.6099 
 405   0.0000       2.681685        72.9724 
 406   0.0000       2.703047        73.5536 
 407   0.0000       2.716723        73.9258 
 408   0.0000       2.722478        74.0824 
 409   0.0000       2.732935        74.3669 
 410   0.0000       2.748820        74.7992 
 411   0.0000       2.765511        75.2534 
 412   0.0000       2.795490        76.0691 
 413   0.0000       2.819990        76.7358 
 414   0.0000       2.824331        76.8539 
 415   0.0000       2.850000        77.5524 
 416   0.0000       2.854696        77.6802 
 417   0.0000       2.861516        77.8658 
 418   0.0000       2.872750        78.1715 
 419   0.0000       2.882768        78.4441 
 420   0.0000       2.891828        78.6906 
 421   0.0000       2.904153        79.0260 
 422   0.0000       2.909826        79.1804 
 423   0.0000       2.919989        79.4569 
 424   0.0000       2.933744        79.8312 
 425   0.0000       2.938193        79.9523 
 426   0.0000       2.941501        80.0423 
 427   0.0000       2.944610        80.1269 
 428   0.0000       2.954216        80.3883 
 429   0.0000       2.964368        80.6646 
 430   0.0000       2.969303        80.7988 
 431   0.0000       2.971525        80.8593 
 432   0.0000       2.976341        80.9904 
 433   0.0000       2.986959        81.2793 
 434   0.0000       2.991786        81.4106 
 435   0.0000       3.000953        81.6601 
 436   0.0000       3.002951        81.7145 
 437   0.0000       3.006416        81.8087 
 438   0.0000       3.011786        81.9549 
 439   0.0000       3.016954        82.0955 
 440   0.0000       3.028388        82.4066 
 441   0.0000       3.036876        82.6376 
 442   0.0000       3.044991        82.8584 
 443   0.0000       3.054988        83.1305 
 444   0.0000       3.074201        83.6533 
 445   0.0000       3.080768        83.8320 
 446   0.0000       3.086710        83.9936 
 447   0.0000       3.101335        84.3916 
 448   0.0000       3.106645        84.5361 
 449   0.0000       3.114050        84.7376 
 450   0.0000       3.124410        85.0195 
 451   0.0000       3.135332        85.3167 
 452   0.0000       3.139596        85.4328 
 453   0.0000       3.164959        86.1229 
 454   0.0000       3.174071        86.3709 
 455   0.0000       3.177673        86.4689 
 456   0.0000       3.188461        86.7624 
 457   0.0000       3.189493        86.7905 
 458   0.0000       3.193146        86.8899 
 459   0.0000       3.201895        87.1280 
 460   0.0000       3.205724        87.2322 
 461   0.0000       3.217963        87.5652 
 462   0.0000       3.223663        87.7203 
 463   0.0000       3.225426        87.7683 
 464   0.0000       3.233693        87.9933 
 465   0.0000       3.252095        88.4940 
 466   0.0000       3.264247        88.8247 
 467   0.0000       3.268175        88.9316 
 468   0.0000       3.288460        89.4836 
 469   0.0000       3.298136        89.7468 
 470   0.0000       3.304197        89.9118 
 471   0.0000       3.332224        90.6744 
 472   0.0000       3.337813        90.8265 
 473   0.0000       3.343189        90.9728 
 474   0.0000       3.355041        91.2953 
 475   0.0000       3.360901        91.4548 
 476   0.0000       3.376888        91.8898 
 477   0.0000       3.387315        92.1735 
 478   0.0000       3.391419        92.2852 
 479   0.0000       3.398730        92.4841 
 480   0.0000       3.415038        92.9279 
 481   0.0000       3.430151        93.3392 
 482   0.0000       3.435970        93.4975 
 483   0.0000       3.449698        93.8711 
 484   0.0000       3.451848        93.9296 
 485   0.0000       3.470795        94.4451 
 486   0.0000       3.479581        94.6842 
 487   0.0000       3.484735        94.8245 
 488   0.0000       3.494622        95.0935 
 489   0.0000       3.496873        95.1548 
 490   0.0000       3.506034        95.4040 
 491   0.0000       3.519332        95.7659 
 492   0.0000       3.524912        95.9177 
 493   0.0000       3.533228        96.1440 
 494   0.0000       3.539774        96.3221 
 495   0.0000       3.551364        96.6375 
 496   0.0000       3.554443        96.7213 
 497   0.0000       3.566887        97.0599 
 498   0.0000       3.582310        97.4796 
 499   0.0000       3.582929        97.4965 
 500   0.0000       3.607676        98.1698 
 501   0.0000       3.611770        98.2813 
 502   0.0000       3.618321        98.4595 
 503   0.0000       3.630424        98.7889 
 504   0.0000       3.633561        98.8742 
 505   0.0000       3.635389        98.9240 
 506   0.0000       3.644451        99.1705 
 507   0.0000       3.655750        99.4780 
 508   0.0000       3.660052        99.5951 
 509   0.0000       3.660455        99.6061 
 510   0.0000       3.684381       100.2571 
 511   0.0000       3.686065       100.3029 
 512   0.0000       3.690628       100.4271 
 513   0.0000       3.712589       101.0247 
 514   0.0000       3.716323       101.1263 
 515   0.0000       3.717454       101.1571 
 516   0.0000       3.731478       101.5387 
 517   0.0000       3.743951       101.8781 
 518   0.0000       3.757112       102.2362 
 519   0.0000       3.776702       102.7693 
 520   0.0000       3.786789       103.0438 
 521   0.0000       3.800876       103.4271 
 522   0.0000       3.803576       103.5006 
 523   0.0000       3.827895       104.1623 
 524   0.0000       3.835410       104.3668 
 525   0.0000       3.845154       104.6320 
 526   0.0000       3.852450       104.8305 
 527   0.0000       3.859182       105.0137 
 528   0.0000       3.864359       105.1546 
 529   0.0000       3.880672       105.5985 
 530   0.0000       3.889208       105.8307 
 531   0.0000       3.904235       106.2396 
 532   0.0000       3.905941       106.2861 
 533   0.0000       3.918271       106.6216 
 534   0.0000       3.925525       106.8190 
 535   0.0000       3.947638       107.4207 
 536   0.0000       3.956080       107.6504 
 537   0.0000       3.963178       107.8436 
 538   0.0000       3.971928       108.0817 
 539   0.0000       3.989828       108.5687 
 540   0.0000       4.002380       108.9103 
 541   0.0000       4.012412       109.1833 
 542   0.0000       4.014754       109.2470 
 543   0.0000       4.035538       109.8126 
 544   0.0000       4.045178       110.0749 
 545   0.0000       4.050250       110.2129 
 546   0.0000       4.058883       110.4478 
 547   0.0000       4.081258       111.0567 
 548   0.0000       4.090571       111.3101 
 549   0.0000       4.097400       111.4959 
 550   0.0000       4.113448       111.9326 
 551   0.0000       4.131803       112.4321 
 552   0.0000       4.136438       112.5582 
 553   0.0000       4.146364       112.8283 
 554   0.0000       4.161391       113.2372 
 555   0.0000       4.173306       113.5614 
 556   0.0000       4.176431       113.6465 
 557   0.0000       4.189157       113.9928 
 558   0.0000       4.197189       114.2113 
 559   0.0000       4.216766       114.7440 
 560   0.0000       4.222271       114.8938 
 561   0.0000       4.235645       115.2578 
 562   0.0000       4.240075       115.3783 
 563   0.0000       4.250304       115.6566 
 564   0.0000       4.260958       115.9466 
 565   0.0000       4.266161       116.0881 
 566   0.0000       4.273459       116.2867 
 567   0.0000       4.280701       116.4838 
 568   0.0000       4.287082       116.6574 
 569   0.0000       4.297565       116.9427 
 570   0.0000       4.304644       117.1353 
 571   0.0000       4.312226       117.3416 
 572   0.0000       4.317904       117.4961 
 573   0.0000       4.330194       117.8306 
 574   0.0000       4.340326       118.1063 
 575   0.0000       4.348195       118.3204 
 576   0.0000       4.351366       118.4067 
 577   0.0000       4.363891       118.7475 
 578   0.0000       4.380923       119.2110 
 579   0.0000       4.408525       119.9621 
 580   0.0000       4.411459       120.0419 
 581   0.0000       4.418020       120.2204 
 582   0.0000       4.421353       120.3111 
 583   0.0000       4.430603       120.5628 
 584   0.0000       4.434972       120.6817 
 585   0.0000       4.436799       120.7314 
 586   0.0000       4.447301       121.0172 
 587   0.0000       4.455116       121.2299 
 588   0.0000       4.466558       121.5412 
 589   0.0000       4.487050       122.0988 
 590   0.0000       4.499623       122.4410 
 591   0.0000       4.501875       122.5023 
 592   0.0000       4.518406       122.9521 
 593   0.0000       4.529879       123.2643 
 594   0.0000       4.552687       123.8849 
 595   0.0000       4.555402       123.9588 
 596   0.0000       4.561333       124.1202 
 597   0.0000       4.571824       124.4057 
 598   0.0000       4.581202       124.6608 
 599   0.0000       4.626136       125.8836 
 600   0.0000       4.654712       126.6612 
 601   0.0000       4.699812       127.8884 
 602   0.0000       4.725494       128.5872 
 603   0.0000       4.726179       128.6059 
 604   0.0000       4.737970       128.9267 
 605   0.0000       4.742619       129.0532 
 606   0.0000       4.763771       129.6288 
 607   0.0000       4.771132       129.8291 
 608   0.0000       4.785105       130.2093 
 609   0.0000       4.799756       130.6080 
 610   0.0000       4.812046       130.9424 
 611   0.0000       4.830457       131.4434 
 612   0.0000       4.839155       131.6801 
 613   0.0000       4.853807       132.0788 
 614   0.0000       4.856260       132.1456 
 615   0.0000       4.873628       132.6182 
 616   0.0000       4.881498       132.8323 
 617   0.0000       4.899313       133.3171 
 618   0.0000       4.945654       134.5781 
 619   0.0000       4.968098       135.1888 
 620   0.0000       4.987940       135.7288 
 621   0.0000       4.990796       135.8065 
 622   0.0000       4.996294       135.9561 
 623   0.0000       5.005426       136.2046 
 624   0.0000       5.023572       136.6983 
 625   0.0000       5.041251       137.1794 
 626   0.0000       5.063182       137.7762 
 627   0.0000       5.091378       138.5435 
 628   0.0000       5.093416       138.5989 
 629   0.0000       5.107728       138.9883 
 630   0.0000       5.114028       139.1598 
 631   0.0000       5.121095       139.3521 
 632   0.0000       5.131248       139.6284 
 633   0.0000       5.137745       139.8051 
 634   0.0000       5.144311       139.9838 
 635   0.0000       5.155228       140.2809 
 636   0.0000       5.166541       140.5887 
 637   0.0000       5.173569       140.7800 
 638   0.0000       5.186612       141.1349 
 639   0.0000       5.197587       141.4335 
 640   0.0000       5.256731       143.0429 
 641   0.0000       5.261762       143.1798 
 642   0.0000       5.267400       143.3332 
 643   0.0000       5.292111       144.0057 
 644   0.0000       5.302648       144.2924 
 645   0.0000       5.316848       144.6788 
 646   0.0000       5.343408       145.4015 
 647   0.0000       5.360991       145.8800 
 648   0.0000       5.379665       146.3881 
 649   0.0000       5.405876       147.1014 
 650   0.0000       5.412832       147.2906 
 651   0.0000       5.433006       147.8396 
 652   0.0000       5.441473       148.0700 
 653   0.0000       5.458746       148.5400 
 654   0.0000       5.462355       148.6382 
 655   0.0000       5.470761       148.8670 
 656   0.0000       5.473962       148.9541 
 657   0.0000       5.482303       149.1811 
 658   0.0000       5.488493       149.3495 
 659   0.0000       5.500168       149.6672 
 660   0.0000       5.510179       149.9396 
 661   0.0000       5.521093       150.2366 
 662   0.0000       5.548406       150.9798 
 663   0.0000       5.553023       151.1054 
 664   0.0000       5.554791       151.1535 
 665   0.0000       5.568542       151.5277 
 666   0.0000       5.588952       152.0831 
 667   0.0000       5.593019       152.1938 
 668   0.0000       5.595675       152.2661 
 669   0.0000       5.616176       152.8239 
 670   0.0000       5.633053       153.2832 
 671   0.0000       5.640223       153.4783 
 672   0.0000       5.662737       154.0909 
 673   0.0000       5.692551       154.9022 
 674   0.0000       5.733453       156.0152 
 675   0.0000       5.743987       156.3018 
 676   0.0000       5.756300       156.6369 
 677   0.0000       5.772366       157.0741 
 678   0.0000       5.789133       157.5303 
 679   0.0000       5.796523       157.7314 
 680   0.0000       5.801192       157.8585 
 681   0.0000       5.805089       157.9645 
 682   0.0000       5.818002       158.3159 
 683   0.0000       5.859055       159.4330 
 684   0.0000       5.874686       159.8583 
 685   0.0000       5.886139       160.1700 
 686   0.0000       5.906190       160.7156 
 687   0.0000       5.918057       161.0385 
 688   0.0000       5.934885       161.4964 
 689   0.0000       5.970108       162.4549 
 690   0.0000       6.108775       166.2282 
 691   0.0000       6.160551       167.6371 
 692   0.0000       6.177426       168.0963 
 693   0.0000       6.190872       168.4622 
 694   0.0000       6.302726       171.5059 
 695   0.0000       6.360340       173.0736 
 696   0.0000       6.478795       176.2970 
 697   0.0000       6.592455       179.3898 
 698   0.0000       6.647968       180.9004 
 699   0.0000       6.779298       184.4741 
 700   0.0000       6.822350       185.6456 
 701   0.0000       6.889433       187.4710 
 702   0.0000       6.964612       189.5167 
 703   0.0000       7.129852       194.0131 
 704   0.0000       7.199157       195.8990 
 705   0.0000       7.408278       201.5895 
 706   0.0000       7.506974       204.2751 
 707   0.0000       7.595187       206.6756 
 708   0.0000       7.724789       210.2022 
 709   0.0000      23.410212       637.0243 
 710   0.0000      23.459355       638.3615 
 711   0.0000      23.668556       644.0541 
 712   0.0000      23.769882       646.8114 
 713   0.0000      23.785698       647.2418 
 714   0.0000      23.829503       648.4337 
 715   0.0000      23.902805       650.4284 
 716   0.0000      25.623172       697.2420 
 717   0.0000      33.334556       907.0794 
 718   0.0000      44.512491      1211.2465 
 719   0.0000      44.624839      1214.3036 
 720   0.0000      86.077108      2342.2772 

                    ********************************
                    * MULLIKEN POPULATION ANALYSIS *
                    ********************************

-----------------------
MULLIKEN ATOMIC CHARGES
-----------------------
   0 Mo:    0.565843
   1 C :    0.191765
   2 C :   -0.249281
   3 H :    0.080790
   4 H :    0.081194
   5 H :    0.114107
   6 C :   -0.149898
   7 C :   -0.030539
   8 N :   -0.527574
   9 O :   -0.500580
  10 O :   -0.365141
  11 H :    0.063729
  12 H :    0.047939
  13 H :    0.045387
  14 H :    0.032771
  15 H :    0.019681
  16 H :    0.003657
  17 C :    0.216401
  18 C :    0.190810
  19 H :    0.058892
  20 H :    0.045017
  21 H :    0.145271
  22 H :    0.093160
  23 C :   -0.516743
  24 H :    0.029949
  25 H :    0.087908
  26 H :    0.043556
  27 H :    0.181928
Sum of atomic charges:   -0.0000000

--------------------------------
MULLIKEN REDUCED ORBITAL CHARGES
--------------------------------
  0 Mos       :     2.816679  s :     2.816679
      pz      :     2.310458  p :     6.502060
      px      :     2.145308
      py      :     2.046294
      dz2     :     0.784035  d :     3.894575
      dxz     :     0.926648
      dyz     :     0.753384
      dx2y2   :     0.709620
      dxy     :     0.720888
      f0      :     0.030847  f :     0.207750
      f+1     :     0.021137
      f-1     :     0.022073
      f+2     :     0.021398
      f-2     :     0.026663
      f+3     :     0.032969
      f-3     :     0.052664
      g0      :     0.001432  g :     0.013093
      g+1     :     0.001047
      g-1     :     0.001353
      g+2     :     0.001011
      g-2     :     0.000948
      g+3     :     0.001492
      g-3     :     0.000995
      g+4     :     0.002698
      g-4     :     0.002117
  1 C s       :     3.101646  s :     3.101646
      pz      :     0.975658  p :     2.700772
      px      :     0.834344
      py      :     0.890770
      dz2     :    -0.007238  d :    -0.000704
      dxz     :    -0.008395
      dyz     :     0.010048
      dx2y2   :    -0.004987
      dxy     :     0.009868
      f0      :     0.000937  f :     0.006521
      f+1     :     0.001505
      f-1     :     0.001398
      f+2     :     0.000550
      f-2     :     0.000843
      f+3     :     0.000738
      f-3     :     0.000549
  2 C s       :     3.161156  s :     3.161156
      pz      :     1.084188  p :     2.973866
      px      :     1.059826
      py      :     0.829852
      dz2     :     0.013136  d :     0.108268
      dxz     :     0.031798
      dyz     :     0.035553
      dx2y2   :     0.013318
      dxy     :     0.014463
      f0      :     0.000446  f :     0.005991
      f+1     :     0.000308
      f-1     :     0.001170
      f+2     :     0.001089
      f-2     :     0.000748
      f+3     :     0.001066
      f-3     :     0.001163
  3 H s       :     0.879688  s :     0.879688
      pz      :     0.016806  p :     0.037582
      px      :     0.007315
      py      :     0.013462
      dz2     :     0.000587  d :     0.001940
      dxz     :     0.000385
      dyz     :     0.000284
      dx2y2   :     0.000325
      dxy     :     0.000358
  4 H s       :     0.883284  s :     0.883284
      pz      :     0.003898  p :     0.033537
      px      :     0.021916
      py      :     0.007722
      dz2     :     0.000223  d :     0.001985
      dxz     :     0.000578
      dyz     :     0.000141
      dx2y2   :     0.000323
      dxy     :     0.000720
  5 H s       :     0.847696  s :     0.847696
      pz      :     0.009658  p :     0.036204
      px      :     0.018320
      py      :     0.008226
      dz2     :     0.000573  d :     0.001993
      dxz     :     0.000299
      dyz     :     0.000514
      dx2y2   :     0.000386
      dxy     :     0.000221
  6 C s       :     3.114515  s :     3.114515
      pz      :     1.020125  p :     2.855598
      px      :     0.830523
      py      :     1.004950
      dz2     :     0.050341  d :     0.170244
      dxz     :     0.035252
      dyz     :     0.017306
      dx2y2   :     0.014870
      dxy     :     0.052476
      f0      :     0.000669  f :     0.009541
      f+1     :     0.001935
      f-1     :     0.000650
      f+2     :     0.001245
      f-2     :     0.001552
      f+3     :     0.002120
      f-3     :     0.001370
  7 C s       :     3.074404  s :     3.074404
      pz      :     1.037105  p :     2.775928
      px      :     0.976207
      py      :     0.762617
      dz2     :     0.038006  d :     0.170815
      dxz     :     0.015827
      dyz     :     0.036622
      dx2y2   :     0.045156
      dxy     :     0.035204
      f0      :     0.001229  f :     0.009392
      f+1     :     0.000567
      f-1     :     0.001087
      f+2     :     0.000892
      f-2     :     0.001311
      f+3     :     0.001720
      f-3     :     0.002586
  8 N s       :     4.001092  s :     4.001092
      pz      :     1.327116  p :     3.549029
      px      :     1.233658
      py      :     0.988256
      dz2     :    -0.001334  d :    -0.027203
      dxz     :     0.001334
      dyz     :     0.008346
      dx2y2   :    -0.031960
      dxy     :    -0.003588
      f0      :     0.000452  f :     0.004656
      f+1     :     0.000173
      f-1     :     0.000683
      f+2     :     0.000542
      f-2     :     0.000577
      f+3     :     0.001100
      f-3     :     0.001127
  9 O s       :     3.787683  s :     3.787683
      pz      :     1.751659  p :     4.692168
      px      :     1.560687
      py      :     1.379823
      dz2     :     0.003120  d :     0.019276
      dxz     :     0.008184
      dyz     :     0.005524
      dx2y2   :     0.009488
      dxy     :    -0.007039
      f0      :     0.000155  f :     0.001453
      f+1     :     0.000143
      f-1     :     0.000184
      f+2     :     0.000106
      f-2     :     0.000174
      f+3     :     0.000391
      f-3     :     0.000301
 10 O s       :     3.754041  s :     3.754041
      pz      :     1.664145  p :     4.614126
      px      :     1.397551
      py      :     1.552430
      dz2     :     0.005255  d :    -0.004510
      dxz     :    -0.000308
      dyz     :     0.006785
      dx2y2   :    -0.000488
      dxy     :    -0.015754
      f0      :     0.000172  f :     0.001484
      f+1     :     0.000188
      f-1     :     0.000112
      f+2     :     0.000197
      f-2     :     0.000274
      f+3     :     0.000231
      f-3     :     0.000312
 11 H s       :     0.895121  s :     0.895121
      pz      :     0.021718  p :     0.039237
      px      :     0.005705
      py      :     0.011814
      dz2     :     0.000493  d :     0.001913
      dxz     :     0.000618
      dyz     :     0.000549
      dx2y2   :     0.000069
      dxy     :     0.000183
 12 H s       :     0.912760  s :     0.912760
      pz      :     0.011225  p :     0.037376
      px      :     0.006209
      py      :     0.019942
      dz2     :     0.000502  d :     0.001925
      dxz     :     0.000223
      dyz     :     0.000303
      dx2y2   :     0.000391
      dxy     :     0.000505
 13 H s       :     0.899361  s :     0.899361
      pz      :     0.005432  p :     0.053239
      px      :     0.018039
      py      :     0.029767
      dz2     :     0.000082  d :     0.002013
      dxz     :     0.000397
      dyz     :     0.000382
      dx2y2   :     0.000824
      dxy     :     0.000328
 14 H s       :     0.926153  s :     0.926153
      pz      :     0.010014  p :     0.039174
      px      :     0.021837
      py      :     0.007323
      dz2     :     0.000530  d :     0.001902
      dxz     :     0.000311
      dyz     :     0.000168
      dx2y2   :     0.000271
      dxy     :     0.000622
 15 H s       :     0.932749  s :     0.932749
      pz      :     0.023487  p :     0.045663
      px      :     0.016038
      py      :     0.006137
      dz2     :     0.000425  d :     0.001907
      dxz     :     0.000629
      dyz     :     0.000688
      dx2y2   :     0.000039
      dxy     :     0.000127
 16 H s       :     0.970812  s :     0.970812
      pz      :    -0.000868  p :     0.023604
      px      :     0.011754
      py      :     0.012717
      dz2     :     0.000189  d :     0.001927
      dxz     :     0.000265
      dyz     :     0.000372
      dx2y2   :     0.000773
      dxy     :     0.000328
 17 C s       :     2.864974  s :     2.864974
      pz      :     0.956679  p :     2.881310
      px      :     0.922883
      py      :     1.001748
      dz2     :     0.001247  d :     0.033104
      dxz     :     0.018054
      dyz     :     0.005467
      dx2y2   :     0.005454
      dxy     :     0.002881
      f0      :     0.001208  f :     0.004211
      f+1     :     0.000909
      f-1     :     0.000773
      f+2     :     0.000272
      f-2     :     0.000602
      f+3     :     0.000383
      f-3     :     0.000064
 18 C s       :     2.794802  s :     2.794802
      pz      :     0.968485  p :     2.950496
      px      :     0.955840
      py      :     1.026170
      dz2     :     0.009033  d :     0.059181
      dxz     :     0.029806
      dyz     :     0.003699
      dx2y2   :     0.001357
      dxy     :     0.015286
      f0      :     0.000905  f :     0.004711
      f+1     :     0.001260
      f-1     :     0.001065
      f+2     :     0.000316
      f-2     :     0.000681
      f+3     :     0.000338
      f-3     :     0.000146
 19 H s       :     0.881261  s :     0.881261
      pz      :     0.029731  p :     0.057837
      px      :     0.008624
      py      :     0.019482
      dz2     :     0.000492  d :     0.002010
      dxz     :     0.000240
      dyz     :     0.000543
      dx2y2   :     0.000355
      dxy     :     0.000378
 20 H s       :     0.897911  s :     0.897911
      pz      :     0.028101  p :     0.055150
      px      :     0.015275
      py      :     0.011774
      dz2     :     0.000702  d :     0.001922
      dxz     :     0.000327
      dyz     :     0.000302
      dx2y2   :     0.000345
      dxy     :     0.000246
 21 H s       :     0.794926  s :     0.794926
      pz      :     0.018178  p :     0.057979
      px      :     0.013239
      py      :     0.026562
      dz2     :     0.000293  d :     0.001824
      dxz     :     0.000204
      dyz     :     0.000504
      dx2y2   :     0.000380
      dxy     :     0.000443
 22 H s       :     0.859359  s :     0.859359
      pz      :     0.015128  p :     0.045541
      px      :     0.015845
      py      :     0.014568
      dz2     :     0.000673  d :     0.001940
      dxz     :     0.000305
      dyz     :     0.000271
      dx2y2   :     0.000385
      dxy     :     0.000306
 23 C s       :     3.136134  s :     3.136134
      pz      :     1.101155  p :     3.259321
      px      :     1.105328
      py      :     1.052838
      dz2     :     0.002293  d :     0.117841
      dxz     :     0.021358
      dyz     :     0.025556
      dx2y2   :     0.051064
      dxy     :     0.017570
      f0      :     0.000205  f :     0.003447
      f+1     :     0.000470
      f-1     :     0.000531
      f+2     :     0.000403
      f-2     :     0.000813
      f+3     :     0.000498
      f-3     :     0.000526
 24 H s       :     0.920827  s :     0.920827
      pz      :     0.025091  p :     0.047318
      px      :     0.012408
      py      :     0.009819
      dz2     :     0.000553  d :     0.001905
      dxz     :     0.000462
      dyz     :     0.000426
      dx2y2   :     0.000220
      dxy     :     0.000245
 25 H s       :     0.864680  s :     0.864680
      pz      :     0.015797  p :     0.045576
      px      :     0.014247
      py      :     0.015532
      dz2     :     0.000180  d :     0.001836
      dxz     :     0.000413
      dyz     :     0.000282
      dx2y2   :     0.000597
      dxy     :     0.000364
 26 H s       :     0.920603  s :     0.920603
      pz      :     0.014037  p :     0.033885
      px      :     0.011072
      py      :     0.008775
      dz2     :     0.000582  d :     0.001955
      dxz     :     0.000308
      dyz     :     0.000289
      dx2y2   :     0.000346
      dxy     :     0.000430
 27 H s       :     0.764336  s :     0.764336
      pz      :     0.023116  p :     0.051677
      px      :     0.017240
      py      :     0.011322
      dz2     :     0.000613  d :     0.002058
      dxz     :     0.000350
      dyz     :     0.000250
      dx2y2   :     0.000478
      dxy     :     0.000368


                     *******************************
                     * LOEWDIN POPULATION ANALYSIS *
                     *******************************

----------------------
LOEWDIN ATOMIC CHARGES
----------------------
   0 Mo:    1.154345
   1 C :   -0.194487
   2 C :    0.011781
   3 H :   -0.006537
   4 H :   -0.020118
   5 H :   -0.007308
   6 C :   -0.002864
   7 C :   -0.022841
   8 N :   -0.115329
   9 O :   -0.350048
  10 O :   -0.340448
  11 H :   -0.006194
  12 H :   -0.005653
  13 H :   -0.023440
  14 H :   -0.006129
  15 H :   -0.007554
  16 H :   -0.025404
  17 C :    0.067190
  18 C :    0.069218
  19 H :   -0.084662
  20 H :   -0.090580
  21 H :   -0.017565
  22 H :   -0.009716
  23 C :    0.087045
  24 H :   -0.015024
  25 H :   -0.006715
  26 H :   -0.017500
  27 H :   -0.013463

-------------------------------
LOEWDIN REDUCED ORBITAL CHARGES
-------------------------------
  0 Mos       :     1.812786  s :     1.812786
      pz      :     2.082056  p :     6.302932
      px      :     2.111664
      py      :     2.109212
      dz2     :     0.927894  d :     4.196814
      dxz     :     0.905736
      dyz     :     0.797071
      dx2y2   :     0.778756
      dxy     :     0.787358
      f0      :     0.061106  f :     0.484311
      f+1     :     0.047188
      f-1     :     0.062001
      f+2     :     0.047638
      f-2     :     0.050893
      f+3     :     0.102609
      f-3     :     0.112875
      g0      :     0.005995  g :     0.048812
      g+1     :     0.004077
      g-1     :     0.005517
      g+2     :     0.003378
      g-2     :     0.003433
      g+3     :     0.005164
      g-3     :     0.003382
      g+4     :     0.008619
      g-4     :     0.009246
  1 C s       :     2.658312  s :     2.658312
      pz      :     0.950280  p :     2.649453
      px      :     0.830077
      py      :     0.869096
      dz2     :     0.192412  d :     0.847074
      dxz     :     0.190957
      dyz     :     0.209027
      dx2y2   :     0.128676
      dxy     :     0.126002
      f0      :     0.007038  f :     0.039647
      f+1     :     0.008444
      f-1     :     0.008518
      f+2     :     0.003862
      f-2     :     0.004389
      f+3     :     0.003933
      f-3     :     0.003462
  2 C s       :     2.659347  s :     2.659347
      pz      :     0.918813  p :     2.674131
      px      :     0.909352
      py      :     0.845965
      dz2     :     0.069206  d :     0.606321
      dxz     :     0.080986
      dyz     :     0.185262
      dx2y2   :     0.163712
      dxy     :     0.107154
      f0      :     0.004889  f :     0.048421
      f+1     :     0.003960
      f-1     :     0.008930
      f+2     :     0.006882
      f-2     :     0.005976
      f+3     :     0.009066
      f-3     :     0.008718
  3 H s       :     0.709072  s :     0.709072
      pz      :     0.103832  p :     0.269436
      px      :     0.073414
      py      :     0.092190
      dz2     :     0.006766  d :     0.028029
      dxz     :     0.005039
      dyz     :     0.007919
      dx2y2   :     0.004153
      dxy     :     0.004153
  4 H s       :     0.700733  s :     0.700733
      pz      :     0.083772  p :     0.291297
      px      :     0.133124
      py      :     0.074400
      dz2     :     0.003572  d :     0.028088
      dxz     :     0.008874
      dyz     :     0.001227
      dx2y2   :     0.007325
      dxy     :     0.007091
  5 H s       :     0.703716  s :     0.703716
      pz      :     0.110686  p :     0.275553
      px      :     0.096545
      py      :     0.068322
      dz2     :     0.008167  d :     0.028039
      dxz     :     0.006708
      dyz     :     0.005986
      dx2y2   :     0.003687
      dxy     :     0.003490
  6 C s       :     2.652717  s :     2.652717
      pz      :     0.893037  p :     2.594662
      px      :     0.802171
      py      :     0.899454
      dz2     :     0.140169  d :     0.688434
      dxz     :     0.123623
      dyz     :     0.110316
      dx2y2   :     0.133877
      dxy     :     0.180449
      f0      :     0.005813  f :     0.067051
      f+1     :     0.012736
      f-1     :     0.004680
      f+2     :     0.011158
      f-2     :     0.009455
      f+3     :     0.013096
      f-3     :     0.010115
  7 C s       :     2.659147  s :     2.659147
      pz      :     0.921452  p :     2.595153
      px      :     0.883950
      py      :     0.789751
      dz2     :     0.127304  d :     0.701836
      dxz     :     0.103993
      dyz     :     0.119555
      dx2y2   :     0.180673
      dxy     :     0.170311
      f0      :     0.008330  f :     0.066705
      f+1     :     0.003455
      f-1     :     0.008452
      f+2     :     0.009598
      f-2     :     0.009024
      f+3     :     0.013142
      f-3     :     0.014703
  8 N s       :     3.072043  s :     3.072043
      pz      :     1.153704  p :     3.392160
      px      :     1.100729
      py      :     1.137726
      dz2     :     0.087461  d :     0.636299
      dxz     :     0.049123
      dyz     :     0.150179
      dx2y2   :     0.171637
      dxy     :     0.177899
      f0      :     0.001095  f :     0.014828
      f+1     :     0.000605
      f-1     :     0.002920
      f+2     :     0.001489
      f-2     :     0.001500
      f+3     :     0.004777
      f-3     :     0.002441
  9 O s       :     3.316002  s :     3.316002
      pz      :     1.594509  p :     4.532503
      px      :     1.495074
      py      :     1.442920
      dz2     :     0.063489  d :     0.497418
      dxz     :     0.062125
      dyz     :     0.083871
      dx2y2   :     0.144702
      dxy     :     0.143232
      f0      :     0.000356  f :     0.004125
      f+1     :     0.000347
      f-1     :     0.000523
      f+2     :     0.000410
      f-2     :     0.000479
      f+3     :     0.000925
      f-3     :     0.001084
 10 O s       :     3.303855  s :     3.303855
      pz      :     1.548761  p :     4.543546
      px      :     1.465253
      py      :     1.529533
      dz2     :     0.080075  d :     0.489017
      dxz     :     0.085805
      dyz     :     0.064300
      dx2y2   :     0.129107
      dxy     :     0.129731
      f0      :     0.000345  f :     0.004030
      f+1     :     0.000642
      f-1     :     0.000239
      f+2     :     0.000560
      f-2     :     0.000659
      f+3     :     0.000801
      f-3     :     0.000784
 11 H s       :     0.716926  s :     0.716926
      pz      :     0.125432  p :     0.261947
      px      :     0.057031
      py      :     0.079484
      dz2     :     0.009815  d :     0.027321
      dxz     :     0.006204
      dyz     :     0.008452
      dx2y2   :     0.001102
      dxy     :     0.001747
 12 H s       :     0.715438  s :     0.715438
      pz      :     0.089228  p :     0.262735
      px      :     0.066912
      py      :     0.106594
      dz2     :     0.005510  d :     0.027480
      dxz     :     0.003727
      dyz     :     0.006560
      dx2y2   :     0.005788
      dxy     :     0.005895
 13 H s       :     0.693010  s :     0.693010
      pz      :     0.075049  p :     0.302365
      px      :     0.094233
      py      :     0.133083
      dz2     :     0.002630  d :     0.028064
      dxz     :     0.004362
      dyz     :     0.004860
      dx2y2   :     0.007715
      dxy     :     0.008498
 14 H s       :     0.715050  s :     0.715050
      pz      :     0.094119  p :     0.263580
      px      :     0.114270
      py      :     0.055191
      dz2     :     0.006239  d :     0.027498
      dxz     :     0.007696
      dyz     :     0.002165
      dx2y2   :     0.005624
      dxy     :     0.005775
 15 H s       :     0.714996  s :     0.714996
      pz      :     0.134891  p :     0.265259
      px      :     0.075436
      py      :     0.054933
      dz2     :     0.009937  d :     0.027299
      dxz     :     0.009079
      dyz     :     0.006919
      dx2y2   :     0.000508
      dxy     :     0.000856
 16 H s       :     0.707456  s :     0.707456
      pz      :     0.080779  p :     0.290463
      px      :     0.110234
      py      :     0.099449
      dz2     :     0.003364  d :     0.027486
      dxz     :     0.003550
      dyz     :     0.005363
      dx2y2   :     0.007620
      dxy     :     0.007589
 17 C s       :     2.802731  s :     2.802731
      pz      :     0.992921  p :     2.669861
      px      :     0.758301
      py      :     0.918639
      dz2     :     0.109499  d :     0.439530
      dxz     :     0.095724
      dyz     :     0.130442
      dx2y2   :     0.042584
      dxy     :     0.061281
      f0      :     0.007845  f :     0.020688
      f+1     :     0.003419
      f-1     :     0.003299
      f+2     :     0.001151
      f-2     :     0.002922
      f+3     :     0.001368
      f-3     :     0.000683
 18 C s       :     2.672937  s :     2.672937
      pz      :     0.955328  p :     2.590671
      px      :     0.777352
      py      :     0.857991
      dz2     :     0.142324  d :     0.637873
      dxz     :     0.184877
      dyz     :     0.167298
      dx2y2   :     0.060283
      dxy     :     0.083091
      f0      :     0.007259  f :     0.029301
      f+1     :     0.006568
      f-1     :     0.007083
      f+2     :     0.001782
      f-2     :     0.003907
      f+3     :     0.001357
      f-3     :     0.001346
 19 H s       :     0.736428  s :     0.736428
      pz      :     0.104474  p :     0.319384
      px      :     0.087992
      py      :     0.126919
      dz2     :     0.005087  d :     0.028851
      dxz     :     0.003019
      dyz     :     0.008456
      dx2y2   :     0.005717
      dxy     :     0.006571
 20 H s       :     0.746063  s :     0.746063
      pz      :     0.114663  p :     0.315810
      px      :     0.092834
      py      :     0.108312
      dz2     :     0.007050  d :     0.028707
      dxz     :     0.005430
      dyz     :     0.006599
      dx2y2   :     0.004572
      dxy     :     0.005056
 21 H s       :     0.695549  s :     0.695549
      pz      :     0.078898  p :     0.293062
      px      :     0.092395
      py      :     0.121769
      dz2     :     0.004203  d :     0.028953
      dxz     :     0.002187
      dyz     :     0.007733
      dx2y2   :     0.007278
      dxy     :     0.007552
 22 H s       :     0.696840  s :     0.696840
      pz      :     0.091957  p :     0.284402
      px      :     0.102586
      py      :     0.089859
      dz2     :     0.006902  d :     0.028474
      dxz     :     0.006800
      dyz     :     0.004607
      dx2y2   :     0.004722
      dxy     :     0.005443
 23 C s       :     2.640241  s :     2.640241
      pz      :     0.910493  p :     2.711891
      px      :     0.897638
      py      :     0.903760
      dz2     :     0.081988  d :     0.530209
      dxz     :     0.089782
      dyz     :     0.123515
      dx2y2   :     0.093666
      dxy     :     0.141258
      f0      :     0.003331  f :     0.030614
      f+1     :     0.004611
      f-1     :     0.004551
      f+2     :     0.003592
      f-2     :     0.004815
      f+3     :     0.004443
      f-3     :     0.005271
 24 H s       :     0.703306  s :     0.703306
      pz      :     0.111557  p :     0.282990
      px      :     0.081767
      py      :     0.089665
      dz2     :     0.008785  d :     0.028728
      dxz     :     0.006366
      dyz     :     0.007506
      dx2y2   :     0.002716
      dxy     :     0.003355
 25 H s       :     0.702681  s :     0.702681
      pz      :     0.078592  p :     0.275648
      px      :     0.106959
      py      :     0.090097
      dz2     :     0.003197  d :     0.028386
      dxz     :     0.006250
      dyz     :     0.003785
      dx2y2   :     0.007989
      dxy     :     0.007166
 26 H s       :     0.692905  s :     0.692905
      pz      :     0.103918  p :     0.295572
      px      :     0.083669
      py      :     0.107986
      dz2     :     0.006799  d :     0.029023
      dxz     :     0.004862
      dyz     :     0.006978
      dx2y2   :     0.004793
      dxy     :     0.005591
 27 H s       :     0.679533  s :     0.679533
      pz      :     0.089537  p :     0.303152
      px      :     0.105229
      py      :     0.108386
      dz2     :     0.006579  d :     0.030779
      dxz     :     0.004884
      dyz     :     0.007621
      dx2y2   :     0.006071
      dxy     :     0.005623


                      *****************************
                      * MAYER POPULATION ANALYSIS *
                      *****************************

  NA   - Mulliken gross atomic population
  ZA   - Total nuclear charge
  QA   - Mulliken gross atomic charge
  VA   - Mayer's total valence
  BVA  - Mayer's bonded valence
  FA   - Mayer's free valence

  ATOM       NA         ZA         QA         VA         BVA        FA
  0 Mo    13.4342    14.0000     0.5658     6.5381     6.5381    -0.0000
  1 C      5.8082     6.0000     0.1918     3.4970     3.4970    -0.0000
  2 C      6.2493     6.0000    -0.2493     3.7520     3.7520    -0.0000
  3 H      0.9192     1.0000     0.0808     1.0573     1.0573    -0.0000
  4 H      0.9188     1.0000     0.0812     1.0460     1.0460     0.0000
  5 H      0.8859     1.0000     0.1141     1.0275     1.0275    -0.0000
  6 C      6.1499     6.0000    -0.1499     3.9879     3.9879    -0.0000
  7 C      6.0305     6.0000    -0.0305     4.0148     4.0148     0.0000
  8 N      7.5276     7.0000    -0.5276     2.1516     2.1516     0.0000
  9 O      8.5006     8.0000    -0.5006     1.7861     1.7861     0.0000
 10 O      8.3651     8.0000    -0.3651     1.6020     1.6020    -0.0000
 11 H      0.9363     1.0000     0.0637     1.0716     1.0716    -0.0000
 12 H      0.9521     1.0000     0.0479     1.0610     1.0610    -0.0000
 13 H      0.9546     1.0000     0.0454     1.1099     1.1099    -0.0000
 14 H      0.9672     1.0000     0.0328     1.0704     1.0704     0.0000
 15 H      0.9803     1.0000     0.0197     1.1018     1.1018     0.0000
 16 H      0.9963     1.0000     0.0037     1.0419     1.0419    -0.0000
 17 C      5.7836     6.0000     0.2164     3.7743     3.7743    -0.0000
 18 C      5.8092     6.0000     0.1908     3.4318     3.4318    -0.0000
 19 H      0.9411     1.0000     0.0589     1.0974     1.0974    -0.0000
 20 H      0.9550     1.0000     0.0450     1.0956     1.0956    -0.0000
 21 H      0.8547     1.0000     0.1453     1.0456     1.0456    -0.0000
 22 H      0.9068     1.0000     0.0932     1.0241     1.0241    -0.0000
 23 C      6.5167     6.0000    -0.5167     4.3093     4.3093     0.0000
 24 H      0.9701     1.0000     0.0299     1.0771     1.0771     0.0000
 25 H      0.9121     1.0000     0.0879     1.0508     1.0508     0.0000
 26 H      0.9564     1.0000     0.0436     1.0374     1.0374     0.0000
 27 H      0.8181     1.0000     0.1819     0.9751     0.9751    -0.0000

  Mayer bond orders larger than 0.100000
B(  0-Mo,  1-C ) :   0.6928 B(  0-Mo,  2-C ) :   0.1130 B(  0-Mo,  8-N ) :   1.5836 
B(  0-Mo,  9-O ) :   0.8435 B(  0-Mo, 10-O ) :   0.8707 B(  0-Mo, 17-C ) :   1.5954 
B(  0-Mo, 18-C ) :   0.2560 B(  0-Mo, 23-C ) :   0.1893 B(  1-C , 10-O ) :  -0.1081 
B(  1-C , 18-C ) :   1.0989 B(  1-C , 23-C ) :   1.0160 B(  1-C , 27-H ) :   0.9548 
B(  2-C ,  3-H ) :   1.0271 B(  2-C ,  4-H ) :   0.9906 B(  2-C ,  5-H ) :   1.0008 
B(  2-C ,  8-N ) :   0.6325 B(  6-C , 10-O ) :   0.9336 B(  6-C , 11-H ) :   1.0233 
B(  6-C , 12-H ) :   1.0317 B(  6-C , 13-H ) :   1.0036 B(  7-C ,  9-O ) :   0.9715 
B(  7-C , 14-H ) :   1.0397 B(  7-C , 15-H ) :   1.0147 B(  7-C , 16-H ) :   0.9870 
B( 17-C , 18-C ) :   0.1884 B( 17-C , 19-H ) :   1.0302 B( 17-C , 20-H ) :   1.0299 
B( 18-C , 21-H ) :   0.9713 B( 18-C , 22-H ) :   1.0211 B( 23-C , 24-H ) :   1.0088 
B( 23-C , 25-H ) :   1.0162 B( 23-C , 26-H ) :   1.0066 

-------
TIMINGS
-------

Total SCF time: 0 days 0 hours 6 min 56 sec 

Total time                  ....     416.843 sec
Sum of individual times     ....     415.810 sec  ( 99.8%)

Fock matrix formation       ....     409.484 sec  ( 98.2%)
  XC integration            ....       4.469 sec  (  1.1% of F)
    Basis function eval.    ....       0.784 sec  ( 17.5% of XC)
    Density eval.           ....       1.362 sec  ( 30.5% of XC)
    XC-Functional eval.     ....       0.098 sec  (  2.2% of XC)
    XC-Potential eval.      ....       1.398 sec  ( 31.3% of XC)
Diagonalization             ....       1.850 sec  (  0.4%)
Density matrix formation    ....       0.074 sec  (  0.0%)
Population analysis         ....       0.107 sec  (  0.0%)
Initial guess               ....       2.558 sec  (  0.6%)
Orbital Transformation      ....       0.000 sec  (  0.0%)
Orbital Orthonormalization  ....       0.000 sec  (  0.0%)
DIIS solution               ....       1.075 sec  (  0.3%)
Grid generation             ....       0.662 sec  (  0.2%)

-------------------------   --------------------
FINAL SINGLE POINT ENERGY      -550.388079229183
-------------------------   --------------------


                            ***************************************
                            *     ORCA property calculations      *
                            ***************************************

                                    ---------------------
                                    Active property flags
                                    ---------------------
   (+) Dipole Moment


------------------------------------------------------------------------------
                       ORCA ELECTRIC PROPERTIES CALCULATION
------------------------------------------------------------------------------

Dipole Moment Calculation                       ... on
Quadrupole Moment Calculation                   ... off
Polarizability Calculation                      ... off
GBWName                                         ... TMB09_T1.gbw
Electron density file                           ... TMB09_T1.scfp
The origin for moment calculation is the CENTER OF MASS  = ( 0.043409, -0.024360  0.032073)

-------------
DIPOLE MOMENT
-------------
                                X             Y             Z
Electronic contribution:     10.59727      -2.95755      13.30552
Nuclear contribution   :    -11.80214       3.30573     -13.02417
                        -----------------------------------------
Total Dipole Moment    :     -1.20486       0.34818       0.28135
                        -----------------------------------------
Magnitude (a.u.)       :      1.28533
Magnitude (Debye)      :      3.26705



--------------------
Rotational spectrum 
--------------------
 
Rotational constants in cm-1:     0.031577     0.026703     0.018834 
Rotational constants in MHz :   946.666634   800.534327   564.625423 

 Dipole components along the rotational axes: 
x,y,z [a.u.] :     1.195457     0.384232     0.274460 
x,y,z [Debye]:     3.038609     0.976639     0.697621 

 

Timings for individual modules:

Sum of individual times         ...      420.723 sec (=   7.012 min)
GTO integral calculation        ...        3.479 sec (=   0.058 min)   0.8 %
SCF iterations                  ...      417.245 sec (=   6.954 min)  99.2 %
                             ****ORCA TERMINATED NORMALLY****
TOTAL RUN TIME: 0 days 0 hours 7 minutes 1 seconds 309 msec
