
                                 *****************
                                 * O   R   C   A *
                                 *****************

           --- An Ab Initio, DFT and Semiempirical electronic structure package ---

                  #######################################################
                  #                        -***-                        #
                  #          Department of theory and spectroscopy      #
                  #               Directorship: Frank Neese             #
                  #        Max Planck Institute fuer Kohlenforschung    #
                  #                Kaiser Wilhelm Platz 1               #
                  #                 D-45470 Muelheim/Ruhr               #
                  #                      Germany                        #
                  #                                                     #
                  #                  All rights reserved                #
                  #                        -***-                        #
                  #######################################################


                         Program Version 4.2.0 -  RELEASE  -


 With contributions from (in alphabetic order):
   Daniel Aravena         : Magnetic Suceptibility
   Michael Atanasov       : Ab Initio Ligand Field Theory (pilot matlab implementation)
   Alexander A. Auer      : GIAO ZORA, VPT2
   Ute Becker             : Parallelization
   Giovanni Bistoni       : ED, misc. LED, open-shell LED, HFLED
   Martin Brehm           : Molecular dynamics
   Dmytro Bykov           : SCF Hessian
   Vijay G. Chilkuri      : MRCI spin determinant printing, contributions to CSF-ICE
   Dipayan Datta          : RHF DLPNO-CCSD density
   Achintya Kumar Dutta   : EOM-CC, STEOM-CC
   Dmitry Ganyushin       : Spin-Orbit,Spin-Spin,Magnetic field MRCI
   Miquel Garcia          : C-PCM Hessian, Gaussian charge scheme
   Yang Guo               : DLPNO-NEVPT2, CIM, IAO-localization
   Andreas Hansen         : Spin unrestricted coupled pair/coupled cluster methods
   Benjamin Helmich-Paris : CASSCF linear response (MC-RPA)
   Lee Huntington         : MR-EOM, pCC
   Robert Izsak           : Overlap fitted RIJCOSX, COSX-SCS-MP3, EOM
   Christian Kollmar      : KDIIS, OOCD, Brueckner-CCSD(T), CCSD density
   Simone Kossmann        : Meta GGA functionals, TD-DFT gradient, OOMP2, MP2 Hessian
   Martin Krupicka        : AUTO-CI
   Lucas Lang             : DCDCAS
   Dagmar Lenk            : GEPOL surface, SMD
   Dimitrios Liakos       : Extrapolation schemes; Compound Job, initial MDCI parallelization
   Dimitrios Manganas     : Further ROCIS development; embedding schemes
   Dimitrios Pantazis     : SARC Basis sets
   Taras Petrenko         : DFT Hessian,TD-DFT gradient, ASA, ECA, R-Raman, ABS, FL, XAS/XES, NRVS
   Peter Pinski           : DLPNO-MP2, DLPNO-MP2 Gradient
   Christoph Reimann      : Effective Core Potentials
   Marius Retegan         : Local ZFS, SOC
   Christoph Riplinger    : Optimizer, TS searches, QM/MM, DLPNO-CCSD(T), (RO)-DLPNO pert. Triples
   Tobias Risthaus        : Range-separated hybrids, TD-DFT gradient, RPA, STAB
   Michael Roemelt        : Original ROCIS implementation
   Masaaki Saitow         : Open-shell DLPNO-CCSD energy and density
   Barbara Sandhoefer     : DKH picture change effects
   Avijit Sen             : IP-ROCIS
   Kantharuban Sivalingam : CASSCF convergence, NEVPT2, FIC-MRCI
   Bernardo de Souza      : ESD, SOC TD-DFT
   Georgi Stoychev        : AutoAux, RI-MP2 NMR
   Willem Van den Heuvel  : Paramagnetic NMR
   Boris Wezisla          : Elementary symmetry handling
   Frank Wennmohs         : Technical directorship


 We gratefully acknowledge several colleagues who have allowed us to
 interface, adapt or use parts of their codes:
   Stefan Grimme, W. Hujo, H. Kruse,             : VdW corrections, initial TS optimization,
                  C. Bannwarth                     DFT functionals, gCP, sTDA/sTD-DF
   Ed Valeev, F. Pavosevic, A. Kumar             : LibInt (2-el integral package), F12 methods
   Garnet Chan, S. Sharma, J. Yang, R. Olivares  : DMRG
   Ulf Ekstrom                                   : XCFun DFT Library
   Mihaly Kallay                                 : mrcc  (arbitrary order and MRCC methods)
   Andreas Klamt, Michael Diedenhofen            : otool_cosmo (COSMO solvation model)
   Jiri Pittner, Ondrej Demel                    : Mk-CCSD
   Frank Weinhold                                : gennbo (NPA and NBO analysis)
   Christopher J. Cramer and Donald G. Truhlar   : smd solvation model
   Lars Goerigk                                  : TD-DFT with DH, B97 family of functionals
   V. Asgeirsson, H. Jonsson                     : NEB implementation
   FAccTs GmbH                                   : IRC, NEB, NEB-TS, Multilevel, MM, QM/MM, CI optimization
   S Lehtola, MJT Oliveira, MAL Marques          : LibXC Library


 Your calculation uses the libint2 library for the computation of 2-el integrals
 For citations please refer to: http://libint.valeyev.net

 Your ORCA version has been built with support for libXC version: 4.2.3
 For citations please refer to: https://tddft.org/programs/libxc/

 This ORCA versions uses:
   CBLAS   interface :  Fast vector & matrix operations
   LAPACKE interface :  Fast linear algebra routines
   SCALAPACK package :  Parallel linear algebra routines


----- Orbital basis set information -----
Your calculation utilizes the basis: def2-SVP
   F. Weigend and R. Ahlrichs, Phys. Chem. Chem. Phys. 7, 3297 (2005).

----- AuxJ basis set information -----
Your calculation utilizes the auxiliary basis: def2/J
   F. Weigend, Phys. Chem. Chem. Phys. 8, 1057 (2006).

================================================================================
                                        WARNINGS
                       Please study these warnings very carefully!
================================================================================


INFO   : the flag for use of LIBINT has been found!

================================================================================
                                       INPUT FILE
================================================================================
NAME = TMB10_C1_atom42.inp
|  1> # input to generate an atomic fitting density for Mo
|  2> # this file is use internally by ORCA
|  3> #
|  4> # atomic ground state (S=5): 1s2 2s2 2p6 3s2 3p6 4s2 3d10 4p6 5s2 4d4 
|  5> #
|  6> ! RHF AllowRHF def2-SVP def2/J  NoMulliken NoLoewdin NoMayer NoPrintMOs 
|  7> 
|  8> %output print[p_atomdensfit] 2 end
|  9> 
| 10> %scf
| 11>   guess hcore
| 12>   maxiter 1000
| 13>   maxdisk 500000
| 14>   SCFMode Conventional
| 15>   lshift 0.600000
| 16>   hftyp rohf
| 17>   rohf_case sahf
| 18>   rohf_numop   2
| 19>   rohf_norb[1] 5
| 20>   rohf_nel[1]  4
| 21> end
| 22> 
| 23> %basis
| 24>   NewECP 42
| 25>     N_core 28
| 26>     lmax f
| 27>     s 4
| 28>       1       9.7145938000    180.1031085000  2
| 29>       2       4.6805004000     24.9972279000  2
| 30>       3       9.4500000000     24.8051771000  2
| 31>       4       4.7200000000      4.1537815000  2
| 32>     p 4
| 33>       1       8.1421366000    123.7727523000  2
| 34>       2       4.6259863000     19.5302280000  2
| 35>       3       9.4500000000     24.8051771000  2
| 36>       4       4.7200000000      4.1537815000  2
| 37>     d 4
| 38>       1       6.6184148000     48.3750223000  2
| 39>       2       3.2487516000      8.8920527000  2
| 40>       3       9.4500000000     24.8051771000  2
| 41>       4       4.7200000000      4.1537815000  2
| 42>     f 2
| 43>       1       9.4500000000    -24.8051771000  2
| 44>       2       4.7200000000     -4.1537815000  2
| 45>   end
| 46>   NewGTO 42
| 47>     s 2 
| 48>      1      14.0000000000     -2.0770233737
| 49>      2      12.5000000000      3.0616178399
| 50>     s 1 
| 51>      1       4.0921501803      1.0000000000
| 52>     s 1 
| 53>      1       0.9705360259      1.0000000000
| 54>     s 1 
| 55>      1       0.4421762017      1.0000000000
| 56>     s 1 
| 57>      1       0.0929150243      1.0000000000
| 58>     s 1 
| 59>      1       0.0350163144      1.0000000000
| 60>     p 4 
| 61>      1       8.8931117915      0.0830010811
| 62>      2       5.4689112270     -0.2792276027
| 63>      3       1.3548473007      0.5492197283
| 64>      4       0.6549486746      0.5789213489
| 65>     p 1 
| 66>      1       0.3042819747      1.0000000000
| 67>     p 1 
| 68>      1       0.1000000000      1.0000000000
| 69>     p 1 
| 70>      1       0.0330000000      1.0000000000
| 71>     d 3 
| 72>      1       5.0044445497     -0.0359172347
| 73>      2       1.7736823324      0.3487122377
| 74>      3       0.7695059170      0.7275979769
| 75>     d 1 
| 76>      1       0.3153087894      1.0000000000
| 77>     d 1 
| 78>      1       0.1175437439      1.0000000000
| 79>   end
| 80>   NewAuxGTO 42
| 81>     S 1
| 82>      1 1310.72 1.0
| 83>     S 1
| 84>      1  655.36 1.0
| 85>     S 1
| 86>      1  327.68 1.0
| 87>     S 1
| 88>      1  163.84 1.0
| 89>     S 1
| 90>      1   81.82 1.0
| 91>     S 1
| 92>      1   40.96 1.0
| 93>     S 1
| 94>      1   20.48 1.0
| 95>     S 1
| 96>      1   10.24 1.0
| 97>     S 1
| 98>      1    5.12 1.0
| 99>     S 1
|100>      1    2.56 1.0
|101>     S 1
|102>      1    1.28 1.0
|103>     S 1
|104>      1    0.64 1.0
|105>     S 1
|106>      1    0.32 1.0
|107>     S 1
|108>      1    0.16 1.0
|109>     S 1
|110>      1    0.08 1.0
|111>     S 1
|112>      1    0.04 1.0
|113>     S 1
|114>      1    0.02 1.0
|115>     S 1
|116>      1    0.01 1.0
|117>   end
|118> end
|119> 
|120> * xyz 0 5
|121> 42  0.0 0.0 0.0
|122> *
|123> 
|124> 
|125>                          ****END OF INPUT****
================================================================================

                       ****************************
                       * Single Point Calculation *
                       ****************************

---------------------------------
CARTESIAN COORDINATES (ANGSTROEM)
---------------------------------
  Mo     0.000000    0.000000    0.000000

----------------------------
CARTESIAN COORDINATES (A.U.)
----------------------------
  NO LB      ZA    FRAG     MASS         X           Y           Z
   0 Mo   14.0000*   0    95.940    0.000000    0.000000    0.000000
* core charge reduced due to ECP

--------------------------------
INTERNAL COORDINATES (ANGSTROEM)
--------------------------------
 Mo     0   0   0     0.000000000000     0.00000000     0.00000000

---------------------------
INTERNAL COORDINATES (A.U.)
---------------------------
 Mo     0   0   0     0.000000000000     0.00000000     0.00000000

---------------------
BASIS SET INFORMATION
---------------------
There are 1 groups of distinct atoms

 Group   1 Type Mo  : 7s7p5d contracted to 6s4p3d pattern {211111/4111/311}

Atom   0Mo   basis set group =>   1
---------------------------------
AUXILIARY/J BASIS SET INFORMATION
---------------------------------
There are 1 groups of distinct atoms

 Group   1 Type Mo  : 18s contracted to 18s pattern {111111111111111111}

Atom   0Mo   basis set group =>   1
-------------------------
ECP PARAMETER INFORMATION
-------------------------

 Group 1, Type Mo ECP (replacing 28 core electrons, lmax=3)

Atom   0Mo   ECP group =>   1

------------------------------------------------------------------------------
                           ORCA GTO INTEGRAL CALCULATION
------------------------------------------------------------------------------

                         BASIS SET STATISTICS AND STARTUP INFO

 # of primitive gaussian shells          ...   19
 # of primitive gaussian functions       ...   53
 # of contracted shells                  ...   13
 # of contracted basis functions         ...   33
 Highest angular momentum                ...    2
 Maximum contraction depth               ...    4
 Integral package used                   ... LIBINT
 Integral threshhold            Thresh   ...  1.000e-10
 Primitive cut-off              TCut     ...  1.000e-11
 Storage cut-off                TCutStore... -1.000e+00
 Buffer length                           ... 1048576 integrals/buffer
 Generate file with integrals 4 distinct ...false


------------------------------ INTEGRAL EVALUATION ----------------------------


 * One electron integrals 

   ECP integrals                         ... done
 Pre-screening matrix                    ... done
 Shell pair data                         ... done (   0.000 sec)
 Statistics run                          ... done
 Maximum amount of storage needed        ...     1 MB
 Maximum amount of storage dedicated     ... 500000 MB
 Beginning two electron integral evaluation:
 Starting repulsion integrals
  <ss|ss>  ...          231 b.         0 skpd (  0.0%)     0.000 s. (  0.000 ms/b)
  <ss|sp>  ...          504 b.         0 skpd (  0.0%)     0.000 s. (  0.000 ms/b)
  <ss|sd>  ...          378 b.         0 skpd (  0.0%)     0.000 s. (  0.000 ms/b)
  <ss|pp>  ...          210 b.         0 skpd (  0.0%)     0.000 s. (  0.001 ms/b)
  <ss|pd>  ...          252 b.         0 skpd (  0.0%)     0.000 s. (  0.001 ms/b)
  <ss|dd>  ...          126 b.         0 skpd (  0.0%)     0.000 s. (  0.001 ms/b)
  <sp|sp>  ...          300 b.         0 skpd (  0.0%)     0.000 s. (  0.000 ms/b)
  <sp|sd>  ...          432 b.         0 skpd (  0.0%)     0.000 s. (  0.001 ms/b)
  <sp|pp>  ...          240 b.         0 skpd (  0.0%)     0.000 s. (  0.001 ms/b)
  <sp|pd>  ...          288 b.         0 skpd (  0.0%)     0.001 s. (  0.002 ms/b)
  <sp|dd>  ...          144 b.         0 skpd (  0.0%)     0.001 s. (  0.003 ms/b)
  <sd|sd>  ...          171 b.         0 skpd (  0.0%)     0.000 s. (  0.001 ms/b)
  <sd|pp>  ...          180 b.         0 skpd (  0.0%)     0.000 s. (  0.002 ms/b)
  <sd|pd>  ...          216 b.         0 skpd (  0.0%)     0.001 s. (  0.004 ms/b)
  <sd|dd>  ...          108 b.         0 skpd (  0.0%)     0.001 s. (  0.008 ms/b)
  <pp|pp>  ...           55 b.         0 skpd (  0.0%)     0.000 s. (  0.005 ms/b)
  <pp|pd>  ...          120 b.         0 skpd (  0.0%)     0.001 s. (  0.007 ms/b)
  <pp|dd>  ...           60 b.         0 skpd (  0.0%)     0.001 s. (  0.014 ms/b)
  <pd|pd>  ...           78 b.         0 skpd (  0.0%)     0.001 s. (  0.015 ms/b)
  <pd|dd>  ...           72 b.         0 skpd (  0.0%)     0.002 s. (  0.026 ms/b)
  <dd|dd>  ...           21 b.         0 skpd (  0.0%)     0.001 s. (  0.060 ms/b)


                                      INTEGRAL STATISTICS

Integral type statistics:
 Number of integrals retained            ...     157641 
 One   Center Integrals retained         ...     157641 (100.0%)
 Two   Center Integrals retained         ...          0 (  0.0%)
 Three Center Integrals retained         ...          0 (  0.0%)
 Four  Center Integrals retained         ...          0 (  0.0%)

Storage statistics:
 Number of char integrals                ...          0 (  0.0%)
 Number of short int integrals           ...          0 (  0.0%)
 Number of double/float integrals        ...     157641 (100.0%)
 Amount of memory used                   ...          1 MB
 Amount of memory estimated              ...          1 MB ( 94.1%)

Prescreening statistics:
 Total number of shell quadruples        ...       4186 
 Number of skipped shell quadruples      ...          0 (  0.0%)
 # of negligible batches done            ...          0 (  0.0%)

Timings:
 Total evaluation time               ...     0.218 sec (   0.004 min)
 One electron matrix time            ...     0.019 sec (   0.000 min) =  8.6%
 Schwartz matrix evaluation time     ...     0.079 sec (   0.001 min) = 36.2%
 Statistics run                      ...     0.001 sec (   0.000 min) =  0.6%
 Repulsion integral time             ...     0.011 sec (   0.000 min) =  5.2%

-------------------------------------------------------------------------------
                                 ORCA SCF
-------------------------------------------------------------------------------

------------
SCF SETTINGS
------------
Hamiltonian:
 Ab initio Hamiltonian  Method          .... Hartree-Fock(GTOs)


General Settings:
 Integral files         IntName         .... TMB10_C1_atom42
 Hartree-Fock type      HFTyp           .... ROHF
 Total Charge           Charge          ....    0
 Multiplicity           Mult            ....    5
 Number of Electrons    NEL             ....   14
 Basis Dimension        Dim             ....   33
 Nuclear Repulsion      ENuc            ....      0.0000000000 Eh

Convergence Acceleration:
 DIIS                   CNVDIIS         .... on
   Start iteration      DIISMaxIt       ....    12
   Startup error        DIISStart       ....  0.200000
   # of expansion vecs  DIISMaxEq       ....     5
   Bias factor          DIISBfac        ....   1.050
   Max. coefficient     DIISMaxC        ....  10.000
 Newton-Raphson         CNVNR           .... off
 SOSCF                  CNVSOSCF        .... off
 Level Shifting         CNVShift        .... on
   Level shift para.    LevelShift      ....    0.6000
   Turn off err/grad.   ShiftErr        ....    0.0010
 Zerner damping         CNVZerner       .... off
 Static damping         CNVDamp         .... on
   Fraction old density DampFac         ....    0.7000
   Max. Damping (<1)    DampMax         ....    0.9800
   Min. Damping (>=0)   DampMin         ....    0.0000
   Turn off err/grad.   DampErr         ....    0.1000
 Fernandez-Rico         CNVRico         .... off

SCF Procedure:
 Maximum # iterations   MaxIter         ....  1000
 SCF integral mode      SCFMode         .... Conventional
 Integral Threshold     Thresh          ....  1.000e-10 Eh
 Primitive CutOff       TCut            ....  1.000e-11 Eh
 Integral Buffer length BufferLength    .... 1048576
 Integral index format  IndFormat       ....     0
 Integral value format  ValFormat       ....     0
 Integral Storage       Thresh          ....  1.000e-10 Eh

Convergence Tolerance:
 Convergence Check Mode ConvCheckMode   .... Total+1el-Energy
 Convergence forced     ConvForced      .... 0
 Energy Change          TolE            ....  1.000e-06 Eh
 1-El. energy change                    ....  1.000e-03 Eh
 DIIS Error             TolErr          ....  1.000e-06


Diagonalization of the overlap matrix:
Smallest eigenvalue                        ... 1.942e-02
Time for diagonalization                   ...    0.001 sec
Threshold for overlap eigenvalues          ... 1.000e-08
Number of eigenvalues below threshold      ... 0
Time for construction of square roots      ...    0.000 sec
Total time needed                          ...    0.001 sec

--------------------
INITIAL GUESS: HCORE
--------------------
AVERAGE-CONFIGURATION (SAHF) CASE FOUND

-------------------
FINAL ROHF SETTINGS
-------------------
Number of operators             ... 2
  operator   0:   5 orbitals  10 electrons n(mue)= 2.000
  operator   1:   5 orbitals   4 electrons n(mue)= 0.800
Vector coupling coefficients a and b (Zerner convention):
   1.000    1.000           1.000    1.000 
   1.000    0.938           1.000    1.875 

                      -----------------
                      INTIAL GUESS DONE 
                      -----------------

 InCore treatment chosen:
   Memory dedicated               ...    1024 MB
   Memory needed                  ...      1 MB
   Number of tiny    integrals    ...       0
   Number of small   integrals    ...       0
   Number of regular integrals    ...  157641

--------------
SCF ITERATIONS
--------------
ITER       Energy         Delta-E        Max-DP      RMS-DP      [F,P]     Damp
  0    -61.7424174907   0.000000000000 2.36100350  0.09270686  0.8043938 0.7000
  1    -65.6244688597  -3.882051369005 1.65175417  0.06429055  0.2666113 0.7000
                            ****Activating DIIS****
  2    -65.7495230670  -0.125054207303 3.84674020  0.14579663  0.0557191 0.0000
  3    -65.8646988989  -0.115175831910 0.01100510  0.00053333  0.2173293 0.7000
  4    -65.8934731876  -0.028774288682 0.01195874  0.00054113  0.1977423 0.7000
  5    -65.9036868021  -0.010213614523 0.00805594  0.00039044  0.1936831 0.7000
  6    -65.8726411802   0.031045621889 0.00489067  0.00025312  0.2183396 0.7000
  7    -65.8696364986   0.003004681613 0.60501055  0.02807341  0.2188759 0.7000
  8    -66.9064187866  -1.036782288060 1.40945201  0.07041957  0.0696112 0.0000
  9    -67.1525878458  -0.246169059135 0.00076195  0.00003564  0.1361614 0.7000
 10    -67.1504028994   0.002184946322 0.00056961  0.00002768  0.1383954 0.7000
 11    -67.1499291117   0.000473787709 0.00060942  0.00003045  0.1386012 0.7000
 12    -67.1490466632   0.000882448577 0.00272536  0.00014036  0.1393215 0.7000
 13    -67.1420120534   0.007034609764 0.04225919  0.00234509  0.1466205 0.7000
 14    -67.2354461938  -0.093434140368 0.29119453  0.01200254  0.0467229 0.0000
 15    -67.3124023937  -0.076956199924 0.13409691  0.00435780  0.0375152 0.0000
 16    -67.3244155314  -0.012013137762 0.22989908  0.00678044  0.0276666 0.0000
 17    -67.3392762120  -0.014860680578 0.16654851  0.00501281  0.0227869 0.0000
 18    -67.3468161031  -0.007539891115 0.12645023  0.00407700  0.0181814 0.0000
 19    -67.3512712269  -0.004455123796 0.12124485  0.00423452  0.0137217 0.0000
 20    -67.3545038514  -0.003232624427 0.11451777  0.00353530  0.0087756 0.0000
 21    -67.3561572330  -0.001653381602 0.08683499  0.00252501  0.0046994 0.0000
 22    -67.3568610603  -0.000703827366 0.07590816  0.00215651  0.0036362 0.0000
 23    -67.3572123067  -0.000351246406 0.04000221  0.00116243  0.0032451 0.0000
 24    -67.3573632955  -0.000150988790 0.01871721  0.00062262  0.0031008 0.0000
 25    -67.3574820071  -0.000118711581 0.00835627  0.00046446  0.0031966 0.0000
 26    -67.3576192811  -0.000137273967 0.00494207  0.00039934  0.0033154 0.0000
 27    -67.3577602798  -0.000140998762 0.01069234  0.00038893  0.0034302 0.0000
 28    -67.3578774621  -0.000117182298 0.01452551  0.00042267  0.0035117 0.0000
 29    -67.3579726184  -0.000095156297 0.01504308  0.00042672  0.0035727 0.0000
 30    -67.3580500172  -0.000077398774 0.01303112  0.00037186  0.0036275 0.0000
 31    -67.3581060643  -0.000056047044 0.00852437  0.00024803  0.0036757 0.0000
 32    -67.3581379028  -0.000031838583 0.00370401  0.00011413  0.0037102 0.0000
 33    -67.3581507050  -0.000012802165 0.00095265  0.00003842  0.0037281 0.0000
 34    -67.3581541417  -0.000003436680 0.00051444  0.00002231  0.0037350 0.0000
 35    -67.3581560553  -0.000001913571 0.00128417  0.00004077  0.0037389 0.0000
 36    -67.3581603988  -0.000004343562 0.00179978  0.00005641  0.0037455 0.0000
 37    -67.3581663693  -0.000005970439 0.00168942  0.00005426  0.0037547 0.0000
 38    -67.3581719772  -0.000005607967 0.00134683  0.00004461  0.0037639 0.0000
 39    -67.3581765203  -0.000004543080 0.00109790  0.00003719  0.0037718 0.0000
 40    -67.3581802916  -0.000003771288 0.00102861  0.00003510  0.0037786 0.0000
 41    -67.3581838402  -0.000003548659 0.00102660  0.00003526  0.0037851 0.0000
 42    -67.3581873840  -0.000003543710 0.00098681  0.00003436  0.0037917 0.0000
 43    -67.3581908250  -0.000003441049 0.00090720  0.00003220  0.0037983 0.0000
 44    -67.3581940512  -0.000003226224 0.00082493  0.00002988  0.0038046 0.0000
 45    -67.3581970560  -0.000003004757 0.00076131  0.00002813  0.0038105 0.0000
 46    -67.3581998961  -0.000002840107 0.00071194  0.00002684  0.0038163 0.0000
 47    -67.3582026168  -0.000002720678 0.00066531  0.00002564  0.0038218 0.0000
 48    -67.3582052287  -0.000002611890 0.00061754  0.00002439  0.0038271 0.0000
 49    -67.3582077291  -0.000002500489 0.00057077  0.00002316  0.0038323 0.0000
 50    -67.3582101209  -0.000002391761 0.00052732  0.00002203  0.0038373 0.0000
 51    -67.3582124133  -0.000002292413 0.00048741  0.00002100  0.0038421 0.0000
 52    -67.3582146163  -0.000002202940 0.00045017  0.00002006  0.0038467 0.0000
 53    -67.3582167365  -0.000002120267 0.00041499  0.00001917  0.0038511 0.0000
 54    -67.3582187786  -0.000002042056 0.00038180  0.00001834  0.0038553 0.0000
 55    -67.3582207463  -0.000001967677 0.00035066  0.00001757  0.0038594 0.0000
 56    -67.3582226434  -0.000001897134 0.00032154  0.00001686  0.0038633 0.0000
 57    -67.3582244736  -0.000001830213 0.00029435  0.00001619  0.0038670 0.0000
 58    -67.3582262400  -0.000001766434 0.00026896  0.00001558  0.0038706 0.0000
 59    -67.3582279454  -0.000001705306 0.00024530  0.00001502  0.0038741 0.0000
 60    -67.3582295918  -0.000001646468 0.00022328  0.00001449  0.0038773 0.0000
 61    -67.3582311815  -0.000001589658 0.00020284  0.00001401  0.0038805 0.0000
 62    -67.3582327161  -0.000001534660 0.00018391  0.00001355  0.0038834 0.0000
 63    -67.3582341974  -0.000001481281 0.00016642  0.00001314  0.0038863 0.0000
 64    -67.3582356268  -0.000001429355 0.00015577  0.00001275  0.0038890 0.0000
 65    -67.3582370055  -0.000001378747 0.00015416  0.00001238  0.0038915 0.0000
 66    -67.3582383349  -0.000001329354 0.00015245  0.00001204  0.0038940 0.0000
 67    -67.3582396160  -0.000001281096 0.00015063  0.00001172  0.0038963 0.0000
 68    -67.3582408499  -0.000001233918 0.00014873  0.00001142  0.0038985 0.0000
 69    -67.3582420377  -0.000001187782 0.00014673  0.00001113  0.0039006 0.0000
 70    -67.3582431803  -0.000001142665 0.00014465  0.00001086  0.0039025 0.0000
 71    -67.3582442789  -0.000001098561 0.00014250  0.00001060  0.0039044 0.0000
 72    -67.3582453344  -0.000001055471 0.00014026  0.00001035  0.0039062 0.0000
 73    -67.3582463478  -0.000001013405 0.00013797  0.00001010  0.0039078 0.0000
                 **** Energy Check signals convergence ****

               *****************************************************
               *                     SUCCESS                       *
               *           SCF CONVERGED AFTER  74 CYCLES          *
               *****************************************************


----------------
TOTAL SCF ENERGY
----------------

Total Energy       :          -67.35824732 Eh           -1832.91109 eV

Components:
Nuclear Repulsion  :            0.00000000 Eh               0.00000 eV
Electronic Energy  :          -67.35824732 Eh           -1832.91109 eV
One Electron Energy:         -115.10164040 Eh           -3132.07487 eV
Two Electron Energy:           47.74339308 Eh            1299.16377 eV

Virial components:
Potential Energy   :          -90.87024965 Eh           -2472.70520 eV
Kinetic Energy     :           23.51200233 Eh             639.79411 eV
Virial Ratio       :            3.86484521


---------------
SCF CONVERGENCE
---------------

  Last Energy change         ...   -9.7238e-07  Tolerance :   1.0000e-06
  Last MAX-Density change    ...    1.3561e-04  Tolerance :   1.0000e-05
  Last RMS-Density change    ...    9.8668e-06  Tolerance :   1.0000e-06
  Last DIIS Error            ...    3.9094e-03  Tolerance :   1.0000e-06

             **** THE GBW FILE WAS UPDATED (TMB10_C1_atom42.gbw) ****
             **** DENSITY FILE WAS UPDATED (TMB10_C1_atom42.scfp) ****
             **** ENERGY FILE WAS UPDATED (TMB10_C1_atom42.en.tmp) ****
             **** THE GBW FILE WAS UPDATED (TMB10_C1_atom42.gbw) ****
             **** DENSITY FILE WAS UPDATED (TMB10_C1_atom42.scfp) ****
----------------
ORBITAL ENERGIES
----------------

  NO   OCC          E(Eh)            E(eV) 
   0   2.0000      -3.060219       -83.2728 
   1   2.0000      -1.903519       -51.7974 
   2   2.0000      -1.902765       -51.7769 
   3   2.0000      -1.901402       -51.7398 
   4   2.0000      -0.367847       -10.0096 
   5   0.8000      -0.405073       -11.0226 
   6   0.8000      -0.402729       -10.9588 
   7   0.8000      -0.401201       -10.9172 
   8   0.8000      -0.302522        -8.2320 
   9   0.8000      -0.167718        -4.5638 
  10   0.0000      -0.023360        -0.6357 
  11   0.0000      -0.022787        -0.6201 
  12   0.0000      -0.045915        -1.2494 
  13   0.0000       0.097407         2.6506 
  14   0.0000       0.136701         3.7198 
  15   0.0000       0.148724         4.0470 
  16   0.0000       0.149627         4.0716 
  17   0.0000       0.306355         8.3363 
  18   0.0000       0.297221         8.0878 
  19   0.0000       0.295528         8.0417 
  20   0.0000       0.297944         8.1075 
  21   0.0000       0.335388         9.1264 
  22   0.0000       1.266992        34.4766 
  23   0.0000       1.247698        33.9516 
  24   0.0000       1.269012        34.5316 
  25   0.0000       1.565370        42.5959 
  26   0.0000       1.552980        42.2587 
  27   0.0000       1.550772        42.1987 
  28   0.0000       1.554191        42.2917 
  29   0.0000       1.568635        42.6847 
  30   0.0000       1.587861        43.2079 
  31   0.0000      24.264815       660.2792 
  32   0.0000      85.602674      2329.3672 
CleanUpVectors: The p-vectors have cracked symmetry
CleanUpVectors: The p-vectors have cracked symmetry
CleanUpVectors: The p-vectors have cracked symmetry
CleanUpVectors: The d-vectors have cracked symmetry at i=4
CleanUpVectors: The d-vectors have cracked symmetry at i=6
CleanUpVectors: The d-vectors have cracked symmetry at i=7
CleanUpVectors: The d-vectors have cracked symmetry at i=8
CleanUpVectors: The p-vectors have cracked symmetry
CleanUpVectors: The p-vectors have cracked symmetry
CleanUpVectors: The p-vectors have cracked symmetry
CleanUpVectors: The d-vectors have cracked symmetry at i=12
CleanUpVectors: The p-vectors have cracked symmetry
CleanUpVectors: The p-vectors have cracked symmetry
CleanUpVectors: The p-vectors have cracked symmetry
CleanUpVectors: The d-vectors have cracked symmetry at i=17
CleanUpVectors: The d-vectors have cracked symmetry at i=18
CleanUpVectors: The d-vectors have cracked symmetry at i=19
CleanUpVectors: The d-vectors have cracked symmetry at i=20
CleanUpVectors: The d-vectors have cracked symmetry at i=21
CleanUpVectors: The p-vectors have cracked symmetry
CleanUpVectors: The p-vectors have cracked symmetry
CleanUpVectors: The p-vectors have cracked symmetry
CleanUpVectors: The d-vectors have cracked symmetry at i=25
CleanUpVectors: The d-vectors have cracked symmetry at i=26
CleanUpVectors: The d-vectors have cracked symmetry at i=28
--------------------------
ATOM BASIS FOR ELEMENT Mo
--------------------------
 NewGTO Mo
 S 7
    1         14.000000000000        -0.287430790565
    2         12.500000000000         0.423684801660
    3          4.092150180300        -0.621648828845
    4          0.970536025900         0.839714582886
    5          0.442176201700         0.451289343746
    6          0.092915024300         0.013552346651
    7          0.035016314400        -0.003198660985
 P 19
    1          8.893111791500        -0.002395616491
    2          5.468911227000         0.008059199240
    3          1.354847300700        -0.015851839768
    4          0.654948674600        -0.016709102001
    5          8.893111791500        -0.001809210759
    6          5.468911227000         0.006086445820
    7          1.354847300700        -0.011971581918
    8          0.654948674600        -0.012619001094
    9          8.893111791500        -0.071526131033
   10          5.468911227000         0.240624216386
   11          1.354847300700        -0.473289766011
   12          0.654948674600        -0.498885119454
   13          0.304281974700        -0.005746031573
   14          0.304281974700        -0.004339501830
   15          0.304281974700        -0.171559767097
   16          0.100000000000        -0.000291764169
   17          0.100000000000        -0.000220345316
   18          0.100000000000        -0.008711228307
   19          0.033000000000         0.000016098443
 D 19
    1         14.000000000000         0.000006011275
    2         12.500000000000        -0.000009924170
    3          4.092150180300         0.000048454571
    4          0.970536025900        -0.000338625030
    5          0.442176201700        -0.001038252283
    6          0.092915024300         0.010088691784
    7          0.035016314400         0.019258073403
    8          5.004444549700        -0.014169350288
    9          1.773682332400         0.137566989408
   10          0.769505917000         0.287037426164
   11          5.004444549700         0.008757587495
   12          1.773682332400        -0.085025419071
   13          0.769505917000        -0.177407949056
   14          5.004444549700         0.001010246119
   15          1.773682332400        -0.009808249100
   16          0.769505917000        -0.020465190007
   17          5.004444549700        -0.012192806986
   18          1.773682332400         0.118377181413
   19          0.769505917000         0.246997347370
 D 19
    1         14.000000000000        -0.000166888060
    2         12.500000000000         0.000275519845
    3          4.092150180300        -0.001284093329
    4          0.970536025900         0.007834795772
    5          0.442176201700         0.023562944099
    6          0.092915024300        -0.183657017046
    7          0.035016314400        -0.339747877748
    8          5.004444549700         0.003480277039
    9          1.773682332400        -0.033789215797
   10          0.769505917000        -0.070502157358
   11          5.004444549700        -0.014306467292
   12          1.773682332400         0.138898227120
   13          0.769505917000         0.289815091418
   14          5.004444549700         0.000639346538
   15          1.773682332400        -0.006207269678
   16          0.769505917000        -0.012951644282
   17          5.004444549700        -0.014260736946
   18          1.773682332400         0.138454241629
   19          0.769505917000         0.288888703095
 P 19
    1          8.893111791500        -0.011109754668
    2          5.468911227000         0.037374816344
    3          1.354847300700        -0.073513457406
    4          0.654948674600        -0.077489040780
    5          8.893111791500         0.005751496023
    6          5.468911227000        -0.019348861786
    7          1.354847300700         0.038057758296
    8          0.654948674600         0.040115909232
    9          8.893111791500         0.000226617081
   10          5.468911227000        -0.000762372530
   11          1.354847300700         0.001499529522
   12          0.654948674600         0.001580623581
   13          0.304281974700         0.004729235311
   14          0.304281974700        -0.002448314917
   15          0.304281974700        -0.000096467072
   16          0.100000000000         0.030470602076
   17          0.100000000000        -0.015774564955
   18          0.100000000000        -0.000621540177
   19          0.033000000000         0.869443786472
 P 19
    1          8.893111791500        -0.000678712713
    2          5.468911227000         0.002283287413
    3          1.354847300700        -0.004491054897
    4          0.654948674600        -0.004733929655
    5          8.893111791500        -0.000512575509
    6          5.468911227000         0.001724377909
    7          1.354847300700        -0.003391721869
    8          0.654948674600        -0.003575145062
    9          8.893111791500        -0.020264384817
   10          5.468911227000         0.068172311945
   11          1.354847300700        -0.134089818778
   12          0.654948674600        -0.141341351668
   13          0.304281974700        -0.011536034607
   14          0.304281974700        -0.008712211665
   15          0.304281974700        -0.344432394001
   16          0.100000000000         0.056933982238
   17          0.100000000000         0.042997522205
   18          0.100000000000         1.699882886116
   19          0.033000000000        -0.036798213322
 D 19
    1          5.004444549700        -0.000240113306
    2          1.773682332400         0.002331205307
    3          0.769505917000         0.004864126010
    4          5.004444549700        -0.000372926324
    5          1.773682332400         0.003620656600
    6          0.769505917000         0.007554602714
    7          5.004444549700        -0.004127644714
    8          1.773682332400         0.040074360868
    9          0.769505917000         0.083616290857
   10          5.004444549700        -0.000543774740
   11          1.773682332400         0.005279384900
   12          0.769505917000         0.011015586370
   13          5.004444549700        -0.007999964601
   14          1.773682332400         0.077669831234
   15          0.769505917000         0.162060306357
   16          0.315308789400         0.015308560909
   17          0.315308789400         0.023776130709
   18          0.315308789400         0.263160345554
   19          0.315308789400         0.034668669058
 P 19
    1          8.893111791500        -0.053759113682
    2          5.468911227000         0.180853408629
    3          1.354847300700        -0.355725075131
    4          0.654948674600        -0.374962569116
    5          8.893111791500        -0.104017257164
    6          5.468911227000         0.349929048784
    7          1.354847300700        -0.688284164025
    8          0.654948674600        -0.725506343149
    9          8.893111791500         0.004431602206
   10          5.468911227000        -0.014908548704
   11          1.354847300700         0.029323995870
   12          0.654948674600         0.030909827833
   13          0.304281974700         1.081302637124
   14          0.304281974700         2.092187292046
   15          0.304281974700        -0.089136572825
   16          0.100000000000        -0.684558000889
   17          0.100000000000        -1.324535334474
   18          0.100000000000         0.056431152579
   19          0.033000000000         0.225047760206
 D 19
    1          5.004444549700        -0.001158573632
    2          1.773682332400         0.011248327077
    3          0.769505917000         0.023469953560
    4          5.004444549700        -0.001799411340
    5          1.773682332400         0.017470074188
    6          0.769505917000         0.036451805418
    7          5.004444549700        -0.019916348702
    8          1.773682332400         0.193363285920
    9          0.769505917000         0.403457981774
   10          5.004444549700        -0.002623774112
   11          1.773682332400         0.025473624276
   12          0.769505917000         0.053151439737
   13          5.004444549700        -0.038600726475
   14          1.773682332400         0.374765647141
   15          0.769505917000         0.781959154832
   16          0.315308789400        -0.043545562781
   17          0.315308789400        -0.067631764898
   18          0.315308789400        -0.748565813306
   19          0.315308789400        -0.098615847282
 end
  // -----------------------------------------------
  // The basis set
  // -----------------------------------------------
  BAS[ATNO] = new BFNGauss[NSH];
  // Basis function   1 L = s
  InitBFNGauss(BAS[ATNO][  0]);
  BAS[ATNO][  0].l  = 0;
  BAS[ATNO][  0].ng = 7;
  BAS[ATNO][  0].a[  0] =        14.000000000000;     BAS[ATNO][  0].d[  0] =        -0.287430790565;
  BAS[ATNO][  0].a[  1] =        12.500000000000;     BAS[ATNO][  0].d[  1] =         0.423684801660;
  BAS[ATNO][  0].a[  2] =         4.092150180300;     BAS[ATNO][  0].d[  2] =        -0.621648828845;
  BAS[ATNO][  0].a[  3] =         0.970536025900;     BAS[ATNO][  0].d[  3] =         0.839714582886;
  BAS[ATNO][  0].a[  4] =         0.442176201700;     BAS[ATNO][  0].d[  4] =         0.451289343746;
  BAS[ATNO][  0].a[  5] =         0.092915024300;     BAS[ATNO][  0].d[  5] =         0.013552346651;
  BAS[ATNO][  0].a[  6] =         0.035016314400;     BAS[ATNO][  0].d[  6] =        -0.003198660985;

  // Basis function   2 L = p
  InitBFNGauss(BAS[ATNO][  1]);
  BAS[ATNO][  1].l  = 1;
  BAS[ATNO][  1].ng = 19;
  BAS[ATNO][  1].a[  0] =         8.893111791500;     BAS[ATNO][  1].d[  0] =         0.002395616491;
  BAS[ATNO][  1].a[  1] =         5.468911227000;     BAS[ATNO][  1].d[  1] =        -0.008059199240;
  BAS[ATNO][  1].a[  2] =         1.354847300700;     BAS[ATNO][  1].d[  2] =         0.015851839768;
  BAS[ATNO][  1].a[  3] =         0.654948674600;     BAS[ATNO][  1].d[  3] =         0.016709102001;
  BAS[ATNO][  1].a[  4] =         8.893111791500;     BAS[ATNO][  1].d[  4] =         0.001809210759;
  BAS[ATNO][  1].a[  5] =         5.468911227000;     BAS[ATNO][  1].d[  5] =        -0.006086445820;
  BAS[ATNO][  1].a[  6] =         1.354847300700;     BAS[ATNO][  1].d[  6] =         0.011971581918;
  BAS[ATNO][  1].a[  7] =         0.654948674600;     BAS[ATNO][  1].d[  7] =         0.012619001094;
  BAS[ATNO][  1].a[  8] =         8.893111791500;     BAS[ATNO][  1].d[  8] =         0.071526131033;
  BAS[ATNO][  1].a[  9] =         5.468911227000;     BAS[ATNO][  1].d[  9] =        -0.240624216386;
  BAS[ATNO][  1].a[ 10] =         1.354847300700;     BAS[ATNO][  1].d[ 10] =         0.473289766011;
  BAS[ATNO][  1].a[ 11] =         0.654948674600;     BAS[ATNO][  1].d[ 11] =         0.498885119454;
  BAS[ATNO][  1].a[ 12] =         0.304281974700;     BAS[ATNO][  1].d[ 12] =         0.005746031573;
  BAS[ATNO][  1].a[ 13] =         0.304281974700;     BAS[ATNO][  1].d[ 13] =         0.004339501830;
  BAS[ATNO][  1].a[ 14] =         0.304281974700;     BAS[ATNO][  1].d[ 14] =         0.171559767097;
  BAS[ATNO][  1].a[ 15] =         0.100000000000;     BAS[ATNO][  1].d[ 15] =         0.000291764169;
  BAS[ATNO][  1].a[ 16] =         0.100000000000;     BAS[ATNO][  1].d[ 16] =         0.000220345316;
  BAS[ATNO][  1].a[ 17] =         0.100000000000;     BAS[ATNO][  1].d[ 17] =         0.008711228307;
  BAS[ATNO][  1].a[ 18] =         0.033000000000;     BAS[ATNO][  1].d[ 18] =        -0.000016098443;

  // Basis function   3 L = d
  InitBFNGauss(BAS[ATNO][  2]);
  BAS[ATNO][  2].l  = 2;
  BAS[ATNO][  2].ng = 19;
  BAS[ATNO][  2].a[  0] =        14.000000000000;     BAS[ATNO][  2].d[  0] =         0.000006011275;
  BAS[ATNO][  2].a[  1] =        12.500000000000;     BAS[ATNO][  2].d[  1] =        -0.000009924170;
  BAS[ATNO][  2].a[  2] =         4.092150180300;     BAS[ATNO][  2].d[  2] =         0.000048454571;
  BAS[ATNO][  2].a[  3] =         0.970536025900;     BAS[ATNO][  2].d[  3] =        -0.000338625030;
  BAS[ATNO][  2].a[  4] =         0.442176201700;     BAS[ATNO][  2].d[  4] =        -0.001038252283;
  BAS[ATNO][  2].a[  5] =         0.092915024300;     BAS[ATNO][  2].d[  5] =         0.010088691784;
  BAS[ATNO][  2].a[  6] =         0.035016314400;     BAS[ATNO][  2].d[  6] =         0.019258073403;
  BAS[ATNO][  2].a[  7] =         5.004444549700;     BAS[ATNO][  2].d[  7] =        -0.014169350288;
  BAS[ATNO][  2].a[  8] =         1.773682332400;     BAS[ATNO][  2].d[  8] =         0.137566989408;
  BAS[ATNO][  2].a[  9] =         0.769505917000;     BAS[ATNO][  2].d[  9] =         0.287037426164;
  BAS[ATNO][  2].a[ 10] =         5.004444549700;     BAS[ATNO][  2].d[ 10] =         0.008757587495;
  BAS[ATNO][  2].a[ 11] =         1.773682332400;     BAS[ATNO][  2].d[ 11] =        -0.085025419071;
  BAS[ATNO][  2].a[ 12] =         0.769505917000;     BAS[ATNO][  2].d[ 12] =        -0.177407949056;
  BAS[ATNO][  2].a[ 13] =         5.004444549700;     BAS[ATNO][  2].d[ 13] =         0.001010246119;
  BAS[ATNO][  2].a[ 14] =         1.773682332400;     BAS[ATNO][  2].d[ 14] =        -0.009808249100;
  BAS[ATNO][  2].a[ 15] =         0.769505917000;     BAS[ATNO][  2].d[ 15] =        -0.020465190007;
  BAS[ATNO][  2].a[ 16] =         5.004444549700;     BAS[ATNO][  2].d[ 16] =        -0.012192806986;
  BAS[ATNO][  2].a[ 17] =         1.773682332400;     BAS[ATNO][  2].d[ 17] =         0.118377181413;
  BAS[ATNO][  2].a[ 18] =         0.769505917000;     BAS[ATNO][  2].d[ 18] =         0.246997347370;

  // Basis function   4 L = d
  InitBFNGauss(BAS[ATNO][  3]);
  BAS[ATNO][  3].l  = 2;
  BAS[ATNO][  3].ng = 19;
  BAS[ATNO][  3].a[  0] =        14.000000000000;     BAS[ATNO][  3].d[  0] =         0.000166888060;
  BAS[ATNO][  3].a[  1] =        12.500000000000;     BAS[ATNO][  3].d[  1] =        -0.000275519845;
  BAS[ATNO][  3].a[  2] =         4.092150180300;     BAS[ATNO][  3].d[  2] =         0.001284093329;
  BAS[ATNO][  3].a[  3] =         0.970536025900;     BAS[ATNO][  3].d[  3] =        -0.007834795772;
  BAS[ATNO][  3].a[  4] =         0.442176201700;     BAS[ATNO][  3].d[  4] =        -0.023562944099;
  BAS[ATNO][  3].a[  5] =         0.092915024300;     BAS[ATNO][  3].d[  5] =         0.183657017046;
  BAS[ATNO][  3].a[  6] =         0.035016314400;     BAS[ATNO][  3].d[  6] =         0.339747877748;
  BAS[ATNO][  3].a[  7] =         5.004444549700;     BAS[ATNO][  3].d[  7] =        -0.003480277039;
  BAS[ATNO][  3].a[  8] =         1.773682332400;     BAS[ATNO][  3].d[  8] =         0.033789215797;
  BAS[ATNO][  3].a[  9] =         0.769505917000;     BAS[ATNO][  3].d[  9] =         0.070502157358;
  BAS[ATNO][  3].a[ 10] =         5.004444549700;     BAS[ATNO][  3].d[ 10] =         0.014306467292;
  BAS[ATNO][  3].a[ 11] =         1.773682332400;     BAS[ATNO][  3].d[ 11] =        -0.138898227120;
  BAS[ATNO][  3].a[ 12] =         0.769505917000;     BAS[ATNO][  3].d[ 12] =        -0.289815091418;
  BAS[ATNO][  3].a[ 13] =         5.004444549700;     BAS[ATNO][  3].d[ 13] =        -0.000639346538;
  BAS[ATNO][  3].a[ 14] =         1.773682332400;     BAS[ATNO][  3].d[ 14] =         0.006207269678;
  BAS[ATNO][  3].a[ 15] =         0.769505917000;     BAS[ATNO][  3].d[ 15] =         0.012951644282;
  BAS[ATNO][  3].a[ 16] =         5.004444549700;     BAS[ATNO][  3].d[ 16] =         0.014260736946;
  BAS[ATNO][  3].a[ 17] =         1.773682332400;     BAS[ATNO][  3].d[ 17] =        -0.138454241629;
  BAS[ATNO][  3].a[ 18] =         0.769505917000;     BAS[ATNO][  3].d[ 18] =        -0.288888703095;

  // Basis function   5 L = p
  InitBFNGauss(BAS[ATNO][  4]);
  BAS[ATNO][  4].l  = 1;
  BAS[ATNO][  4].ng = 19;
  BAS[ATNO][  4].a[  0] =         8.893111791500;     BAS[ATNO][  4].d[  0] =        -0.011109754668;
  BAS[ATNO][  4].a[  1] =         5.468911227000;     BAS[ATNO][  4].d[  1] =         0.037374816344;
  BAS[ATNO][  4].a[  2] =         1.354847300700;     BAS[ATNO][  4].d[  2] =        -0.073513457406;
  BAS[ATNO][  4].a[  3] =         0.654948674600;     BAS[ATNO][  4].d[  3] =        -0.077489040780;
  BAS[ATNO][  4].a[  4] =         8.893111791500;     BAS[ATNO][  4].d[  4] =         0.005751496023;
  BAS[ATNO][  4].a[  5] =         5.468911227000;     BAS[ATNO][  4].d[  5] =        -0.019348861786;
  BAS[ATNO][  4].a[  6] =         1.354847300700;     BAS[ATNO][  4].d[  6] =         0.038057758296;
  BAS[ATNO][  4].a[  7] =         0.654948674600;     BAS[ATNO][  4].d[  7] =         0.040115909232;
  BAS[ATNO][  4].a[  8] =         8.893111791500;     BAS[ATNO][  4].d[  8] =         0.000226617081;
  BAS[ATNO][  4].a[  9] =         5.468911227000;     BAS[ATNO][  4].d[  9] =        -0.000762372530;
  BAS[ATNO][  4].a[ 10] =         1.354847300700;     BAS[ATNO][  4].d[ 10] =         0.001499529522;
  BAS[ATNO][  4].a[ 11] =         0.654948674600;     BAS[ATNO][  4].d[ 11] =         0.001580623581;
  BAS[ATNO][  4].a[ 12] =         0.304281974700;     BAS[ATNO][  4].d[ 12] =         0.004729235311;
  BAS[ATNO][  4].a[ 13] =         0.304281974700;     BAS[ATNO][  4].d[ 13] =        -0.002448314917;
  BAS[ATNO][  4].a[ 14] =         0.304281974700;     BAS[ATNO][  4].d[ 14] =        -0.000096467072;
  BAS[ATNO][  4].a[ 15] =         0.100000000000;     BAS[ATNO][  4].d[ 15] =         0.030470602076;
  BAS[ATNO][  4].a[ 16] =         0.100000000000;     BAS[ATNO][  4].d[ 16] =        -0.015774564955;
  BAS[ATNO][  4].a[ 17] =         0.100000000000;     BAS[ATNO][  4].d[ 17] =        -0.000621540177;
  BAS[ATNO][  4].a[ 18] =         0.033000000000;     BAS[ATNO][  4].d[ 18] =         0.869443786472;

  // Basis function   6 L = p
  InitBFNGauss(BAS[ATNO][  5]);
  BAS[ATNO][  5].l  = 1;
  BAS[ATNO][  5].ng = 19;
  BAS[ATNO][  5].a[  0] =         8.893111791500;     BAS[ATNO][  5].d[  0] =        -0.000678712713;
  BAS[ATNO][  5].a[  1] =         5.468911227000;     BAS[ATNO][  5].d[  1] =         0.002283287413;
  BAS[ATNO][  5].a[  2] =         1.354847300700;     BAS[ATNO][  5].d[  2] =        -0.004491054897;
  BAS[ATNO][  5].a[  3] =         0.654948674600;     BAS[ATNO][  5].d[  3] =        -0.004733929655;
  BAS[ATNO][  5].a[  4] =         8.893111791500;     BAS[ATNO][  5].d[  4] =        -0.000512575509;
  BAS[ATNO][  5].a[  5] =         5.468911227000;     BAS[ATNO][  5].d[  5] =         0.001724377909;
  BAS[ATNO][  5].a[  6] =         1.354847300700;     BAS[ATNO][  5].d[  6] =        -0.003391721869;
  BAS[ATNO][  5].a[  7] =         0.654948674600;     BAS[ATNO][  5].d[  7] =        -0.003575145062;
  BAS[ATNO][  5].a[  8] =         8.893111791500;     BAS[ATNO][  5].d[  8] =        -0.020264384817;
  BAS[ATNO][  5].a[  9] =         5.468911227000;     BAS[ATNO][  5].d[  9] =         0.068172311945;
  BAS[ATNO][  5].a[ 10] =         1.354847300700;     BAS[ATNO][  5].d[ 10] =        -0.134089818778;
  BAS[ATNO][  5].a[ 11] =         0.654948674600;     BAS[ATNO][  5].d[ 11] =        -0.141341351668;
  BAS[ATNO][  5].a[ 12] =         0.304281974700;     BAS[ATNO][  5].d[ 12] =        -0.011536034607;
  BAS[ATNO][  5].a[ 13] =         0.304281974700;     BAS[ATNO][  5].d[ 13] =        -0.008712211665;
  BAS[ATNO][  5].a[ 14] =         0.304281974700;     BAS[ATNO][  5].d[ 14] =        -0.344432394001;
  BAS[ATNO][  5].a[ 15] =         0.100000000000;     BAS[ATNO][  5].d[ 15] =         0.056933982238;
  BAS[ATNO][  5].a[ 16] =         0.100000000000;     BAS[ATNO][  5].d[ 16] =         0.042997522205;
  BAS[ATNO][  5].a[ 17] =         0.100000000000;     BAS[ATNO][  5].d[ 17] =         1.699882886116;
  BAS[ATNO][  5].a[ 18] =         0.033000000000;     BAS[ATNO][  5].d[ 18] =        -0.036798213322;

  // Basis function   7 L = d
  InitBFNGauss(BAS[ATNO][  6]);
  BAS[ATNO][  6].l  = 2;
  BAS[ATNO][  6].ng = 19;
  BAS[ATNO][  6].a[  0] =         5.004444549700;     BAS[ATNO][  6].d[  0] =        -0.000240113306;
  BAS[ATNO][  6].a[  1] =         1.773682332400;     BAS[ATNO][  6].d[  1] =         0.002331205307;
  BAS[ATNO][  6].a[  2] =         0.769505917000;     BAS[ATNO][  6].d[  2] =         0.004864126010;
  BAS[ATNO][  6].a[  3] =         5.004444549700;     BAS[ATNO][  6].d[  3] =        -0.000372926324;
  BAS[ATNO][  6].a[  4] =         1.773682332400;     BAS[ATNO][  6].d[  4] =         0.003620656600;
  BAS[ATNO][  6].a[  5] =         0.769505917000;     BAS[ATNO][  6].d[  5] =         0.007554602714;
  BAS[ATNO][  6].a[  6] =         5.004444549700;     BAS[ATNO][  6].d[  6] =        -0.004127644714;
  BAS[ATNO][  6].a[  7] =         1.773682332400;     BAS[ATNO][  6].d[  7] =         0.040074360868;
  BAS[ATNO][  6].a[  8] =         0.769505917000;     BAS[ATNO][  6].d[  8] =         0.083616290857;
  BAS[ATNO][  6].a[  9] =         5.004444549700;     BAS[ATNO][  6].d[  9] =        -0.000543774740;
  BAS[ATNO][  6].a[ 10] =         1.773682332400;     BAS[ATNO][  6].d[ 10] =         0.005279384900;
  BAS[ATNO][  6].a[ 11] =         0.769505917000;     BAS[ATNO][  6].d[ 11] =         0.011015586370;
  BAS[ATNO][  6].a[ 12] =         5.004444549700;     BAS[ATNO][  6].d[ 12] =        -0.007999964601;
  BAS[ATNO][  6].a[ 13] =         1.773682332400;     BAS[ATNO][  6].d[ 13] =         0.077669831234;
  BAS[ATNO][  6].a[ 14] =         0.769505917000;     BAS[ATNO][  6].d[ 14] =         0.162060306357;
  BAS[ATNO][  6].a[ 15] =         0.315308789400;     BAS[ATNO][  6].d[ 15] =         0.015308560909;
  BAS[ATNO][  6].a[ 16] =         0.315308789400;     BAS[ATNO][  6].d[ 16] =         0.023776130709;
  BAS[ATNO][  6].a[ 17] =         0.315308789400;     BAS[ATNO][  6].d[ 17] =         0.263160345554;
  BAS[ATNO][  6].a[ 18] =         0.315308789400;     BAS[ATNO][  6].d[ 18] =         0.034668669058;

  // Basis function   8 L = p
  InitBFNGauss(BAS[ATNO][  7]);
  BAS[ATNO][  7].l  = 1;
  BAS[ATNO][  7].ng = 19;
  BAS[ATNO][  7].a[  0] =         8.893111791500;     BAS[ATNO][  7].d[  0] =        -0.053759113682;
  BAS[ATNO][  7].a[  1] =         5.468911227000;     BAS[ATNO][  7].d[  1] =         0.180853408629;
  BAS[ATNO][  7].a[  2] =         1.354847300700;     BAS[ATNO][  7].d[  2] =        -0.355725075131;
  BAS[ATNO][  7].a[  3] =         0.654948674600;     BAS[ATNO][  7].d[  3] =        -0.374962569116;
  BAS[ATNO][  7].a[  4] =         8.893111791500;     BAS[ATNO][  7].d[  4] =        -0.104017257164;
  BAS[ATNO][  7].a[  5] =         5.468911227000;     BAS[ATNO][  7].d[  5] =         0.349929048784;
  BAS[ATNO][  7].a[  6] =         1.354847300700;     BAS[ATNO][  7].d[  6] =        -0.688284164025;
  BAS[ATNO][  7].a[  7] =         0.654948674600;     BAS[ATNO][  7].d[  7] =        -0.725506343149;
  BAS[ATNO][  7].a[  8] =         8.893111791500;     BAS[ATNO][  7].d[  8] =         0.004431602206;
  BAS[ATNO][  7].a[  9] =         5.468911227000;     BAS[ATNO][  7].d[  9] =        -0.014908548704;
  BAS[ATNO][  7].a[ 10] =         1.354847300700;     BAS[ATNO][  7].d[ 10] =         0.029323995870;
  BAS[ATNO][  7].a[ 11] =         0.654948674600;     BAS[ATNO][  7].d[ 11] =         0.030909827833;
  BAS[ATNO][  7].a[ 12] =         0.304281974700;     BAS[ATNO][  7].d[ 12] =         1.081302637124;
  BAS[ATNO][  7].a[ 13] =         0.304281974700;     BAS[ATNO][  7].d[ 13] =         2.092187292046;
  BAS[ATNO][  7].a[ 14] =         0.304281974700;     BAS[ATNO][  7].d[ 14] =        -0.089136572825;
  BAS[ATNO][  7].a[ 15] =         0.100000000000;     BAS[ATNO][  7].d[ 15] =        -0.684558000889;
  BAS[ATNO][  7].a[ 16] =         0.100000000000;     BAS[ATNO][  7].d[ 16] =        -1.324535334474;
  BAS[ATNO][  7].a[ 17] =         0.100000000000;     BAS[ATNO][  7].d[ 17] =         0.056431152579;
  BAS[ATNO][  7].a[ 18] =         0.033000000000;     BAS[ATNO][  7].d[ 18] =         0.225047760206;

  // Basis function   9 L = d
  InitBFNGauss(BAS[ATNO][  8]);
  BAS[ATNO][  8].l  = 2;
  BAS[ATNO][  8].ng = 19;
  BAS[ATNO][  8].a[  0] =         5.004444549700;     BAS[ATNO][  8].d[  0] =        -0.001158573632;
  BAS[ATNO][  8].a[  1] =         1.773682332400;     BAS[ATNO][  8].d[  1] =         0.011248327077;
  BAS[ATNO][  8].a[  2] =         0.769505917000;     BAS[ATNO][  8].d[  2] =         0.023469953560;
  BAS[ATNO][  8].a[  3] =         5.004444549700;     BAS[ATNO][  8].d[  3] =        -0.001799411340;
  BAS[ATNO][  8].a[  4] =         1.773682332400;     BAS[ATNO][  8].d[  4] =         0.017470074188;
  BAS[ATNO][  8].a[  5] =         0.769505917000;     BAS[ATNO][  8].d[  5] =         0.036451805418;
  BAS[ATNO][  8].a[  6] =         5.004444549700;     BAS[ATNO][  8].d[  6] =        -0.019916348702;
  BAS[ATNO][  8].a[  7] =         1.773682332400;     BAS[ATNO][  8].d[  7] =         0.193363285920;
  BAS[ATNO][  8].a[  8] =         0.769505917000;     BAS[ATNO][  8].d[  8] =         0.403457981774;
  BAS[ATNO][  8].a[  9] =         5.004444549700;     BAS[ATNO][  8].d[  9] =        -0.002623774112;
  BAS[ATNO][  8].a[ 10] =         1.773682332400;     BAS[ATNO][  8].d[ 10] =         0.025473624276;
  BAS[ATNO][  8].a[ 11] =         0.769505917000;     BAS[ATNO][  8].d[ 11] =         0.053151439737;
  BAS[ATNO][  8].a[ 12] =         5.004444549700;     BAS[ATNO][  8].d[ 12] =        -0.038600726475;
  BAS[ATNO][  8].a[ 13] =         1.773682332400;     BAS[ATNO][  8].d[ 13] =         0.374765647141;
  BAS[ATNO][  8].a[ 14] =         0.769505917000;     BAS[ATNO][  8].d[ 14] =         0.781959154832;
  BAS[ATNO][  8].a[ 15] =         0.315308789400;     BAS[ATNO][  8].d[ 15] =        -0.043545562781;
  BAS[ATNO][  8].a[ 16] =         0.315308789400;     BAS[ATNO][  8].d[ 16] =        -0.067631764898;
  BAS[ATNO][  8].a[ 17] =         0.315308789400;     BAS[ATNO][  8].d[ 17] =        -0.748565813306;
  BAS[ATNO][  8].a[ 18] =         0.315308789400;     BAS[ATNO][  8].d[ 18] =        -0.098615847282;

-------------------------------------------
RADIAL EXPECTATION VALUES <R**-3> TO <R**3>
-------------------------------------------
   0 :     0.000000     1.052540     0.975373     1.131878     1.413079     1.944080
   1 :     0.986475     0.882560     0.887992     1.258774     1.770660     2.782667
   2 :     0.986200     0.882357     0.887868     1.259037     1.771568     2.785313
   3 :     0.991078     0.885954     0.890059     1.254542     1.756357     2.742134
   4 :     0.467729     0.500666     0.645294     1.865721     4.183623    55.893107
   5 :     0.000000     0.157795     0.338097     3.470919    13.927876    63.010944
   6 :     0.000000     0.086339     0.230427     5.647554    36.528159   255.480823
   7 :     0.000000     0.080180     0.085118     0.282760     0.939608     4.481866
   8 :     0.000000     0.559066     0.588917     1.918831     6.421282    31.223037
   9 :     0.462578     0.496855     0.641948     1.883767     4.293024    56.245225
  10 :     0.464891     0.498332     0.643572     1.871891     4.213065    56.506763
  11 :     0.464534     0.498016     0.643317     1.873014     4.218992    56.640192
  12 :     0.054586     0.093162     0.262296     4.550719    23.698670   139.113760
  13 :     0.022569     0.051356     0.198978     5.788306    37.122812   259.137870
  14 :     0.022530     0.051276     0.198818     5.792202    37.167104   259.547413
  15 :     0.332791     0.380478     0.547252     2.313257     6.600305   111.600352
  16 :     0.042666     0.071003     0.214206     6.089833    43.302965   337.430293
  17 :     0.070375     0.108433     0.273283     4.877578    29.998037   217.594635
  18 :     0.070506     0.108570     0.273462     4.874008    29.957576   217.219672
  19 :     0.114970     0.152320     0.320636     3.866661    16.565239   376.212193
  20 :     0.112732     0.150624     0.319369     3.874364    16.619933   377.844115
  21 :     0.113827     0.151872     0.320457     3.867815    16.578419   376.406364
  22 :     0.112924     0.150811     0.319531     3.873640    16.616339   377.771264
  23 :     0.205866     0.239210     0.396549     3.483148    14.437888   326.535460
  24 :     0.425024     0.408565     0.538165     2.673096    10.283582    54.875999
  25 :     0.416113     0.400795     0.531858     2.702660    10.417098    55.104984
  26 :     0.425207     0.408712     0.538272     2.672507    10.278843    54.838773
  27 :     0.638677     0.563887     0.637465     2.225618     6.629709   122.282608
  28 :     0.644117     0.567894     0.640448     2.211676     6.544653   120.083105
  29 :     0.644281     0.568023     0.640542     2.211278     6.542321   120.022527
  30 :     0.683082     0.597162     0.659589     2.161526     6.339458   116.298172
  31 :     0.000000     4.831476     1.950873     0.664987     0.790259     2.326892
  32 :     0.000000    49.233133     5.591635     0.251502     0.122369     0.238824
Making the total density                ... o.k.
o.k.
Initializing the integrals              ... done
Making exponents                        ... done
Making rho(0)                           ... done (         0.000250819)
Integral calculation                    ... Two index integrals                     ... done
Solving the equation system             ... done
atomic density will be written to file TMB10_C1_atom42.adf

-------
TIMINGS
-------

Total SCF time: 0 days 0 hours 0 min 1 sec 

Total time                  ....       1.554 sec
Sum of individual times     ....       1.195 sec  ( 76.9%)

Fock matrix formation       ....       0.802 sec  ( 51.6%)
Diagonalization             ....       0.379 sec  ( 24.4%)
Density matrix formation    ....       0.002 sec  (  0.1%)
Population analysis         ....       0.000 sec  (  0.0%)
Initial guess               ....       0.000 sec  (  0.0%)
Orbital Transformation      ....       0.000 sec  (  0.0%)
Orbital Orthonormalization  ....       0.000 sec  (  0.0%)
DIIS solution               ....       0.012 sec  (  0.7%)

-------------------------   --------------------
FINAL SINGLE POINT ENERGY       -67.358247320153
-------------------------   --------------------


                            ***************************************
                            *     ORCA property calculations      *
                            ***************************************

                                    ---------------------
                                    Active property flags
                                    ---------------------
   (+) Dipole Moment


------------------------------------------------------------------------------
                       ORCA ELECTRIC PROPERTIES CALCULATION
------------------------------------------------------------------------------

Dipole Moment Calculation                       ... on
Quadrupole Moment Calculation                   ... off
Polarizability Calculation                      ... off
GBWName                                         ... TMB10_C1_atom42.gbw
Electron density file                           ... TMB10_C1_atom42.scfp
The origin for moment calculation is the CENTER OF MASS  = ( 0.000000,  0.000000  0.000000)

-------------
DIPOLE MOMENT
-------------
                                X             Y             Z
Electronic contribution:      0.00000      -0.00000       0.00000
Nuclear contribution   :      0.00000       0.00000       0.00000
                        -----------------------------------------
Total Dipole Moment    :      0.00000      -0.00000       0.00000
                        -----------------------------------------
Magnitude (a.u.)       :      0.00000
Magnitude (Debye)      :      0.00000



--------------------
Rotational spectrum 
--------------------
 
Rotational constants in cm-1:     0.000000     0.000000     0.000000 
Rotational constants in MHz :     0.000000     0.000000     0.000000 

 Dipole components along the rotational axes: 
x,y,z [a.u.] :     0.000000    -0.000000     0.000000 
x,y,z [Debye]:     0.000000    -0.000000     0.000000 

 

Timings for individual modules:

Sum of individual times         ...        1.862 sec (=   0.031 min)
GTO integral calculation        ...        0.276 sec (=   0.005 min)  14.8 %
SCF iterations                  ...        1.586 sec (=   0.026 min)  85.2 %
                             ****ORCA TERMINATED NORMALLY****
TOTAL RUN TIME: 0 days 0 hours 0 minutes 2 seconds 69 msec
