
                                 *****************
                                 * O   R   C   A *
                                 *****************

           --- An Ab Initio, DFT and Semiempirical electronic structure package ---

                  #######################################################
                  #                        -***-                        #
                  #          Department of theory and spectroscopy      #
                  #               Directorship: Frank Neese             #
                  #        Max Planck Institute fuer Kohlenforschung    #
                  #                Kaiser Wilhelm Platz 1               #
                  #                 D-45470 Muelheim/Ruhr               #
                  #                      Germany                        #
                  #                                                     #
                  #                  All rights reserved                #
                  #                        -***-                        #
                  #######################################################


                         Program Version 4.2.0 -  RELEASE  -


 With contributions from (in alphabetic order):
   Daniel Aravena         : Magnetic Suceptibility
   Michael Atanasov       : Ab Initio Ligand Field Theory (pilot matlab implementation)
   Alexander A. Auer      : GIAO ZORA, VPT2
   Ute Becker             : Parallelization
   Giovanni Bistoni       : ED, misc. LED, open-shell LED, HFLED
   Martin Brehm           : Molecular dynamics
   Dmytro Bykov           : SCF Hessian
   Vijay G. Chilkuri      : MRCI spin determinant printing, contributions to CSF-ICE
   Dipayan Datta          : RHF DLPNO-CCSD density
   Achintya Kumar Dutta   : EOM-CC, STEOM-CC
   Dmitry Ganyushin       : Spin-Orbit,Spin-Spin,Magnetic field MRCI
   Miquel Garcia          : C-PCM Hessian, Gaussian charge scheme
   Yang Guo               : DLPNO-NEVPT2, CIM, IAO-localization
   Andreas Hansen         : Spin unrestricted coupled pair/coupled cluster methods
   Benjamin Helmich-Paris : CASSCF linear response (MC-RPA)
   Lee Huntington         : MR-EOM, pCC
   Robert Izsak           : Overlap fitted RIJCOSX, COSX-SCS-MP3, EOM
   Christian Kollmar      : KDIIS, OOCD, Brueckner-CCSD(T), CCSD density
   Simone Kossmann        : Meta GGA functionals, TD-DFT gradient, OOMP2, MP2 Hessian
   Martin Krupicka        : AUTO-CI
   Lucas Lang             : DCDCAS
   Dagmar Lenk            : GEPOL surface, SMD
   Dimitrios Liakos       : Extrapolation schemes; Compound Job, initial MDCI parallelization
   Dimitrios Manganas     : Further ROCIS development; embedding schemes
   Dimitrios Pantazis     : SARC Basis sets
   Taras Petrenko         : DFT Hessian,TD-DFT gradient, ASA, ECA, R-Raman, ABS, FL, XAS/XES, NRVS
   Peter Pinski           : DLPNO-MP2, DLPNO-MP2 Gradient
   Christoph Reimann      : Effective Core Potentials
   Marius Retegan         : Local ZFS, SOC
   Christoph Riplinger    : Optimizer, TS searches, QM/MM, DLPNO-CCSD(T), (RO)-DLPNO pert. Triples
   Tobias Risthaus        : Range-separated hybrids, TD-DFT gradient, RPA, STAB
   Michael Roemelt        : Original ROCIS implementation
   Masaaki Saitow         : Open-shell DLPNO-CCSD energy and density
   Barbara Sandhoefer     : DKH picture change effects
   Avijit Sen             : IP-ROCIS
   Kantharuban Sivalingam : CASSCF convergence, NEVPT2, FIC-MRCI
   Bernardo de Souza      : ESD, SOC TD-DFT
   Georgi Stoychev        : AutoAux, RI-MP2 NMR
   Willem Van den Heuvel  : Paramagnetic NMR
   Boris Wezisla          : Elementary symmetry handling
   Frank Wennmohs         : Technical directorship


 We gratefully acknowledge several colleagues who have allowed us to
 interface, adapt or use parts of their codes:
   Stefan Grimme, W. Hujo, H. Kruse,             : VdW corrections, initial TS optimization,
                  C. Bannwarth                     DFT functionals, gCP, sTDA/sTD-DF
   Ed Valeev, F. Pavosevic, A. Kumar             : LibInt (2-el integral package), F12 methods
   Garnet Chan, S. Sharma, J. Yang, R. Olivares  : DMRG
   Ulf Ekstrom                                   : XCFun DFT Library
   Mihaly Kallay                                 : mrcc  (arbitrary order and MRCC methods)
   Andreas Klamt, Michael Diedenhofen            : otool_cosmo (COSMO solvation model)
   Jiri Pittner, Ondrej Demel                    : Mk-CCSD
   Frank Weinhold                                : gennbo (NPA and NBO analysis)
   Christopher J. Cramer and Donald G. Truhlar   : smd solvation model
   Lars Goerigk                                  : TD-DFT with DH, B97 family of functionals
   V. Asgeirsson, H. Jonsson                     : NEB implementation
   FAccTs GmbH                                   : IRC, NEB, NEB-TS, Multilevel, MM, QM/MM, CI optimization
   S Lehtola, MJT Oliveira, MAL Marques          : LibXC Library


 Your calculation uses the libint2 library for the computation of 2-el integrals
 For citations please refer to: http://libint.valeyev.net

 Your ORCA version has been built with support for libXC version: 4.2.3
 For citations please refer to: https://tddft.org/programs/libxc/

 This ORCA versions uses:
   CBLAS   interface :  Fast vector & matrix operations
   LAPACKE interface :  Fast linear algebra routines
   SCALAPACK package :  Parallel linear algebra routines


Your calculation utilizes the DFT-NL dispersion correction.
Cite in your paper:
Vydrov, O. A.; Van Voorhis, T. J. Chem. Phys. 2010, 133, 244103
Hujo, W.; Grimme, S. J. Chem. Theory Comput. 2011, 7, 3866 
   

----- Orbital basis set information -----
Your calculation utilizes the basis: def2-TZVPPD
   F. Weigend and R. Ahlrichs, Phys. Chem. Chem. Phys. 7, 3297 (2005).
   D. Rappoport and F. Furche, J. Chem. Phys. 133 134105 (2010).

----- AuxJK basis set information -----
Your calculation utilizes the auxiliary basis: def2/JK
   H-Ba, Hf-Rn: F. Weigend, J. Comput. Chem. 29, 167 (2008).

cite the ECPs for Au [Def2-ECP] as follows:
Ce-Yb(ecp-28): M. Dolg, H. Stoll, H.Preuss, J. Chem. Phys., 1989, 90, 1730-1734.
Y-Cd(ecp-28), Hf-Hg(ecp-46): D. Andrae,U. Haeussermann, M. Dolg, H. Stoll, H. Preuss, Theor. Chim. Acta, 1990, 77, 123-141.
In-Sb(ecp-28), Tl-Bi(ecp-46): B. Metz, H. Stoll, M. Dolg, J. Chem. Phys., 2000, 113, 2563-2569.
Te-Xe(ecp-28), Po-Rn(ecp-46): K. A. Peterson, D. Figgen, E. Goll, H. Stoll, M. Dolg, J. Chem. Phys., 2003, 119, 11113-11123.
Rb(ecp-28), Cs(ecp-46): T. Leininger, A. Nicklass, W. Kuechle, H. Stoll, M. Dolg, A. Bergner, Chem. Phys. Lett., 1996, 255, 274-280.
Sr(ecp-28), Ba(ecp-46): M. Kaupp, P. V. Schleyer, H. Stoll and H. Preuss, J. Chem. Phys., 1991, 94, 1360-1366.
La(ecp-46): M. Dolg, H. Stoll, A. Savin, H. Preuss, Theor. Chim. Acta, 1989, 75, 173-194.
Lu(ecp-28): X. Cao, M. Dolg, J. Chem. Phys., 2001, 115, 7348-7355.

ECP parameters for Au [Def2-ECP] have been obtained from:
TURBOMOLE (7.0.2)

================================================================================
                                        WARNINGS
                       Please study these warnings very carefully!
================================================================================


INFO   : the flag for use of LIBINT has been found!

================================================================================
                                       INPUT FILE
================================================================================
NAME = TMB26_C1.in
|  1> #
|  2> # TMB26_C1 wB97X-V/Def2-TZVPPD
|  3> #
|  4> ! wb97x-v def2-tzvppd def2/jk grid4 nofinalgrid
|  5> 
|  6> *xyz 0 1
|  7> C        2.167128    1.329895    0.039526 
|  8> C        2.525644    0.739273   -1.166486 
|  9> C        3.439975   -0.306708   -1.174383 
| 10> C        3.999633   -0.766755    0.014468 
| 11> C        3.640245   -0.158436    1.215781 
| 12> C        2.734668    0.894978    1.231934 
| 13> H        2.127840    1.087811   -2.109674 
| 14> H        4.700013   -1.586902    0.006791 
| 15> H        2.446371    1.320973    2.183519 
| 16> C        1.181573    2.421289    0.068499 
| 17> C        1.441057    3.589123    0.775147 
| 18> C       -0.063177    2.327678   -0.606474 
| 19> C        0.528793    4.632414    0.796916 
| 20> H        2.386085    3.685262    1.294444 
| 21> C       -0.980026    3.398239   -0.582106 
| 22> C       -0.681931    4.545260    0.115481 
| 23> H        0.768969    5.533734    1.348653 
| 24> H       -1.927777    3.275890   -1.088947 
| 25> H       -1.387173    5.365524    0.142831 
| 26> C       -0.458921    1.154963   -1.244997 
| 27> C       -0.929867    0.115196   -1.736149 
| 28> H       -0.939302   -0.474790   -2.633558 
| 29> Au      -1.934281   -0.752855   -0.093938 
| 30> Cl      -0.307197   -2.360512   -0.181170 
| 31> Cl      -3.051038   -1.907317    1.520981 
| 32> Cl      -3.535590    0.885204   -0.082121 
| 33> O        3.733505   -0.820421   -2.387318 
| 34> O        4.122752   -0.537296    2.416831 
| 35> C        4.611393   -1.919557   -2.452177 
| 36> H        4.218896   -2.777901   -1.898414 
| 37> H        4.691177   -2.180906   -3.505103 
| 38> H        5.605429   -1.663635   -2.071314 
| 39> C        4.983111   -1.650773    2.472584 
| 40> H        5.218240   -1.797897    3.524384 
| 41> H        4.497038   -2.550975    2.084317 
| 42> H        5.911564   -1.470782    1.920934 
| 43> *
| 44> 
| 45> %maxcore 5000
| 46> 
| 47> %pal
| 48> nprocs = 24
| 49> end
| 50> 
| 51> 
| 52>                          ****END OF INPUT****
================================================================================

                       ****************************
                       * Single Point Calculation *
                       ****************************

---------------------------------
CARTESIAN COORDINATES (ANGSTROEM)
---------------------------------
  C      2.167128    1.329895    0.039526
  C      2.525644    0.739273   -1.166486
  C      3.439975   -0.306708   -1.174383
  C      3.999633   -0.766755    0.014468
  C      3.640245   -0.158436    1.215781
  C      2.734668    0.894978    1.231934
  H      2.127840    1.087811   -2.109674
  H      4.700013   -1.586902    0.006791
  H      2.446371    1.320973    2.183519
  C      1.181573    2.421289    0.068499
  C      1.441057    3.589123    0.775147
  C     -0.063177    2.327678   -0.606474
  C      0.528793    4.632414    0.796916
  H      2.386085    3.685262    1.294444
  C     -0.980026    3.398239   -0.582106
  C     -0.681931    4.545260    0.115481
  H      0.768969    5.533734    1.348653
  H     -1.927777    3.275890   -1.088947
  H     -1.387173    5.365524    0.142831
  C     -0.458921    1.154963   -1.244997
  C     -0.929867    0.115196   -1.736149
  H     -0.939302   -0.474790   -2.633558
  Au    -1.934281   -0.752855   -0.093938
  Cl    -0.307197   -2.360512   -0.181170
  Cl    -3.051038   -1.907317    1.520981
  Cl    -3.535590    0.885204   -0.082121
  O      3.733505   -0.820421   -2.387318
  O      4.122752   -0.537296    2.416831
  C      4.611393   -1.919557   -2.452177
  H      4.218896   -2.777901   -1.898414
  H      4.691177   -2.180906   -3.505103
  H      5.605429   -1.663635   -2.071314
  C      4.983111   -1.650773    2.472584
  H      5.218240   -1.797897    3.524384
  H      4.497038   -2.550975    2.084317
  H      5.911564   -1.470782    1.920934

----------------------------
CARTESIAN COORDINATES (A.U.)
----------------------------
  NO LB      ZA    FRAG     MASS         X           Y           Z
   0 C     6.0000    0    12.011    4.095278    2.513137    0.074693
   1 C     6.0000    0    12.011    4.772775    1.397024   -2.204339
   2 C     6.0000    0    12.011    6.500611   -0.579594   -2.219262
   3 C     6.0000    0    12.011    7.558211   -1.448957    0.027341
   4 C     6.0000    0    12.011    6.879066   -0.299401    2.297493
   5 C     6.0000    0    12.011    5.167774    1.691263    2.328018
   6 H     1.0000    0     1.008    4.021035    2.055665   -3.986706
   7 H     1.0000    0     1.008    8.881737   -2.998810    0.012833
   8 H     1.0000    0     1.008    4.622971    2.496277    4.126253
   9 C     6.0000    0    12.011    2.232849    4.575573    0.129444
  10 C     6.0000    0    12.011    2.723203    6.782460    1.464816
  11 C     6.0000    0    12.011   -0.119387    4.398674   -1.146070
  12 C     6.0000    0    12.011    0.999274    8.753994    1.505953
  13 H     1.0000    0     1.008    4.509047    6.964136    2.446145
  14 C     6.0000    0    12.011   -1.851981    6.421741   -1.100021
  15 C     6.0000    0    12.011   -1.288663    8.589297    0.218227
  16 H     1.0000    0     1.008    1.453141   10.457242    2.548585
  17 H     1.0000    0     1.008   -3.642971    6.190535   -2.057812
  18 H     1.0000    0     1.008   -2.621377   10.139371    0.269911
  19 C     6.0000    0    12.011   -0.867235    2.182564   -2.352703
  20 C     6.0000    0    12.011   -1.757194    0.217689   -3.280846
  21 H     1.0000    0     1.008   -1.775024   -0.897223   -4.976703
  22 Au   19.0000*   0   196.966   -3.655261   -1.422690   -0.177517
  23 Cl   17.0000    0    35.453   -0.580518   -4.460721   -0.342362
  24 Cl   17.0000    0    35.453   -5.765626   -3.604307    2.874238
  25 Cl   17.0000    0    35.453   -6.681297    1.672793   -0.155186
  26 O     8.0000    0    15.999    7.055302   -1.550371   -4.511377
  27 O     8.0000    0    15.999    7.790872   -1.015342    4.567149
  28 C     6.0000    0    12.011    8.714270   -3.627437   -4.633943
  29 H     1.0000    0     1.008    7.972558   -5.249472   -3.587483
  30 H     1.0000    0     1.008    8.865040   -4.121315   -6.623685
  31 H     1.0000    0     1.008   10.592726   -3.143815   -3.914216
  32 C     6.0000    0    12.011    9.416715   -3.119509    4.672507
  33 H     1.0000    0     1.008    9.861045   -3.397533    6.660121
  34 H     1.0000    0     1.008    8.498170   -4.820644    3.938788
  35 H     1.0000    0     1.008   11.171237   -2.779375    3.630039
* core charge reduced due to ECP

--------------------------------
INTERNAL COORDINATES (ANGSTROEM)
--------------------------------
 C      0   0   0     0.000000000000     0.00000000     0.00000000
 C      1   0   0     1.389903958295     0.00000000     0.00000000
 C      2   1   0     1.389294710467   119.64473533     0.00000000
 C      3   2   1     1.392202219282   120.56378166   359.96575333
 C      4   3   2     1.393687434210   119.22033046   359.49656985
 C      5   4   3     1.389248601847   120.60258244     0.00000000
 H      2   1   3     1.081355798618   121.66635610   181.44799730
 H      4   3   2     1.078532420624   120.41438384   179.24600506
 H      6   5   4     1.081712028434   118.85360310   177.64071829
 C      1   2   3     1.470815745085   120.34799739   181.15787039
 C     10   1   2     1.389431392231   120.56838289   228.39845891
 C     10   1   2     1.419068050711   121.96783569    48.82446151
 C     11  10   1     1.386057576632   121.17992832   179.16208863
 H     11  10   1     1.082584870721   118.79179508     0.67890171
 C     12  10   1     1.409718675107   120.80829652   181.13583039
 C     15  12  10     1.375189232809   120.07960482   359.15604221
 H     13  11  10     1.083732425714   119.21854256   180.73230792
 H     15  12  10     1.081706538338   118.41416168   181.51441639
 H     16  15  12     1.082103197833   120.25203018   180.50700851
 C     12  10   1     1.392689989298   121.52522623     5.09062146
 C     20  12  10     1.242632623227   173.45883573   125.33579797
 H     21  20  12     1.074018348401   142.48858293   150.00817455
 Au    21  20  12     2.111685817189   102.52397688   324.63554086
 Cl    23  21  20     2.289011313762    85.46735564   248.89057554
 Cl    23  21  20     2.277694466572   173.19147658   188.79250309
 Cl    23  21  20     2.290756958398    92.43908432    69.30476120
 O      3   2   1     1.349545190608   115.77537431   180.11398142
 O      5   4   3     1.348654517343   123.55630187   179.65985994
 C     27   3   2     1.408188189455   118.30112959   182.61883479
 H     29  27   3     1.094285966973   111.42760302    60.18925580
 H     29  27   3     1.087806024957   106.13078766   178.87073662
 H     29  27   3     1.094833441282   111.56433397   297.52508868
 C     28   5   4     1.408246084823   118.42126416   356.61204559
 H     33  28   5     1.087756571121   106.09832357   181.99727033
 H     33  28   5     1.094249453014   111.40977632   300.66164648
 H     33  28   5     1.094869606752   111.60158288    63.35416218

---------------------------
INTERNAL COORDINATES (A.U.)
---------------------------
 C      0   0   0     0.000000000000     0.00000000     0.00000000
 C      1   0   0     2.626537833631     0.00000000     0.00000000
 C      2   1   0     2.625386522088   119.64473533     0.00000000
 C      3   2   1     2.630880917481   120.56378166   359.96575333
 C      4   3   2     2.633687566944   119.22033046   359.49656985
 C      5   4   3     2.625299389424   120.60258244     0.00000000
 H      2   1   3     2.043466312715   121.66635610   181.44799730
 H      4   3   2     2.038130901535   120.41438384   179.24600506
 H      6   5   4     2.044139489509   118.85360310   177.64071829
 C      1   2   3     2.779438951670   120.34799739   181.15787039
 C     10   1   2     2.625644813189   120.56838289   228.39845891
 C     10   1   2     2.681649981242   121.96783569    48.82446151
 C     11  10   1     2.619269225680   121.17992832   179.16208863
 H     11  10   1     2.045788922389   118.79179508     0.67890171
 C     12  10   1     2.663982221827   120.80829652   181.13583039
 C     15  12  10     2.598731032327   120.07960482   359.15604221
 H     13  11  10     2.047957487051   119.21854256   180.73230792
 H     15  12  10     2.044129114731   118.41416168   181.51441639
 H     16  15  12     2.044878692544   120.25203018   180.50700851
 C     12  10   1     2.631802669226   121.52522623     5.09062146
 C     20  12  10     2.348235342976   173.45883573   125.33579797
 H     21  20  12     2.029600541284   142.48858293   150.00817455
 Au    21  20  12     3.990507875373   102.52397688   324.63554086
 Cl    23  21  20     4.325604500457    85.46735564   248.89057554
 Cl    23  21  20     4.304218758569   173.19147658   188.79250309
 Cl    23  21  20     4.328903290748    92.43908432    69.30476120
 O      3   2   1     2.550270815600   115.77537431   180.11398142
 O      5   4   3     2.548587687054   123.55630187   179.65985994
 C     27   3   2     2.661090023093   118.30112959   182.61883479
 H     29  27   3     2.067900789772   111.42760302    60.18925580
 H     29  27   3     2.055655473998   106.13078766   178.87073662
 H     29  27   3     2.068935366281   111.56433397   297.52508868
 C     28   5   4     2.661199429482   118.42126416   356.61204559
 H     33  28   5     2.055562019792   106.09832357   181.99727033
 H     33  28   5     2.067831788390   111.40977632   300.66164648
 H     33  28   5     2.069003709116   111.60158288    63.35416218

---------------------
BASIS SET INFORMATION
---------------------
There are 5 groups of distinct atoms

 Group   1 Type C   : 12s6p3d1f contracted to 6s3p3d1f pattern {621111/411/111/1}
 Group   2 Type H   : 5s3p1d contracted to 3s3p1d pattern {311/111/1}
 Group   3 Type Au  : 8s8p6d2f1g contracted to 6s5p3d2f1g pattern {311111/41111/411/11/1}
 Group   4 Type Cl  : 15s10p4d1f contracted to 6s6p4d1f pattern {732111/511111/1111/1}
 Group   5 Type O   : 12s7p3d1f contracted to 6s4p3d1f pattern {621111/4111/111/1}

Atom   0C    basis set group =>   1
Atom   1C    basis set group =>   1
Atom   2C    basis set group =>   1
Atom   3C    basis set group =>   1
Atom   4C    basis set group =>   1
Atom   5C    basis set group =>   1
Atom   6H    basis set group =>   2
Atom   7H    basis set group =>   2
Atom   8H    basis set group =>   2
Atom   9C    basis set group =>   1
Atom  10C    basis set group =>   1
Atom  11C    basis set group =>   1
Atom  12C    basis set group =>   1
Atom  13H    basis set group =>   2
Atom  14C    basis set group =>   1
Atom  15C    basis set group =>   1
Atom  16H    basis set group =>   2
Atom  17H    basis set group =>   2
Atom  18H    basis set group =>   2
Atom  19C    basis set group =>   1
Atom  20C    basis set group =>   1
Atom  21H    basis set group =>   2
Atom  22Au   basis set group =>   3
Atom  23Cl   basis set group =>   4
Atom  24Cl   basis set group =>   4
Atom  25Cl   basis set group =>   4
Atom  26O    basis set group =>   5
Atom  27O    basis set group =>   5
Atom  28C    basis set group =>   1
Atom  29H    basis set group =>   2
Atom  30H    basis set group =>   2
Atom  31H    basis set group =>   2
Atom  32C    basis set group =>   1
Atom  33H    basis set group =>   2
Atom  34H    basis set group =>   2
Atom  35H    basis set group =>   2
----------------------------------
AUXILIARY/JK BASIS SET INFORMATION
----------------------------------
There are 5 groups of distinct atoms

 Group   1 Type C   : 14s10p6d2f1g contracted to 10s8p5d1f1g pattern {5111111111/31111111/21111/2/1}
 Group   2 Type H   : 4s2p2d contracted to 2s2p2d pattern {31/11/11}
 Group   3 Type Au  : 13s12p11d9f5g3h2i contracted to 13s11p10d8f4g3h2i pattern {1111111111111/21111111111/2111111111/21111111/2111/111/11}
 Group   4 Type Cl  : 16s12p10d4f1g contracted to 13s11p9d4f1g pattern {4111111111111/21111111111/211111111/1111/1}
 Group   5 Type O   : 14s10p6d2f1g contracted to 10s8p4d2f1g pattern {5111111111/31111111/3111/11/1}

Atom   0C    basis set group =>   1
Atom   1C    basis set group =>   1
Atom   2C    basis set group =>   1
Atom   3C    basis set group =>   1
Atom   4C    basis set group =>   1
Atom   5C    basis set group =>   1
Atom   6H    basis set group =>   2
Atom   7H    basis set group =>   2
Atom   8H    basis set group =>   2
Atom   9C    basis set group =>   1
Atom  10C    basis set group =>   1
Atom  11C    basis set group =>   1
Atom  12C    basis set group =>   1
Atom  13H    basis set group =>   2
Atom  14C    basis set group =>   1
Atom  15C    basis set group =>   1
Atom  16H    basis set group =>   2
Atom  17H    basis set group =>   2
Atom  18H    basis set group =>   2
Atom  19C    basis set group =>   1
Atom  20C    basis set group =>   1
Atom  21H    basis set group =>   2
Atom  22Au   basis set group =>   3
Atom  23Cl   basis set group =>   4
Atom  24Cl   basis set group =>   4
Atom  25Cl   basis set group =>   4
Atom  26O    basis set group =>   5
Atom  27O    basis set group =>   5
Atom  28C    basis set group =>   1
Atom  29H    basis set group =>   2
Atom  30H    basis set group =>   2
Atom  31H    basis set group =>   2
Atom  32C    basis set group =>   1
Atom  33H    basis set group =>   2
Atom  34H    basis set group =>   2
Atom  35H    basis set group =>   2
-------------------------
ECP PARAMETER INFORMATION
-------------------------

 Group 1, Type Au ECP Def2-ECP (replacing 60 core electrons, lmax=3)

Atom  22Au   ECP group =>   1



           ************************************************************
           *        Program running with 24 parallel MPI-processes    *
           *              working on a common directory               *
           ************************************************************
------------------------------------------------------------------------------
                           ORCA GTO INTEGRAL CALCULATION
------------------------------------------------------------------------------

                         BASIS SET STATISTICS AND STARTUP INFO

 # of primitive gaussian shells          ...  639
 # of primitive gaussian functions       ... 1509
 # of contracted shells                  ...  402
 # of contracted basis functions         ... 1122
 Highest angular momentum                ...    4
 Maximum contraction depth               ...    7
 Integral package used                   ... LIBINT
 Integral threshhold            Thresh   ...  1.000e-10
 Primitive cut-off              TCut     ...  1.000e-11


------------------------------ INTEGRAL EVALUATION ----------------------------


 * One electron integrals 

   ECP integrals                         ... done
 Pre-screening matrix                    ... done
 Shell pair data                         ... done (   0.018 sec)



           ************************************************************
           *        Program running with 24 parallel MPI-processes    *
           *              working on a common directory               *
           ************************************************************
-------------------------------------------------------------------------------
                                 ORCA SCF
-------------------------------------------------------------------------------

------------
SCF SETTINGS
------------
Hamiltonian:
 Density Functional     Method          .... DFT(GTOs)
 Exchange Functional    Exchange        .... WB97X-V
 Correlation Functional Correlation     .... WB97X-V
 Gradients option       PostSCFGGA      .... off
 Hybrid DFT is turned on
   Fraction HF Exchange ScalHFX         ....  0.167000
   Scaling of DF-GGA-X  ScalDFX         ....  0.000000
   Scaling of DF-GGA-C  ScalDFC         ....  1.000000
   Scaling of DF-LDA-C  ScalLDAC        ....  1.000000
   Perturbative correction              ....  0.000000
   Density functional embedding theory  .... OFF
 Long-range corrected/Screened/Range-Separated Hybrid DFT is turned on
   Amount of maximum screened exact exchange              ....  0.833000
   Range separation parameter mu (erf(mu*r12)/r12)        ....  0.300000
   NL short-range parameter             ....  6.000000
   NL long-range parameter              ....  0.010000


General Settings:
 Integral files         IntName         .... TMB26_C1
 Hartree-Fock type      HFTyp           .... RHF
 Total Charge           Charge          ....    0
 Multiplicity           Mult            ....    1
 Number of Electrons    NEL             ....  196
 Basis Dimension        Dim             .... 1122
 Nuclear Repulsion      ENuc            ....   2417.5368279210 Eh

Convergence Acceleration:
 DIIS                   CNVDIIS         .... on
   Start iteration      DIISMaxIt       ....    12
   Startup error        DIISStart       ....  0.200000
   # of expansion vecs  DIISMaxEq       ....     5
   Bias factor          DIISBfac        ....   1.050
   Max. coefficient     DIISMaxC        ....  10.000
 Newton-Raphson         CNVNR           .... off
 SOSCF                  CNVSOSCF        .... off
 Level Shifting         CNVShift        .... on
   Level shift para.    LevelShift      ....    0.2500
   Turn off err/grad.   ShiftErr        ....    0.0010
 Zerner damping         CNVZerner       .... off
 Static damping         CNVDamp         .... on
   Fraction old density DampFac         ....    0.7000
   Max. Damping (<1)    DampMax         ....    0.9800
   Min. Damping (>=0)   DampMin         ....    0.0000
   Turn off err/grad.   DampErr         ....    0.1000
 Fernandez-Rico         CNVRico         .... off

SCF Procedure:
 Maximum # iterations   MaxIter         ....   125
 SCF integral mode      SCFMode         .... Direct
   Integral package                     .... LIBINT
 Reset frequency        DirectResetFreq ....    20
 Integral Threshold     Thresh          ....  1.000e-10 Eh
 Primitive CutOff       TCut            ....  1.000e-11 Eh

Convergence Tolerance:
 Convergence Check Mode ConvCheckMode   .... Total+1el-Energy
 Convergence forced     ConvForced      .... 0
 Energy Change          TolE            ....  1.000e-06 Eh
 1-El. energy change                    ....  1.000e-03 Eh
 DIIS Error             TolErr          ....  1.000e-06


Diagonalization of the overlap matrix:
Smallest eigenvalue                        ... 1.899e-07
Time for diagonalization                   ...    0.199 sec
Threshold for overlap eigenvalues          ... 1.000e-08
Number of eigenvalues below threshold      ... 0
Time for construction of square roots      ...    0.166 sec
Total time needed                          ...    0.369 sec

-------------------
DFT GRID GENERATION
-------------------

General Integration Accuracy     IntAcc      ...  4.670
Radial Grid Type                 RadialGrid  ... Gauss-Chebyshev
Angular Grid (max. acc.)         AngularGrid ... Lebedev-302
Angular grid pruning method      GridPruning ... 3 (G Style)
Weight generation scheme         WeightScheme... Becke
Basis function cutoff            BFCut       ...    1.0000e-10
Integration weight cutoff        WCut        ...    1.0000e-14
Grids for H and He will be reduced by one unit

# of grid points (after initial pruning)     ... 191198 (   0.0 sec)
# of grid points (after weights+screening)   ... 168278 (   0.2 sec)
nearest neighbour list constructed           ...    0.0 sec
Grid point re-assignment to atoms done       ...    0.0 sec
Grid point division into batches done        ...    0.6 sec
Reduced shell lists constructed in    0.8 sec

Total number of grid points                  ...   168278
Total number of batches                      ...     2649
Average number of points per batch           ...       63
Average number of grid points per atom       ...     4674
Average number of shells per batch           ...   236.20 (58.76%)
Average number of basis functions per batch  ...   655.54 (58.43%)
Average number of large shells per batch     ...   181.55 (76.87%)
Average number of large basis fcns per batch ...   499.80 (76.24%)
Maximum spatial batch extension              ...   6.19,  5.08,  3.26 au
Average spatial batch extension              ...   0.05,  0.05,  0.05 au

Time for grid setup =    1.026 sec

------------------------------
INITIAL GUESS: MODEL POTENTIAL
------------------------------
Loading Hartree-Fock densities                     ... done
  calling /sw/apps/orca/orca_4_2_0_linux_x86-64_openmpi314/orca TMB26_C1_atom79.inp > TMB26_C1_atom79.out in order to generate an atomic fitting density for atom 22 (Au with ECP) on-the-fly... 
    atom 22 (Au), assumed electronic state with S=2: 1s2 2s2 2p6 3s2 3p6 4s2 3d10 4p6 5s2 4d10 5p6 6s1 4f14 5d10           ... done
Calculating cut-offs                               ... done
Setting up the integral package                    ... done
Initializing the effective Hamiltonian             ... done
Starting the Coulomb interaction                   ... done (   0.2 sec)
Reading the grid                                   ... done
Mapping shells                                     ... done
Starting the XC term evaluation                    ... done (   0.6 sec)
  promolecular density results
     # of electrons  =    255.994498100
     EX              =   -423.361114497
     EC              =    -14.190469976
     EX+EC           =   -437.551584473
Transforming the Hamiltonian                       ... done (   0.1 sec)
Diagonalizing the Hamiltonian                      ... done (   0.2 sec)
Back transforming the eigenvectors                 ... done (   0.1 sec)
Now organizing SCF variables                       ... done
                      ------------------
                      INITIAL GUESS DONE (   3.2 sec)
                      ------------------
--------------
SCF ITERATIONS
--------------
ITER       Energy         Delta-E        Max-DP      RMS-DP      [F,P]     Damp
               ***  Starting incremental Fock matrix formation  ***
  0  -2284.8564808599   0.000000000000 1.61482643  0.00645988  0.4450519 0.7000
  1  -2285.1158753137  -0.259394453767 1.54981995  0.00560500  0.3349944 0.7000
  2  -2285.2398892909  -0.124013977252 1.61354939  0.00462198  0.2475106 0.7000
                               ***Turning on DIIS***
  3  -2285.3169658138  -0.077076522909 1.36869374  0.00362208  0.1783831 0.7000
  4  -2285.3713310265  -0.054365212611 1.11093503  0.00277013  0.1263652 0.7000
  5  -2285.4100015943  -0.038670567851 2.66860620  0.00664133  0.0878603 0.0000
  6  -2285.5035436021  -0.093542007806 0.15582564  0.00062479  0.0032314 0.0000
  7  -2285.5040632865  -0.000519684357 0.18017509  0.00070170  0.0020199 0.0000
  8  -2285.5042524946  -0.000189208085 0.29624109  0.00064851  0.0012580 0.0000
  9  -2285.5043361769  -0.000083682360 0.31093457  0.00085993  0.0006714 0.0000
 10  -2285.5043767447  -0.000040567815 0.11934562  0.00040855  0.0003375 0.0000
 11  -2285.5043819665  -0.000005221787 0.15126200  0.00071919  0.0001796 0.0000
 12  -2285.5043833373  -0.000001370817 0.42357525  0.00107360  0.0000804 0.0000
                 **** Energy Check signals convergence ****

               *****************************************************
               *                     SUCCESS                       *
               *           SCF CONVERGED AFTER  13 CYCLES          *
               *****************************************************


Setting up the DFT-NL grid :

General Integration Accuracy     IntAcc      ...  4.340
Radial Grid Type                 RadialGrid  ... Gauss-Chebyshev
Angular Grid (max. acc.)         AngularGrid ... Lebedev-110
Angular grid pruning method      GridPruning ... 3 (G Style)
Weight generation scheme         WeightScheme... Becke
Basis function cutoff            BFCut       ...    1.0000e-10
Integration weight cutoff        WCut        ...    1.0000e-14
Grids for H and He will be reduced by one unit

# of grid points (after initial pruning)     ...  50106 (   0.0 sec)
# of grid points (after weights+screening)   ...  44997 (   0.0 sec)
nearest neighbour list constructed           ...    0.0 sec
Grid point re-assignment to atoms done       ...    0.0 sec
Grid point division into batches done        ...    0.0 sec
Reduced shell lists constructed in    0.1 sec

Total number of grid points                  ...    44997
Total number of batches                      ...      719
Average number of points per batch           ...       62
Average number of grid points per atom       ...     1250
Average number of shells per batch           ...   241.58 (60.09%)
Average number of basis functions per batch  ...   674.42 (60.11%)
Average number of large shells per batch     ...   186.26 (77.10%)
Average number of large basis fcns per batch ...   514.58 (76.30%)
Maximum spatial batch extension              ...   5.81,  4.97,  3.56 au
Average spatial batch extension              ...   0.09,  0.09,  0.08 au

Final grid set up in    0.2 sec

-------------------------------------------------------------------------------
                         DFT-NL dispersion correction                          
-------------------------------------------------------------------------------

SC Energy -2285.504383686 
NL    Energy 0.738489098 
SC+NL Energy -2284.765894588 
NL done in    0.6 sec
-------------------------------------------------------------------------------

----------------
TOTAL SCF ENERGY
----------------

Total Energy       :        -2284.76589459 Eh          -62171.64074 eV

Components:
Nuclear Repulsion  :         2417.53682792 Eh           65784.52151 eV
Electronic Energy  :        -4702.30272251 Eh         -127956.16225 eV
One Electron Energy:        -8000.53017887 Eh         -217705.49410 eV
Two Electron Energy:         3298.22745637 Eh           89749.33186 eV

Virial components:
Potential Energy   :        -4474.64411610 Eh         -121761.25662 eV
Kinetic Energy     :         2189.87822152 Eh           59589.61588 eV
Virial Ratio       :            2.04333011


DFT components:
N(Alpha)           :       97.999946176832 electrons
N(Beta)            :       97.999946176832 electrons
N(Total)           :      195.999892353664 electrons
E(X)               :     -139.533506746223 Eh       
E(C)               :       -8.835038444048 Eh       
NL Energy, E(C,NL) :        0.738489098146 Eh       
E(XC)              :     -147.630056092126 Eh       
DFET-embed. en.    :        0.000000000000 Eh       

---------------
SCF CONVERGENCE
---------------

  Last Energy change         ...   -3.4862e-07  Tolerance :   1.0000e-06
  Last MAX-Density change    ...    1.8615e-01  Tolerance :   1.0000e-05
  Last RMS-Density change    ...    5.7427e-04  Tolerance :   1.0000e-06
  Last DIIS Error            ...    4.7519e-05  Tolerance :   1.0000e-06

             **** THE GBW FILE WAS UPDATED (TMB26_C1.gbw) ****
             **** DENSITY FILE WAS UPDATED (TMB26_C1.scfp) ****
             **** ENERGY FILE WAS UPDATED (TMB26_C1.en.tmp) ****
             **** THE GBW FILE WAS UPDATED (TMB26_C1.gbw) ****
             **** DENSITY FILE WAS UPDATED (TMB26_C1.scfp) ****
----------------
ORBITAL ENERGIES
----------------

  NO   OCC          E(Eh)            E(eV) 
   0   2.0000    -101.482096     -2761.4682 
   1   2.0000    -101.480734     -2761.4312 
   2   2.0000    -101.474565     -2761.2633 
   3   2.0000     -19.262247      -524.1524 
   4   2.0000     -19.261040      -524.1196 
   5   2.0000     -10.373568      -282.2791 
   6   2.0000     -10.355332      -281.7829 
   7   2.0000     -10.355145      -281.7778 
   8   2.0000     -10.343939      -281.4729 
   9   2.0000     -10.343218      -281.4533 
  10   2.0000     -10.337388      -281.2946 
  11   2.0000     -10.336553      -281.2719 
  12   2.0000     -10.336255      -281.2638 
  13   2.0000     -10.329793      -281.0879 
  14   2.0000     -10.329758      -281.0870 
  15   2.0000     -10.314632      -280.6754 
  16   2.0000     -10.314249      -280.6650 
  17   2.0000     -10.312340      -280.6130 
  18   2.0000     -10.287029      -279.9243 
  19   2.0000     -10.282349      -279.7969 
  20   2.0000     -10.280891      -279.7573 
  21   2.0000      -9.521347      -259.0890 
  22   2.0000      -9.519877      -259.0490 
  23   2.0000      -9.513578      -258.8776 
  24   2.0000      -7.275233      -197.9691 
  25   2.0000      -7.273902      -197.9329 
  26   2.0000      -7.268108      -197.7753 
  27   2.0000      -7.268049      -197.7737 
  28   2.0000      -7.267548      -197.7600 
  29   2.0000      -7.266519      -197.7320 
  30   2.0000      -7.266008      -197.7181 
  31   2.0000      -7.260059      -197.5562 
  32   2.0000      -7.259337      -197.5366 
  33   2.0000      -4.380380      -119.1962 
  34   2.0000      -2.564312       -69.7785 
  35   2.0000      -2.562884       -69.7396 
  36   2.0000      -2.538327       -69.0714 
  37   2.0000      -1.224458       -33.3192 
  38   2.0000      -1.222062       -33.2540 
  39   2.0000      -1.061760       -28.8920 
  40   2.0000      -1.014306       -27.6007 
  41   2.0000      -0.986168       -26.8350 
  42   2.0000      -0.950714       -25.8702 
  43   2.0000      -0.926526       -25.2121 
  44   2.0000      -0.916398       -24.9365 
  45   2.0000      -0.913311       -24.8525 
  46   2.0000      -0.896549       -24.3963 
  47   2.0000      -0.893792       -24.3213 
  48   2.0000      -0.889473       -24.2038 
  49   2.0000      -0.865405       -23.5489 
  50   2.0000      -0.829532       -22.5727 
  51   2.0000      -0.808426       -21.9984 
  52   2.0000      -0.786049       -21.3895 
  53   2.0000      -0.742632       -20.2080 
  54   2.0000      -0.735560       -20.0156 
  55   2.0000      -0.706666       -19.2293 
  56   2.0000      -0.683770       -18.6063 
  57   2.0000      -0.664655       -18.0862 
  58   2.0000      -0.647456       -17.6182 
  59   2.0000      -0.631841       -17.1933 
  60   2.0000      -0.626430       -17.0460 
  61   2.0000      -0.619834       -16.8665 
  62   2.0000      -0.611665       -16.6442 
  63   2.0000      -0.607467       -16.5300 
  64   2.0000      -0.600925       -16.3520 
  65   2.0000      -0.591122       -16.0853 
  66   2.0000      -0.584911       -15.9162 
  67   2.0000      -0.579060       -15.7570 
  68   2.0000      -0.563914       -15.3449 
  69   2.0000      -0.559715       -15.2306 
  70   2.0000      -0.558223       -15.1900 
  71   2.0000      -0.548323       -14.9206 
  72   2.0000      -0.531833       -14.4719 
  73   2.0000      -0.527814       -14.3625 
  74   2.0000      -0.521172       -14.1818 
  75   2.0000      -0.517560       -14.0835 
  76   2.0000      -0.515556       -14.0290 
  77   2.0000      -0.509536       -13.8652 
  78   2.0000      -0.497722       -13.5437 
  79   2.0000      -0.490523       -13.3478 
  80   2.0000      -0.475274       -12.9329 
  81   2.0000      -0.473671       -12.8892 
  82   2.0000      -0.462601       -12.5880 
  83   2.0000      -0.453607       -12.3433 
  84   2.0000      -0.445138       -12.1128 
  85   2.0000      -0.443765       -12.0755 
  86   2.0000      -0.434513       -11.8237 
  87   2.0000      -0.415581       -11.3085 
  88   2.0000      -0.407877       -11.0989 
  89   2.0000      -0.402761       -10.9597 
  90   2.0000      -0.391848       -10.6627 
  91   2.0000      -0.378593       -10.3020 
  92   2.0000      -0.376386       -10.2420 
  93   2.0000      -0.372699       -10.1417 
  94   2.0000      -0.369984       -10.0678 
  95   2.0000      -0.362755        -9.8711 
  96   2.0000      -0.345357        -9.3977 
  97   2.0000      -0.319653        -8.6982 
  98   0.0000      -0.085249        -2.3197 
  99   0.0000      -0.014582        -0.3968 
 100   0.0000       0.017876         0.4864 
 101   0.0000       0.039958         1.0873 
 102   0.0000       0.045438         1.2364 
 103   0.0000       0.052552         1.4300 
 104   0.0000       0.055039         1.4977 
 105   0.0000       0.062530         1.7015 
 106   0.0000       0.063977         1.7409 
 107   0.0000       0.068245         1.8570 
 108   0.0000       0.070124         1.9082 
 109   0.0000       0.073981         2.0131 
 110   0.0000       0.078470         2.1353 
 111   0.0000       0.081027         2.2049 
 112   0.0000       0.084057         2.2873 
 113   0.0000       0.084735         2.3058 
 114   0.0000       0.089113         2.4249 
 115   0.0000       0.092690         2.5222 
 116   0.0000       0.098293         2.6747 
 117   0.0000       0.103787         2.8242 
 118   0.0000       0.105331         2.8662 
 119   0.0000       0.109877         2.9899 
 120   0.0000       0.112311         3.0561 
 121   0.0000       0.116308         3.1649 
 122   0.0000       0.119742         3.2584 
 123   0.0000       0.122843         3.3427 
 124   0.0000       0.126575         3.4443 
 125   0.0000       0.129767         3.5311 
 126   0.0000       0.137911         3.7527 
 127   0.0000       0.140519         3.8237 
 128   0.0000       0.141866         3.8604 
 129   0.0000       0.148530         4.0417 
 130   0.0000       0.151511         4.1228 
 131   0.0000       0.155316         4.2264 
 132   0.0000       0.158977         4.3260 
 133   0.0000       0.162450         4.4205 
 134   0.0000       0.165128         4.4934 
 135   0.0000       0.169148         4.6028 
 136   0.0000       0.173770         4.7285 
 137   0.0000       0.177986         4.8433 
 138   0.0000       0.180635         4.9153 
 139   0.0000       0.184281         5.0146 
 140   0.0000       0.187387         5.0991 
 141   0.0000       0.192306         5.2329 
 142   0.0000       0.194175         5.2838 
 143   0.0000       0.198572         5.4034 
 144   0.0000       0.200684         5.4609 
 145   0.0000       0.204295         5.5592 
 146   0.0000       0.206486         5.6188 
 147   0.0000       0.207068         5.6346 
 148   0.0000       0.209477         5.7002 
 149   0.0000       0.216539         5.8923 
 150   0.0000       0.219513         5.9732 
 151   0.0000       0.221525         6.0280 
 152   0.0000       0.222157         6.0452 
 153   0.0000       0.226354         6.1594 
 154   0.0000       0.230761         6.2793 
 155   0.0000       0.232731         6.3329 
 156   0.0000       0.235504         6.4084 
 157   0.0000       0.241530         6.5724 
 158   0.0000       0.242400         6.5960 
 159   0.0000       0.246815         6.7162 
 160   0.0000       0.249038         6.7767 
 161   0.0000       0.254040         6.9128 
 162   0.0000       0.257809         7.0154 
 163   0.0000       0.260716         7.0944 
 164   0.0000       0.261723         7.1219 
 165   0.0000       0.263293         7.1646 
 166   0.0000       0.267534         7.2800 
 167   0.0000       0.270047         7.3483 
 168   0.0000       0.271742         7.3945 
 169   0.0000       0.276454         7.5227 
 170   0.0000       0.279593         7.6081 
 171   0.0000       0.282041         7.6747 
 172   0.0000       0.287091         7.8121 
 173   0.0000       0.289549         7.8790 
 174   0.0000       0.291853         7.9417 
 175   0.0000       0.295141         8.0312 
 176   0.0000       0.298972         8.1354 
 177   0.0000       0.300825         8.1859 
 178   0.0000       0.303249         8.2518 
 179   0.0000       0.307295         8.3619 
 180   0.0000       0.307866         8.3774 
 181   0.0000       0.309791         8.4298 
 182   0.0000       0.313949         8.5430 
 183   0.0000       0.317140         8.6298 
 184   0.0000       0.317903         8.6506 
 185   0.0000       0.318948         8.6790 
 186   0.0000       0.321012         8.7352 
 187   0.0000       0.325288         8.8515 
 188   0.0000       0.327346         8.9075 
 189   0.0000       0.328745         8.9456 
 190   0.0000       0.330443         8.9918 
 191   0.0000       0.333804         9.0833 
 192   0.0000       0.334956         9.1146 
 193   0.0000       0.337296         9.1783 
 194   0.0000       0.340512         9.2658 
 195   0.0000       0.341986         9.3059 
 196   0.0000       0.343667         9.3517 
 197   0.0000       0.344607         9.3772 
 198   0.0000       0.348083         9.4718 
 199   0.0000       0.351935         9.5766 
 200   0.0000       0.353354         9.6152 
 201   0.0000       0.354172         9.6375 
 202   0.0000       0.356548         9.7022 
 203   0.0000       0.359165         9.7734 
 204   0.0000       0.360850         9.8192 
 205   0.0000       0.362172         9.8552 
 206   0.0000       0.362548         9.8654 
 207   0.0000       0.367566        10.0020 
 208   0.0000       0.368307        10.0222 
 209   0.0000       0.369718        10.0605 
 210   0.0000       0.372153        10.1268 
 211   0.0000       0.374766        10.1979 
 212   0.0000       0.376519        10.2456 
 213   0.0000       0.378666        10.3040 
 214   0.0000       0.380915        10.3652 
 215   0.0000       0.382556        10.4099 
 216   0.0000       0.387424        10.5424 
 217   0.0000       0.388588        10.5740 
 218   0.0000       0.389397        10.5960 
 219   0.0000       0.394108        10.7242 
 220   0.0000       0.395594        10.7647 
 221   0.0000       0.397446        10.8151 
 222   0.0000       0.399533        10.8718 
 223   0.0000       0.400578        10.9003 
 224   0.0000       0.403549        10.9811 
 225   0.0000       0.404439        11.0054 
 226   0.0000       0.409968        11.1558 
 227   0.0000       0.411988        11.2108 
 228   0.0000       0.413236        11.2447 
 229   0.0000       0.414514        11.2795 
 230   0.0000       0.419043        11.4027 
 231   0.0000       0.421503        11.4697 
 232   0.0000       0.424497        11.5511 
 233   0.0000       0.424801        11.5594 
 234   0.0000       0.429113        11.6768 
 235   0.0000       0.430586        11.7168 
 236   0.0000       0.432647        11.7729 
 237   0.0000       0.433833        11.8052 
 238   0.0000       0.436603        11.8806 
 239   0.0000       0.440924        11.9982 
 240   0.0000       0.444248        12.0886 
 241   0.0000       0.446026        12.1370 
 242   0.0000       0.448495        12.2042 
 243   0.0000       0.451147        12.2763 
 244   0.0000       0.454060        12.3556 
 245   0.0000       0.455457        12.3936 
 246   0.0000       0.456973        12.4349 
 247   0.0000       0.463731        12.6188 
 248   0.0000       0.464861        12.6495 
 249   0.0000       0.466826        12.7030 
 250   0.0000       0.468738        12.7550 
 251   0.0000       0.472427        12.8554 
 252   0.0000       0.480407        13.0725 
 253   0.0000       0.484641        13.1877 
 254   0.0000       0.487114        13.2550 
 255   0.0000       0.488233        13.2855 
 256   0.0000       0.490815        13.3557 
 257   0.0000       0.494308        13.4508 
 258   0.0000       0.498812        13.5734 
 259   0.0000       0.501347        13.6423 
 260   0.0000       0.501594        13.6491 
 261   0.0000       0.506773        13.7900 
 262   0.0000       0.509327        13.8595 
 263   0.0000       0.515423        14.0254 
 264   0.0000       0.519667        14.1409 
 265   0.0000       0.523354        14.2412 
 266   0.0000       0.525266        14.2932 
 267   0.0000       0.527957        14.3665 
 268   0.0000       0.531024        14.4499 
 269   0.0000       0.534471        14.5437 
 270   0.0000       0.535677        14.5765 
 271   0.0000       0.540802        14.7160 
 272   0.0000       0.542637        14.7659 
 273   0.0000       0.546237        14.8639 
 274   0.0000       0.550195        14.9716 
 275   0.0000       0.552109        15.0236 
 276   0.0000       0.558644        15.2015 
 277   0.0000       0.561470        15.2784 
 278   0.0000       0.562498        15.3063 
 279   0.0000       0.567823        15.4512 
 280   0.0000       0.569601        15.4996 
 281   0.0000       0.571427        15.5493 
 282   0.0000       0.574505        15.6331 
 283   0.0000       0.579336        15.7645 
 284   0.0000       0.586175        15.9506 
 285   0.0000       0.587433        15.9849 
 286   0.0000       0.590949        16.0806 
 287   0.0000       0.591746        16.1022 
 288   0.0000       0.595447        16.2029 
 289   0.0000       0.598611        16.2890 
 290   0.0000       0.605482        16.4760 
 291   0.0000       0.607467        16.5300 
 292   0.0000       0.614067        16.7096 
 293   0.0000       0.616103        16.7650 
 294   0.0000       0.622568        16.9409 
 295   0.0000       0.625739        17.0272 
 296   0.0000       0.628540        17.1034 
 297   0.0000       0.633893        17.2491 
 298   0.0000       0.637390        17.3443 
 299   0.0000       0.638590        17.3769 
 300   0.0000       0.640130        17.4188 
 301   0.0000       0.643567        17.5124 
 302   0.0000       0.646934        17.6040 
 303   0.0000       0.649615        17.6769 
 304   0.0000       0.653242        17.7756 
 305   0.0000       0.656315        17.8592 
 306   0.0000       0.658785        17.9264 
 307   0.0000       0.660597        17.9758 
 308   0.0000       0.664838        18.0912 
 309   0.0000       0.668968        18.2035 
 310   0.0000       0.671791        18.2804 
 311   0.0000       0.674658        18.3584 
 312   0.0000       0.679073        18.4785 
 313   0.0000       0.683781        18.6066 
 314   0.0000       0.685137        18.6435 
 315   0.0000       0.687446        18.7063 
 316   0.0000       0.693010        18.8578 
 317   0.0000       0.695356        18.9216 
 318   0.0000       0.698530        19.0080 
 319   0.0000       0.701056        19.0767 
 320   0.0000       0.702077        19.1045 
 321   0.0000       0.705566        19.1994 
 322   0.0000       0.706800        19.2330 
 323   0.0000       0.709958        19.3189 
 324   0.0000       0.714289        19.4368 
 325   0.0000       0.716945        19.5091 
 326   0.0000       0.718583        19.5536 
 327   0.0000       0.722431        19.6583 
 328   0.0000       0.724649        19.7187 
 329   0.0000       0.727419        19.7941 
 330   0.0000       0.728752        19.8303 
 331   0.0000       0.730851        19.8875 
 332   0.0000       0.731006        19.8917 
 333   0.0000       0.733414        19.9572 
 334   0.0000       0.736253        20.0345 
 335   0.0000       0.740396        20.1472 
 336   0.0000       0.742914        20.2157 
 337   0.0000       0.743481        20.2311 
 338   0.0000       0.746056        20.3012 
 339   0.0000       0.751848        20.4588 
 340   0.0000       0.754906        20.5420 
 341   0.0000       0.755132        20.5482 
 342   0.0000       0.757781        20.6203 
 343   0.0000       0.759640        20.6709 
 344   0.0000       0.760244        20.6873 
 345   0.0000       0.762050        20.7364 
 346   0.0000       0.764458        20.8019 
 347   0.0000       0.766465        20.8566 
 348   0.0000       0.767507        20.8849 
 349   0.0000       0.770253        20.9596 
 350   0.0000       0.774617        21.0784 
 351   0.0000       0.776076        21.1181 
 352   0.0000       0.778320        21.1792 
 353   0.0000       0.784556        21.3488 
 354   0.0000       0.784917        21.3587 
 355   0.0000       0.787291        21.4233 
 356   0.0000       0.793252        21.5855 
 357   0.0000       0.794039        21.6069 
 358   0.0000       0.795622        21.6500 
 359   0.0000       0.796705        21.6795 
 360   0.0000       0.799144        21.7458 
 361   0.0000       0.804802        21.8998 
 362   0.0000       0.805177        21.9100 
 363   0.0000       0.807460        21.9721 
 364   0.0000       0.808851        22.0099 
 365   0.0000       0.814114        22.1532 
 366   0.0000       0.815608        22.1938 
 367   0.0000       0.818024        22.2596 
 368   0.0000       0.819430        22.2978 
 369   0.0000       0.822629        22.3849 
 370   0.0000       0.825947        22.4752 
 371   0.0000       0.828604        22.5475 
 372   0.0000       0.832527        22.6542 
 373   0.0000       0.837057        22.7775 
 374   0.0000       0.839460        22.8429 
 375   0.0000       0.840849        22.8807 
 376   0.0000       0.844782        22.9877 
 377   0.0000       0.850820        23.1520 
 378   0.0000       0.853849        23.2344 
 379   0.0000       0.859149        23.3786 
 380   0.0000       0.861122        23.4323 
 381   0.0000       0.863430        23.4951 
 382   0.0000       0.869629        23.6638 
 383   0.0000       0.872336        23.7375 
 384   0.0000       0.875002        23.8100 
 385   0.0000       0.877526        23.8787 
 386   0.0000       0.885132        24.0857 
 387   0.0000       0.887893        24.1608 
 388   0.0000       0.893456        24.3122 
 389   0.0000       0.894184        24.3320 
 390   0.0000       0.895221        24.3602 
 391   0.0000       0.903317        24.5805 
 392   0.0000       0.906787        24.6749 
 393   0.0000       0.908899        24.7324 
 394   0.0000       0.910608        24.7789 
 395   0.0000       0.911212        24.7953 
 396   0.0000       0.914030        24.8720 
 397   0.0000       0.917058        24.9544 
 398   0.0000       0.919000        25.0073 
 399   0.0000       0.921388        25.0723 
 400   0.0000       0.931000        25.3338 
 401   0.0000       0.934700        25.4345 
 402   0.0000       0.938514        25.5383 
 403   0.0000       0.940887        25.6028 
 404   0.0000       0.941935        25.6313 
 405   0.0000       0.946518        25.7561 
 406   0.0000       0.954810        25.9817 
 407   0.0000       0.955475        25.9998 
 408   0.0000       0.959754        26.1162 
 409   0.0000       0.963420        26.2160 
 410   0.0000       0.966509        26.3001 
 411   0.0000       0.969742        26.3880 
 412   0.0000       0.977190        26.5907 
 413   0.0000       0.979114        26.6430 
 414   0.0000       0.983722        26.7684 
 415   0.0000       0.988019        26.8854 
 416   0.0000       0.994975        27.0746 
 417   0.0000       0.999439        27.1961 
 418   0.0000       1.002870        27.2895 
 419   0.0000       1.008795        27.4507 
 420   0.0000       1.010170        27.4881 
 421   0.0000       1.020196        27.7609 
 422   0.0000       1.020645        27.7732 
 423   0.0000       1.026180        27.9238 
 424   0.0000       1.031122        28.0583 
 425   0.0000       1.037683        28.2368 
 426   0.0000       1.041434        28.3389 
 427   0.0000       1.044536        28.4233 
 428   0.0000       1.046410        28.4743 
 429   0.0000       1.056739        28.7553 
 430   0.0000       1.067872        29.0583 
 431   0.0000       1.071320        29.1521 
 432   0.0000       1.077198        29.3120 
 433   0.0000       1.080681        29.4068 
 434   0.0000       1.082422        29.4542 
 435   0.0000       1.090232        29.6667 
 436   0.0000       1.099470        29.9181 
 437   0.0000       1.105331        30.0776 
 438   0.0000       1.106872        30.1195 
 439   0.0000       1.115098        30.3434 
 440   0.0000       1.120496        30.4903 
 441   0.0000       1.122481        30.5443 
 442   0.0000       1.129612        30.7383 
 443   0.0000       1.132068        30.8051 
 444   0.0000       1.136287        30.9199 
 445   0.0000       1.140665        31.0391 
 446   0.0000       1.151484        31.3335 
 447   0.0000       1.151973        31.3468 
 448   0.0000       1.162708        31.6389 
 449   0.0000       1.165637        31.7186 
 450   0.0000       1.171277        31.8721 
 451   0.0000       1.175787        31.9948 
 452   0.0000       1.177779        32.0490 
 453   0.0000       1.182292        32.1718 
 454   0.0000       1.192416        32.4473 
 455   0.0000       1.195906        32.5422 
 456   0.0000       1.196498        32.5584 
 457   0.0000       1.199590        32.6425 
 458   0.0000       1.213362        33.0173 
 459   0.0000       1.220561        33.2132 
 460   0.0000       1.224015        33.3071 
 461   0.0000       1.227823        33.4108 
 462   0.0000       1.230646        33.4876 
 463   0.0000       1.232980        33.5511 
 464   0.0000       1.241556        33.7845 
 465   0.0000       1.247205        33.9382 
 466   0.0000       1.256937        34.2030 
 467   0.0000       1.259391        34.2698 
 468   0.0000       1.266541        34.4643 
 469   0.0000       1.269234        34.5376 
 470   0.0000       1.272713        34.6323 
 471   0.0000       1.281131        34.8614 
 472   0.0000       1.286618        35.0106 
 473   0.0000       1.288310        35.0567 
 474   0.0000       1.293861        35.2077 
 475   0.0000       1.297082        35.2954 
 476   0.0000       1.301516        35.4160 
 477   0.0000       1.308371        35.6026 
 478   0.0000       1.313975        35.7551 
 479   0.0000       1.322127        35.9769 
 480   0.0000       1.323264        36.0078 
 481   0.0000       1.329692        36.1828 
 482   0.0000       1.334722        36.3196 
 483   0.0000       1.339165        36.4405 
 484   0.0000       1.342384        36.5281 
 485   0.0000       1.351005        36.7627 
 486   0.0000       1.354044        36.8454 
 487   0.0000       1.366585        37.1867 
 488   0.0000       1.368644        37.2427 
 489   0.0000       1.376304        37.4511 
 490   0.0000       1.381453        37.5913 
 491   0.0000       1.391522        37.8652 
 492   0.0000       1.393083        37.9077 
 493   0.0000       1.398722        38.0611 
 494   0.0000       1.411591        38.4113 
 495   0.0000       1.413155        38.4539 
 496   0.0000       1.419553        38.6280 
 497   0.0000       1.425383        38.7866 
 498   0.0000       1.433575        39.0096 
 499   0.0000       1.438544        39.1448 
 500   0.0000       1.448389        39.4127 
 501   0.0000       1.449810        39.4513 
 502   0.0000       1.457077        39.6491 
 503   0.0000       1.462478        39.7961 
 504   0.0000       1.465649        39.8823 
 505   0.0000       1.470035        40.0017 
 506   0.0000       1.477208        40.1969 
 507   0.0000       1.480401        40.2838 
 508   0.0000       1.484622        40.3986 
 509   0.0000       1.493008        40.6268 
 510   0.0000       1.495993        40.7081 
 511   0.0000       1.503271        40.9061 
 512   0.0000       1.515933        41.2506 
 513   0.0000       1.520018        41.3618 
 514   0.0000       1.525679        41.5158 
 515   0.0000       1.528923        41.6041 
 516   0.0000       1.532239        41.6943 
 517   0.0000       1.538298        41.8592 
 518   0.0000       1.540919        41.9305 
 519   0.0000       1.548569        42.1387 
 520   0.0000       1.553923        42.2844 
 521   0.0000       1.557877        42.3920 
 522   0.0000       1.562774        42.5252 
 523   0.0000       1.570518        42.7360 
 524   0.0000       1.579976        42.9933 
 525   0.0000       1.580554        43.0091 
 526   0.0000       1.586038        43.1583 
 527   0.0000       1.589934        43.2643 
 528   0.0000       1.596364        43.4393 
 529   0.0000       1.604298        43.6552 
 530   0.0000       1.607914        43.7536 
 531   0.0000       1.619890        44.0794 
 532   0.0000       1.627351        44.2825 
 533   0.0000       1.631398        44.3926 
 534   0.0000       1.644091        44.7380 
 535   0.0000       1.650182        44.9037 
 536   0.0000       1.657620        45.1061 
 537   0.0000       1.660725        45.1906 
 538   0.0000       1.663822        45.2749 
 539   0.0000       1.667414        45.3726 
 540   0.0000       1.677330        45.6425 
 541   0.0000       1.683525        45.8110 
 542   0.0000       1.690026        45.9879 
 543   0.0000       1.701775        46.3077 
 544   0.0000       1.704994        46.3953 
 545   0.0000       1.705684        46.4140 
 546   0.0000       1.712834        46.6086 
 547   0.0000       1.718709        46.7685 
 548   0.0000       1.731355        47.1126 
 549   0.0000       1.739009        47.3208 
 550   0.0000       1.743559        47.4446 
 551   0.0000       1.751537        47.6617 
 552   0.0000       1.754953        47.7547 
 553   0.0000       1.759363        47.8747 
 554   0.0000       1.764078        48.0030 
 555   0.0000       1.770865        48.1877 
 556   0.0000       1.784079        48.5473 
 557   0.0000       1.796054        48.8731 
 558   0.0000       1.806982        49.1705 
 559   0.0000       1.808787        49.2196 
 560   0.0000       1.816615        49.4326 
 561   0.0000       1.823799        49.6281 
 562   0.0000       1.830257        49.8038 
 563   0.0000       1.834976        49.9322 
 564   0.0000       1.842580        50.1391 
 565   0.0000       1.844812        50.1999 
 566   0.0000       1.858088        50.5611 
 567   0.0000       1.866843        50.7994 
 568   0.0000       1.868273        50.8383 
 569   0.0000       1.875917        51.0463 
 570   0.0000       1.890120        51.4328 
 571   0.0000       1.896038        51.5938 
 572   0.0000       1.910178        51.9786 
 573   0.0000       1.917072        52.1662 
 574   0.0000       1.927702        52.4554 
 575   0.0000       1.933813        52.6217 
 576   0.0000       1.936187        52.6863 
 577   0.0000       1.941336        52.8264 
 578   0.0000       1.944176        52.9037 
 579   0.0000       1.953480        53.1569 
 580   0.0000       1.954910        53.1958 
 581   0.0000       1.960035        53.3353 
 582   0.0000       1.971686        53.6523 
 583   0.0000       1.976680        53.7882 
 584   0.0000       1.980226        53.8847 
 585   0.0000       1.993332        54.2413 
 586   0.0000       1.998614        54.3850 
 587   0.0000       2.013409        54.7877 
 588   0.0000       2.015421        54.8424 
 589   0.0000       2.019642        54.9573 
 590   0.0000       2.043003        55.5929 
 591   0.0000       2.050335        55.7924 
 592   0.0000       2.058959        56.0271 
 593   0.0000       2.063538        56.1517 
 594   0.0000       2.071755        56.3753 
 595   0.0000       2.080794        56.6213 
 596   0.0000       2.088851        56.8405 
 597   0.0000       2.091181        56.9039 
 598   0.0000       2.094913        57.0055 
 599   0.0000       2.102028        57.1991 
 600   0.0000       2.109013        57.3892 
 601   0.0000       2.115529        57.5665 
 602   0.0000       2.118706        57.6529 
 603   0.0000       2.126003        57.8515 
 604   0.0000       2.128966        57.9321 
 605   0.0000       2.133317        58.0505 
 606   0.0000       2.136162        58.1279 
 607   0.0000       2.144328        58.3501 
 608   0.0000       2.150041        58.5056 
 609   0.0000       2.154822        58.6357 
 610   0.0000       2.156817        58.6900 
 611   0.0000       2.159946        58.7751 
 612   0.0000       2.164731        58.9053 
 613   0.0000       2.172223        59.1092 
 614   0.0000       2.175745        59.2050 
 615   0.0000       2.187549        59.5262 
 616   0.0000       2.195200        59.7344 
 617   0.0000       2.199641        59.8553 
 618   0.0000       2.203475        59.9596 
 619   0.0000       2.205023        60.0017 
 620   0.0000       2.215293        60.2812 
 621   0.0000       2.217478        60.3406 
 622   0.0000       2.220679        60.4277 
 623   0.0000       2.231269        60.7159 
 624   0.0000       2.235963        60.8436 
 625   0.0000       2.238656        60.9169 
 626   0.0000       2.248619        61.1880 
 627   0.0000       2.254326        61.3433 
 628   0.0000       2.256834        61.4116 
 629   0.0000       2.259586        61.4865 
 630   0.0000       2.263115        61.5825 
 631   0.0000       2.267669        61.7064 
 632   0.0000       2.269512        61.7566 
 633   0.0000       2.272248        61.8310 
 634   0.0000       2.274494        61.8921 
 635   0.0000       2.286597        62.2215 
 636   0.0000       2.292340        62.3777 
 637   0.0000       2.295464        62.4628 
 638   0.0000       2.301229        62.6196 
 639   0.0000       2.310290        62.8662 
 640   0.0000       2.321668        63.1758 
 641   0.0000       2.324006        63.2394 
 642   0.0000       2.333152        63.4883 
 643   0.0000       2.341566        63.7172 
 644   0.0000       2.347694        63.8840 
 645   0.0000       2.350836        63.9695 
 646   0.0000       2.357286        64.1450 
 647   0.0000       2.367327        64.4182 
 648   0.0000       2.372478        64.5584 
 649   0.0000       2.377794        64.7031 
 650   0.0000       2.384848        64.8950 
 651   0.0000       2.391623        65.0794 
 652   0.0000       2.397514        65.2397 
 653   0.0000       2.399258        65.2871 
 654   0.0000       2.400628        65.3244 
 655   0.0000       2.407625        65.5148 
 656   0.0000       2.413017        65.6615 
 657   0.0000       2.424135        65.9641 
 658   0.0000       2.440958        66.4219 
 659   0.0000       2.442552        66.4652 
 660   0.0000       2.450250        66.6747 
 661   0.0000       2.461332        66.9762 
 662   0.0000       2.470191        67.2173 
 663   0.0000       2.479397        67.4678 
 664   0.0000       2.495669        67.9106 
 665   0.0000       2.505970        68.1909 
 666   0.0000       2.510982        68.3273 
 667   0.0000       2.528019        68.7909 
 668   0.0000       2.530977        68.8714 
 669   0.0000       2.539311        69.0982 
 670   0.0000       2.547158        69.3117 
 671   0.0000       2.554060        69.4995 
 672   0.0000       2.564289        69.7778 
 673   0.0000       2.586522        70.3829 
 674   0.0000       2.588966        70.4494 
 675   0.0000       2.603463        70.8438 
 676   0.0000       2.605477        70.8986 
 677   0.0000       2.610736        71.0417 
 678   0.0000       2.615413        71.1690 
 679   0.0000       2.623333        71.3845 
 680   0.0000       2.634846        71.6978 
 681   0.0000       2.652983        72.1913 
 682   0.0000       2.661198        72.4149 
 683   0.0000       2.665234        72.5247 
 684   0.0000       2.668943        72.6256 
 685   0.0000       2.674115        72.7664 
 686   0.0000       2.682815        73.0031 
 687   0.0000       2.696583        73.3778 
 688   0.0000       2.704497        73.5931 
 689   0.0000       2.712665        73.8154 
 690   0.0000       2.718072        73.9625 
 691   0.0000       2.723927        74.1218 
 692   0.0000       2.735823        74.4455 
 693   0.0000       2.740698        74.5782 
 694   0.0000       2.752042        74.8869 
 695   0.0000       2.759843        75.0991 
 696   0.0000       2.768057        75.3226 
 697   0.0000       2.778834        75.6159 
 698   0.0000       2.786561        75.8262 
 699   0.0000       2.798131        76.1410 
 700   0.0000       2.804444        76.3128 
 701   0.0000       2.816383        76.6377 
 702   0.0000       2.821062        76.7650 
 703   0.0000       2.834860        77.1405 
 704   0.0000       2.842981        77.3614 
 705   0.0000       2.859583        77.8132 
 706   0.0000       2.861632        77.8690 
 707   0.0000       2.869075        78.0715 
 708   0.0000       2.875303        78.2410 
 709   0.0000       2.879342        78.3509 
 710   0.0000       2.885646        78.5224 
 711   0.0000       2.890042        78.6420 
 712   0.0000       2.895932        78.8023 
 713   0.0000       2.905200        79.0545 
 714   0.0000       2.918187        79.4079 
 715   0.0000       2.923882        79.5629 
 716   0.0000       2.953201        80.3607 
 717   0.0000       2.962051        80.6015 
 718   0.0000       2.966037        80.7100 
 719   0.0000       2.975895        80.9782 
 720   0.0000       2.979991        81.0897 
 721   0.0000       2.982818        81.1666 
 722   0.0000       2.993040        81.4447 
 723   0.0000       2.999374        81.6171 
 724   0.0000       3.003267        81.7230 
 725   0.0000       3.011773        81.9545 
 726   0.0000       3.016650        82.0872 
 727   0.0000       3.022070        82.2347 
 728   0.0000       3.030724        82.4702 
 729   0.0000       3.041262        82.7569 
 730   0.0000       3.044235        82.8379 
 731   0.0000       3.056737        83.1780 
 732   0.0000       3.059983        83.2664 
 733   0.0000       3.071879        83.5901 
 734   0.0000       3.075520        83.6892 
 735   0.0000       3.088883        84.0528 
 736   0.0000       3.103155        84.4411 
 737   0.0000       3.106996        84.5457 
 738   0.0000       3.112751        84.7023 
 739   0.0000       3.118842        84.8680 
 740   0.0000       3.124380        85.0187 
 741   0.0000       3.132074        85.2281 
 742   0.0000       3.134206        85.2861 
 743   0.0000       3.145506        85.5936 
 744   0.0000       3.155627        85.8690 
 745   0.0000       3.163613        86.0863 
 746   0.0000       3.171607        86.3038 
 747   0.0000       3.173037        86.3427 
 748   0.0000       3.181730        86.5793 
 749   0.0000       3.185588        86.6843 
 750   0.0000       3.191242        86.8381 
 751   0.0000       3.205037        87.2135 
 752   0.0000       3.211901        87.4003 
 753   0.0000       3.214716        87.4769 
 754   0.0000       3.222719        87.6947 
 755   0.0000       3.226284        87.7917 
 756   0.0000       3.231223        87.9260 
 757   0.0000       3.241615        88.2088 
 758   0.0000       3.246020        88.3287 
 759   0.0000       3.253951        88.5445 
 760   0.0000       3.256446        88.6124 
 761   0.0000       3.262337        88.7727 
 762   0.0000       3.264619        88.8348 
 763   0.0000       3.272700        89.0547 
 764   0.0000       3.275777        89.1384 
 765   0.0000       3.280938        89.2789 
 766   0.0000       3.289279        89.5058 
 767   0.0000       3.291714        89.5721 
 768   0.0000       3.293991        89.6341 
 769   0.0000       3.307900        90.0125 
 770   0.0000       3.320872        90.3655 
 771   0.0000       3.329228        90.5929 
 772   0.0000       3.336225        90.7833 
 773   0.0000       3.343579        90.9834 
 774   0.0000       3.344597        91.0111 
 775   0.0000       3.356790        91.3429 
 776   0.0000       3.361246        91.4642 
 777   0.0000       3.367717        91.6403 
 778   0.0000       3.370433        91.7141 
 779   0.0000       3.374835        91.8339 
 780   0.0000       3.378011        91.9204 
 781   0.0000       3.385717        92.1300 
 782   0.0000       3.389101        92.2221 
 783   0.0000       3.393297        92.3363 
 784   0.0000       3.403231        92.6066 
 785   0.0000       3.411198        92.8234 
 786   0.0000       3.415874        92.9507 
 787   0.0000       3.423638        93.1619 
 788   0.0000       3.428771        93.3016 
 789   0.0000       3.434838        93.4667 
 790   0.0000       3.439851        93.6031 
 791   0.0000       3.443912        93.7136 
 792   0.0000       3.452003        93.9338 
 793   0.0000       3.458975        94.1235 
 794   0.0000       3.465118        94.2906 
 795   0.0000       3.472712        94.4973 
 796   0.0000       3.476627        94.6038 
 797   0.0000       3.488292        94.9212 
 798   0.0000       3.490730        94.9876 
 799   0.0000       3.497071        95.1601 
 800   0.0000       3.503011        95.3218 
 801   0.0000       3.512775        95.5875 
 802   0.0000       3.521794        95.8329 
 803   0.0000       3.525632        95.9373 
 804   0.0000       3.529636        96.0463 
 805   0.0000       3.531318        96.0920 
 806   0.0000       3.540923        96.3534 
 807   0.0000       3.544222        96.4432 
 808   0.0000       3.548743        96.5662 
 809   0.0000       3.550242        96.6070 
 810   0.0000       3.558677        96.8365 
 811   0.0000       3.566655        97.0536 
 812   0.0000       3.571568        97.1873 
 813   0.0000       3.573994        97.2533 
 814   0.0000       3.580765        97.4376 
 815   0.0000       3.588472        97.6473 
 816   0.0000       3.598645        97.9241 
 817   0.0000       3.601004        97.9883 
 818   0.0000       3.604939        98.0954 
 819   0.0000       3.614568        98.3574 
 820   0.0000       3.622551        98.5746 
 821   0.0000       3.625888        98.6654 
 822   0.0000       3.632305        98.8400 
 823   0.0000       3.638520        99.0092 
 824   0.0000       3.647640        99.2573 
 825   0.0000       3.651330        99.3577 
 826   0.0000       3.659906        99.5911 
 827   0.0000       3.668998        99.8385 
 828   0.0000       3.674359        99.9844 
 829   0.0000       3.679777       100.1318 
 830   0.0000       3.682213       100.1981 
 831   0.0000       3.691117       100.4404 
 832   0.0000       3.697717       100.6200 
 833   0.0000       3.707171       100.8772 
 834   0.0000       3.719152       101.2033 
 835   0.0000       3.726006       101.3898 
 836   0.0000       3.733369       101.5901 
 837   0.0000       3.737923       101.7140 
 838   0.0000       3.750440       102.0547 
 839   0.0000       3.755641       102.1962 
 840   0.0000       3.760200       102.3202 
 841   0.0000       3.765727       102.4706 
 842   0.0000       3.772377       102.6516 
 843   0.0000       3.779794       102.8534 
 844   0.0000       3.781717       102.9057 
 845   0.0000       3.784075       102.9699 
 846   0.0000       3.804555       103.5272 
 847   0.0000       3.807595       103.6099 
 848   0.0000       3.815306       103.8198 
 849   0.0000       3.829835       104.2151 
 850   0.0000       3.838048       104.4386 
 851   0.0000       3.845131       104.6313 
 852   0.0000       3.852094       104.8208 
 853   0.0000       3.854885       104.8968 
 854   0.0000       3.860459       105.0484 
 855   0.0000       3.871428       105.3469 
 856   0.0000       3.875276       105.4516 
 857   0.0000       3.878656       105.5436 
 858   0.0000       3.888717       105.8174 
 859   0.0000       3.891294       105.8875 
 860   0.0000       3.900353       106.1340 
 861   0.0000       3.911637       106.4410 
 862   0.0000       3.913523       106.4924 
 863   0.0000       3.923628       106.7674 
 864   0.0000       3.930631       106.9579 
 865   0.0000       3.941323       107.2488 
 866   0.0000       3.953321       107.5753 
 867   0.0000       3.962302       107.8197 
 868   0.0000       3.976132       108.1961 
 869   0.0000       3.986509       108.4784 
 870   0.0000       3.986735       108.4846 
 871   0.0000       3.995374       108.7197 
 872   0.0000       4.001113       108.8758 
 873   0.0000       4.007200       109.0415 
 874   0.0000       4.018280       109.3430 
 875   0.0000       4.028866       109.6310 
 876   0.0000       4.031862       109.7126 
 877   0.0000       4.037707       109.8716 
 878   0.0000       4.059094       110.4536 
 879   0.0000       4.067693       110.6876 
 880   0.0000       4.070299       110.7585 
 881   0.0000       4.081693       111.0685 
 882   0.0000       4.089227       111.2735 
 883   0.0000       4.098607       111.5288 
 884   0.0000       4.100780       111.5879 
 885   0.0000       4.114303       111.9559 
 886   0.0000       4.124113       112.2228 
 887   0.0000       4.131599       112.4265 
 888   0.0000       4.147198       112.8510 
 889   0.0000       4.148283       112.8805 
 890   0.0000       4.156579       113.1063 
 891   0.0000       4.160842       113.2223 
 892   0.0000       4.165874       113.3592 
 893   0.0000       4.173097       113.5557 
 894   0.0000       4.183745       113.8455 
 895   0.0000       4.197040       114.2073 
 896   0.0000       4.201526       114.3293 
 897   0.0000       4.205557       114.4390 
 898   0.0000       4.206968       114.4774 
 899   0.0000       4.217403       114.7614 
 900   0.0000       4.218666       114.7958 
 901   0.0000       4.224400       114.9518 
 902   0.0000       4.232304       115.1668 
 903   0.0000       4.240227       115.3824 
 904   0.0000       4.245776       115.5334 
 905   0.0000       4.256229       115.8179 
 906   0.0000       4.272401       116.2579 
 907   0.0000       4.276521       116.3701 
 908   0.0000       4.278689       116.4290 
 909   0.0000       4.281985       116.5187 
 910   0.0000       4.299700       117.0008 
 911   0.0000       4.301992       117.0631 
 912   0.0000       4.307408       117.2105 
 913   0.0000       4.314379       117.4002 
 914   0.0000       4.318323       117.5075 
 915   0.0000       4.323174       117.6395 
 916   0.0000       4.325073       117.6912 
 917   0.0000       4.331114       117.8556 
 918   0.0000       4.334857       117.9575 
 919   0.0000       4.353716       118.4706 
 920   0.0000       4.358852       118.6104 
 921   0.0000       4.373293       119.0034 
 922   0.0000       4.378924       119.1566 
 923   0.0000       4.382266       119.2475 
 924   0.0000       4.388310       119.4120 
 925   0.0000       4.393489       119.5529 
 926   0.0000       4.407051       119.9220 
 927   0.0000       4.407487       119.9338 
 928   0.0000       4.418938       120.2454 
 929   0.0000       4.428277       120.4996 
 930   0.0000       4.436837       120.7325 
 931   0.0000       4.439460       120.8038 
 932   0.0000       4.442810       120.8950 
 933   0.0000       4.443362       120.9100 
 934   0.0000       4.463717       121.4639 
 935   0.0000       4.465270       121.5062 
 936   0.0000       4.472793       121.7109 
 937   0.0000       4.476304       121.8064 
 938   0.0000       4.496430       122.3541 
 939   0.0000       4.498137       122.4005 
 940   0.0000       4.522119       123.0531 
 941   0.0000       4.524198       123.1097 
 942   0.0000       4.530214       123.2734 
 943   0.0000       4.548306       123.7657 
 944   0.0000       4.554895       123.9450 
 945   0.0000       4.563114       124.1686 
 946   0.0000       4.580113       124.6312 
 947   0.0000       4.585137       124.7679 
 948   0.0000       4.600804       125.1942 
 949   0.0000       4.614119       125.5566 
 950   0.0000       4.617682       125.6535 
 951   0.0000       4.635518       126.1388 
 952   0.0000       4.646874       126.4479 
 953   0.0000       4.656361       126.7060 
 954   0.0000       4.684381       127.4685 
 955   0.0000       4.694212       127.7360 
 956   0.0000       4.696457       127.7971 
 957   0.0000       4.712672       128.2383 
 958   0.0000       4.718036       128.3843 
 959   0.0000       4.733620       128.8084 
 960   0.0000       4.747029       129.1732 
[...]
      dxy     :     0.243363
      f0      :     0.005392  f :     0.057370
      f+1     :     0.005917
      f-1     :     0.004316
      f+2     :     0.006615
      f-2     :     0.010796
      f+3     :     0.009050
      f-3     :     0.015285
 12 C s       :     2.646236  s :     2.646236
      pz      :     0.758599  p :     2.559126
      px      :     0.906169
      py      :     0.894359
      dz2     :     0.074947  d :     0.686066
      dxz     :     0.126089
      dyz     :     0.115395
      dx2y2   :     0.197611
      dxy     :     0.172025
      f0      :     0.004774  f :     0.044514
      f+1     :     0.006257
      f-1     :     0.001700
      f+2     :     0.004681
      f-2     :     0.008083
      f+3     :     0.007729
      f-3     :     0.011290
 13 H s       :     0.684497  s :     0.684497
      pz      :     0.080379  p :     0.264218
      px      :     0.110669
      py      :     0.073171
      dz2     :     0.004877  d :     0.029663
      dxz     :     0.008542
      dyz     :     0.002211
      dx2y2   :     0.006810
      dxy     :     0.007224
 14 C s       :     2.635997  s :     2.635997
      pz      :     0.754628  p :     2.528023
      px      :     0.875440
      py      :     0.897955
      dz2     :     0.082779  d :     0.717998
      dxz     :     0.104135
      dyz     :     0.144904
      dx2y2   :     0.209258
      dxy     :     0.176922
      f0      :     0.004931  f :     0.044827
      f+1     :     0.001726
      f-1     :     0.006202
      f+2     :     0.004886
      f-2     :     0.008302
      f+3     :     0.008782
      f-3     :     0.009997
 15 C s       :     2.640735  s :     2.640735
      pz      :     0.809239  p :     2.612630
      px      :     0.897789
      py      :     0.905601
      dz2     :     0.103610  d :     0.657562
      dxz     :     0.115275
      dyz     :     0.099511
      dx2y2   :     0.131687
      dxy     :     0.207478
      f0      :     0.003142  f :     0.044437
      f+1     :     0.005224
      f-1     :     0.005134
      f+2     :     0.007288
      f-2     :     0.007399
      f+3     :     0.007425
      f-3     :     0.008825
 16 H s       :     0.702705  s :     0.702705
      pz      :     0.080139  p :     0.253555
      px      :     0.068006
      py      :     0.105410
      dz2     :     0.004572  d :     0.028667
      dxz     :     0.002895
      dyz     :     0.007888
      dx2y2   :     0.006680
      dxy     :     0.006632
 17 H s       :     0.683178  s :     0.683178
      pz      :     0.079924  p :     0.283390
      px      :     0.121730
      py      :     0.081735
      dz2     :     0.004401  d :     0.029183
      dxz     :     0.008420
      dyz     :     0.002184
      dx2y2   :     0.007191
      dxy     :     0.006987
 18 H s       :     0.702594  s :     0.702594
      pz      :     0.069430  p :     0.257002
      px      :     0.089878
      py      :     0.097694
      dz2     :     0.002821  d :     0.029209
      dxz     :     0.003732
      dyz     :     0.005051
      dx2y2   :     0.009004
      dxy     :     0.008601
 19 C s       :     2.710734  s :     2.710734
      pz      :     0.706303  p :     2.475071
      px      :     0.788090
      py      :     0.980678
      dz2     :     0.128615  d :     0.802764
      dxz     :     0.091464
      dyz     :     0.192200
      dx2y2   :     0.197034
      dxy     :     0.193450
      f0      :     0.003935  f :     0.047643
      f+1     :     0.001539
      f-1     :     0.008818
      f+2     :     0.007493
      f-2     :     0.007843
      f+3     :     0.009444
      f-3     :     0.008570
 20 C s       :     2.751249  s :     2.751249
      pz      :     0.921502  p :     2.714859
      px      :     0.825313
      py      :     0.968043
      dz2     :     0.103999  d :     0.562595
      dxz     :     0.084698
      dyz     :     0.145477
      dx2y2   :     0.125045
      dxy     :     0.103376
      f0      :     0.003688  f :     0.039187
      f+1     :     0.002047
      f-1     :     0.008085
      f+2     :     0.006716
      f-2     :     0.006116
      f+3     :     0.005504
      f-3     :     0.007032
 21 H s       :     0.708714  s :     0.708714
      pz      :     0.130492  p :     0.298213
      px      :     0.074083
      py      :     0.093639
      dz2     :     0.010061  d :     0.030490
      dxz     :     0.006129
      dyz     :     0.008694
      dx2y2   :     0.002779
      dxy     :     0.002827
 22 Aus       :     2.259070  s :     2.259070
      pz      :     2.232645  p :     6.848450
      px      :     2.309014
      py      :     2.306791
      dz2     :     1.887525  d :     9.538323
      dxz     :     1.942154
      dyz     :     1.942522
      dx2y2   :     2.042120
      dxy     :     1.724003
      f0      :     0.009928  f :     0.125680
      f+1     :     0.019499
      f-1     :     0.018890
      f+2     :     0.006341
      f-2     :     0.025046
      f+3     :     0.023054
      f-3     :     0.022921
      g0      :     0.000148  g :     0.001654
      g+1     :     0.000160
      g-1     :     0.000149
      g+2     :     0.000117
      g-2     :     0.000313
      g+3     :     0.000153
      g-3     :     0.000153
      g+4     :     0.000250
      g-4     :     0.000211
 23 Cls       :     5.687798  s :     5.687798
      pz      :     3.867807  p :    11.192361
      px      :     3.667562
      py      :     3.656993
      dz2     :     0.019549  d :     0.186290
      dxz     :     0.037990
      dyz     :     0.030152
      dx2y2   :     0.048886
      dxy     :     0.049713
      f0      :     0.000614  f :     0.005970
      f+1     :     0.000527
      f-1     :     0.000540
      f+2     :     0.000143
      f-2     :     0.001047
      f+3     :     0.001560
      f-3     :     0.001538
 24 Cls       :     5.700803  s :     5.700803
      pz      :     3.655280  p :    11.220685
      px      :     3.787106
      py      :     3.778299
      dz2     :     0.030618  d :     0.197387
      dxz     :     0.048175
      dyz     :     0.047959
      dx2y2   :     0.040644
      dxy     :     0.029991
      f0      :     0.000814  f :     0.006206
      f+1     :     0.001021
      f-1     :     0.001069
      f+2     :     0.001072
      f-2     :     0.001337
      f+3     :     0.000442
      f-3     :     0.000451
 25 Cls       :     5.685073  s :     5.685073
      pz      :     3.876325  p :    11.173698
      px      :     3.655250
      py      :     3.642123
      dz2     :     0.020313  d :     0.189447
      dxz     :     0.028504
      dyz     :     0.037712
      dx2y2   :     0.049103
      dxy     :     0.053815
      f0      :     0.000613  f :     0.005914
      f+1     :     0.000534
      f-1     :     0.000532
      f+2     :     0.000124
      f-2     :     0.001043
      f+3     :     0.001543
      f-3     :     0.001527
 26 O s       :     3.165675  s :     3.165675
      pz      :     1.421627  p :     4.301200
      px      :     1.476308
      py      :     1.403265
      dz2     :     0.112941  d :     0.540439
      dxz     :     0.098118
      dyz     :     0.128097
      dx2y2   :     0.107529
      dxy     :     0.093753
      f0      :     0.001712  f :     0.006871
      f+1     :     0.000933
      f-1     :     0.001100
      f+2     :     0.000416
      f-2     :     0.001020
      f+3     :     0.000790
      f-3     :     0.000899
 27 O s       :     3.165836  s :     3.165836
      pz      :     1.425044  p :     4.298909
      px      :     1.458042
      py      :     1.415823
      dz2     :     0.112206  d :     0.540428
      dxz     :     0.103491
      dyz     :     0.121122
      dx2y2   :     0.107162
      dxy     :     0.096447
      f0      :     0.001684  f :     0.006875
      f+1     :     0.000990
      f-1     :     0.001011
      f+2     :     0.000445
      f-2     :     0.001049
      f+3     :     0.000761
      f-3     :     0.000937
 28 C s       :     2.628017  s :     2.628017
      pz      :     0.928334  p :     2.559091
      px      :     0.840097
      py      :     0.790660
      dz2     :     0.127302  d :     0.628931
      dxz     :     0.068217
      dyz     :     0.118704
      dx2y2   :     0.184817
      dxy     :     0.129891
      f0      :     0.008994  f :     0.065438
      f+1     :     0.004768
      f-1     :     0.006427
      f+2     :     0.004356
      f-2     :     0.010533
      f+3     :     0.014298
      f-3     :     0.016062
 29 H s       :     0.691842  s :     0.691842
      pz      :     0.097494  p :     0.264019
      px      :     0.068674
      py      :     0.097851
      dz2     :     0.006335  d :     0.028976
      dxz     :     0.002613
      dyz     :     0.007361
      dx2y2   :     0.006122
      dxy     :     0.006544
 30 H s       :     0.704172  s :     0.704172
      pz      :     0.128013  p :     0.254554
      px      :     0.064717
      py      :     0.061824
      dz2     :     0.010444  d :     0.029304
      dxz     :     0.008711
      dyz     :     0.008968
      dx2y2   :     0.000450
      dxy     :     0.000731
 31 H s       :     0.694086  s :     0.694086
      pz      :     0.090423  p :     0.265069
      px      :     0.115957
      py      :     0.058689
      dz2     :     0.004787  d :     0.028907
      dxz     :     0.008315
      dyz     :     0.001276
      dx2y2   :     0.007331
      dxy     :     0.007198
 32 C s       :     2.628305  s :     2.628305
      pz      :     0.928510  p :     2.559286
      px      :     0.841933
      py      :     0.788843
      dz2     :     0.125682  d :     0.628333
      dxz     :     0.101017
      dyz     :     0.088017
      dx2y2   :     0.176696
      dxy     :     0.136922
      f0      :     0.009047  f :     0.065425
      f+1     :     0.004449
      f-1     :     0.006695
      f+2     :     0.004966
      f-2     :     0.009924
      f+3     :     0.015006
      f-3     :     0.015338
 33 H s       :     0.703905  s :     0.703905
      pz      :     0.128001  p :     0.254524
      px      :     0.067574
      py      :     0.058950
      dz2     :     0.010416  d :     0.029310
      dxz     :     0.009369
      dyz     :     0.008315
      dx2y2   :     0.000434
      dxy     :     0.000776
 34 H s       :     0.691809  s :     0.691809
      pz      :     0.089491  p :     0.263982
      px      :     0.073621
      py      :     0.100870
      dz2     :     0.004844  d :     0.028986
      dxz     :     0.002653
      dyz     :     0.006983
      dx2y2   :     0.007110
      dxy     :     0.007396
 35 H s       :     0.694877  s :     0.694877
      pz      :     0.098315  p :     0.264798
      px      :     0.110317
      py      :     0.056167
      dz2     :     0.006317  d :     0.028890
      dxz     :     0.008146
      dyz     :     0.001779
      dx2y2   :     0.006233
      dxy     :     0.006416


                      *****************************
                      * MAYER POPULATION ANALYSIS *
                      *****************************

  NA   - Mulliken gross atomic population
  ZA   - Total nuclear charge
  QA   - Mulliken gross atomic charge
  VA   - Mayer's total valence
  BVA  - Mayer's bonded valence
  FA   - Mayer's free valence

  ATOM       NA         ZA         QA         VA         BVA        FA
  0 C      4.6578     6.0000     1.3422    -1.2712    -1.2712    -0.0000
  1 C      6.5593     6.0000    -0.5593     3.5952     3.5952     0.0000
  2 C      5.6330     6.0000     0.3670     3.4518     3.4518     0.0000
  3 C      5.9080     6.0000     0.0920     3.3449     3.3449     0.0000
  4 C      5.6286     6.0000     0.3714     3.2876     3.2876     0.0000
  5 C      6.5396     6.0000    -0.5396     3.2858     3.2858     0.0000
  6 H      1.0554     1.0000    -0.0554     0.9994     0.9994     0.0000
  7 H      1.1781     1.0000    -0.1781     0.9725     0.9725     0.0000
  8 H      1.0691     1.0000    -0.0691     1.0469     1.0469     0.0000
  9 C      5.6342     6.0000     0.3658     0.1563     0.1563    -0.0000
 10 C      5.9282     6.0000     0.0718     3.2238     3.2238     0.0000
 11 C      5.7228     6.0000     0.2772     0.8442     0.8442     0.0000
 12 C      6.1109     6.0000    -0.1109     3.4057     3.4057     0.0000
 13 H      1.0242     1.0000    -0.0242     0.9572     0.9572     0.0000
 14 C      6.2755     6.0000    -0.2755     3.4255     3.4255     0.0000
 15 C      6.0366     6.0000    -0.0366     3.2602     3.2602     0.0000
 16 H      1.0091     1.0000    -0.0091     0.9237     0.9237     0.0000
 17 H      1.0172     1.0000    -0.0172     0.9707     0.9707    -0.0000
 18 H      1.0114     1.0000    -0.0114     0.9339     0.9339     0.0000
 19 C      5.2864     6.0000     0.7136     0.9798     0.9798     0.0000
 20 C      6.4115     6.0000    -0.4115     3.6168     3.6168    -0.0000
 21 H      0.9562     1.0000     0.0438     0.9636     0.9636    -0.0000
 22 Au    18.6044    19.0000     0.3956     3.0887     3.0887    -0.0000
 23 Cl    17.4338    17.0000    -0.4338     0.8221     0.8221    -0.0000
 24 Cl    17.3385    17.0000    -0.3385     0.9012     0.9012    -0.0000
 25 Cl    17.4638    17.0000    -0.4638     0.8385     0.8385    -0.0000
 26 O      8.3404     8.0000    -0.3404     1.6314     1.6314    -0.0000
 27 O      8.3347     8.0000    -0.3347     1.6292     1.6292     0.0000
 28 C      6.1833     6.0000    -0.1833     3.9564     3.9564     0.0000
 29 H      0.8886     1.0000     0.1114     1.0179     1.0179     0.0000
 30 H      0.9663     1.0000     0.0337     1.0598     1.0598     0.0000
 31 H      0.8816     1.0000     0.1184     0.9992     0.9992     0.0000
 32 C      6.1785     6.0000    -0.1785     3.9552     3.9552    -0.0000
 33 H      0.9668     1.0000     0.0332     1.0588     1.0588     0.0000
 34 H      0.8764     1.0000     0.1236     1.0170     1.0170    -0.0000
 35 H      0.8897     1.0000     0.1103     1.0076     1.0076    -0.0000

  Mayer bond orders larger than 0.100000
B(  0-C ,  1-C ) :   0.3590 B(  0-C ,  3-C ) :  -0.2438 B(  0-C ,  5-C ) :   0.5517 
B(  0-C ,  6-H ) :  -0.3939 B(  0-C ,  8-H ) :  -0.2847 B(  0-C ,  9-C ) :  -0.7957 
B(  0-C , 10-C ) :  -0.2053 B(  0-C , 11-C ) :  -0.3032 B(  0-C , 12-C ) :  -0.2282 
B(  0-C , 14-C ) :  -0.2873 B(  0-C , 15-C ) :   0.1088 B(  0-C , 19-C ) :   0.2866 
B(  0-C , 20-C ) :   0.1037 B(  1-C ,  2-C ) :   1.3626 B(  1-C ,  5-C ) :   0.2352 
B(  1-C ,  6-H ) :   1.1678 B(  1-C , 10-C ) :   0.4091 B(  1-C , 12-C ) :  -0.1291 
B(  1-C , 14-C ) :  -0.1735 B(  1-C , 19-C ) :   0.1351 B(  2-C ,  3-C ) :   1.2224 
B(  2-C ,  4-C ) :   0.1528 B(  2-C ,  6-H ) :   0.1318 B(  2-C ,  7-H ) :  -0.1116 
B(  2-C ,  9-C ) :  -0.2263 B(  2-C , 10-C ) :  -0.2496 B(  2-C , 12-C ) :   0.1042 
B(  2-C , 14-C ) :   0.1569 B(  2-C , 26-O ) :   0.8386 B(  3-C ,  4-C ) :   1.2260 
B(  3-C ,  7-H ) :   1.0775 B(  3-C ,  9-C ) :   0.2584 B(  3-C , 10-C ) :   0.1257 
B(  4-C ,  5-C ) :   1.3013 B(  4-C ,  7-H ) :  -0.1224 B(  4-C ,  9-C ) :  -0.1700 
B(  4-C , 10-C ) :  -0.1367 B(  4-C , 14-C ) :   0.1220 B(  4-C , 27-O ) :   0.8814 
B(  5-C ,  8-H ) :   1.1718 B(  5-C ,  9-C ) :  -0.1020 B(  5-C , 10-C ) :   0.3174 
B(  5-C , 11-C ) :  -0.1246 B(  5-C , 14-C ) :  -0.1209 B(  9-C , 10-C ) :   0.5725 
B(  9-C , 11-C ) :   0.5504 B(  9-C , 12-C ) :   0.1212 B(  9-C , 13-H ) :  -0.1401 
B(  9-C , 14-C ) :   0.2546 B(  9-C , 19-C ) :  -0.5784 B(  9-C , 20-C ) :   0.2289 
B( 10-C , 12-C ) :   1.2757 B( 10-C , 13-H ) :   1.0850 B( 11-C , 14-C ) :   1.3080 
B( 11-C , 15-C ) :  -0.2020 B( 11-C , 19-C ) :   0.4146 B( 11-C , 20-C ) :  -0.7754 
B( 12-C , 14-C ) :   0.1118 B( 12-C , 15-C ) :   1.1940 B( 12-C , 16-H ) :   1.1096 
B( 12-C , 18-H ) :  -0.1038 B( 14-C , 15-C ) :   1.2403 B( 14-C , 17-H ) :   1.0819 
B( 14-C , 19-C ) :  -0.2928 B( 14-C , 20-C ) :   0.1340 B( 15-C , 16-H ) :  -0.1026 
B( 15-C , 17-H ) :  -0.1247 B( 15-C , 18-H ) :   1.1212 B( 19-C , 20-C ) :   1.4791 
B( 19-C , 22-Au) :  -0.2817 B( 19-C , 23-Cl) :  -0.4190 B( 19-C , 25-Cl) :  -0.1117 
B( 20-C , 21-H ) :   0.9207 B( 20-C , 22-Au) :   0.9664 B( 20-C , 23-Cl) :   0.3252 
B( 22-Au, 23-Cl) :   0.8207 B( 22-Au, 24-Cl) :   0.7991 B( 22-Au, 25-Cl) :   0.8664 
B( 23-Cl, 25-Cl) :   0.1179 B( 26-O , 28-C ) :   0.9111 B( 27-O , 32-C ) :   0.8987 
B( 28-C , 29-H ) :   0.9817 B( 28-C , 30-H ) :   1.0917 B( 28-C , 31-H ) :   0.9750 
B( 32-C , 33-H ) :   1.0923 B( 32-C , 34-H ) :   0.9829 B( 32-C , 35-H ) :   0.9745 


-------
TIMINGS
-------

Total SCF time: 0 days 0 hours 30 min 31 sec 

Total time                  ....    1831.805 sec
Sum of individual times     ....    1829.462 sec  ( 99.9%)

Fock matrix formation       ....    1819.301 sec  ( 99.3%)
  XC integration            ....      10.616 sec  (  0.6% of F)
    Basis function eval.    ....       1.770 sec  ( 16.7% of XC)
    Density eval.           ....       3.797 sec  ( 35.8% of XC)
    XC-Functional eval.     ....       0.134 sec  (  1.3% of XC)
    XC-Potential eval.      ....       3.395 sec  ( 32.0% of XC)
Diagonalization             ....       3.138 sec  (  0.2%)
Density matrix formation    ....       0.182 sec  (  0.0%)
Population analysis         ....       0.304 sec  (  0.0%)
Initial guess               ....       2.207 sec  (  0.1%)
Orbital Transformation      ....       0.000 sec  (  0.0%)
Orbital Orthonormalization  ....       0.000 sec  (  0.0%)
DIIS solution               ....       3.138 sec  (  0.2%)
Grid generation             ....       1.191 sec  (  0.1%)

-------------------------   --------------------
FINAL SINGLE POINT ENERGY     -2284.765894587807
-------------------------   --------------------


                            ***************************************
                            *     ORCA property calculations      *
                            ***************************************

                                    ---------------------
                                    Active property flags
                                    ---------------------
   (+) Dipole Moment


------------------------------------------------------------------------------
                       ORCA ELECTRIC PROPERTIES CALCULATION
------------------------------------------------------------------------------

Dipole Moment Calculation                       ... on
Quadrupole Moment Calculation                   ... off
Polarizability Calculation                      ... off
GBWName                                         ... TMB26_C1.gbw
Electron density file                           ... TMB26_C1.scfp
The origin for moment calculation is the CENTER OF MASS  = (-0.429499, -0.138674 -0.003709)

-------------
DIPOLE MOMENT
-------------
                                X             Y             Z
Electronic contribution:   -300.21475    -110.51915     -12.44482
Nuclear contribution   :    303.49748     112.54151      11.37787
                        -----------------------------------------
Total Dipole Moment    :      3.28272       2.02237      -1.06695
                        -----------------------------------------
Magnitude (a.u.)       :      4.00058
Magnitude (Debye)      :     10.16866



--------------------
Rotational spectrum 
--------------------
 
Rotational constants in cm-1:     0.007370     0.004054     0.003244 
Rotational constants in MHz :   220.947502   121.548879    97.259691 

 Dipole components along the rotational axes: 
x,y,z [a.u.] :     3.405721     1.829449    -1.028982 
x,y,z [Debye]:     8.656654     4.650090    -2.615464 

 

Timings for individual modules:

Sum of individual times         ...     1836.814 sec (=  30.614 min)
GTO integral calculation        ...        4.572 sec (=   0.076 min)   0.2 %
SCF iterations                  ...     1832.242 sec (=  30.537 min)  99.8 %
                             ****ORCA TERMINATED NORMALLY****
TOTAL RUN TIME: 0 days 0 hours 30 minutes 37 seconds 542 msec
