
                                 *****************
                                 * O   R   C   A *
                                 *****************

           --- An Ab Initio, DFT and Semiempirical electronic structure package ---

                  #######################################################
                  #                        -***-                        #
                  #          Department of theory and spectroscopy      #
                  #               Directorship: Frank Neese             #
                  #        Max Planck Institute fuer Kohlenforschung    #
                  #                Kaiser Wilhelm Platz 1               #
                  #                 D-45470 Muelheim/Ruhr               #
                  #                      Germany                        #
                  #                                                     #
                  #                  All rights reserved                #
                  #                        -***-                        #
                  #######################################################


                         Program Version 4.2.0 -  RELEASE  -


 With contributions from (in alphabetic order):
   Daniel Aravena         : Magnetic Suceptibility
   Michael Atanasov       : Ab Initio Ligand Field Theory (pilot matlab implementation)
   Alexander A. Auer      : GIAO ZORA, VPT2
   Ute Becker             : Parallelization
   Giovanni Bistoni       : ED, misc. LED, open-shell LED, HFLED
   Martin Brehm           : Molecular dynamics
   Dmytro Bykov           : SCF Hessian
   Vijay G. Chilkuri      : MRCI spin determinant printing, contributions to CSF-ICE
   Dipayan Datta          : RHF DLPNO-CCSD density
   Achintya Kumar Dutta   : EOM-CC, STEOM-CC
   Dmitry Ganyushin       : Spin-Orbit,Spin-Spin,Magnetic field MRCI
   Miquel Garcia          : C-PCM Hessian, Gaussian charge scheme
   Yang Guo               : DLPNO-NEVPT2, CIM, IAO-localization
   Andreas Hansen         : Spin unrestricted coupled pair/coupled cluster methods
   Benjamin Helmich-Paris : CASSCF linear response (MC-RPA)
   Lee Huntington         : MR-EOM, pCC
   Robert Izsak           : Overlap fitted RIJCOSX, COSX-SCS-MP3, EOM
   Christian Kollmar      : KDIIS, OOCD, Brueckner-CCSD(T), CCSD density
   Simone Kossmann        : Meta GGA functionals, TD-DFT gradient, OOMP2, MP2 Hessian
   Martin Krupicka        : AUTO-CI
   Lucas Lang             : DCDCAS
   Dagmar Lenk            : GEPOL surface, SMD
   Dimitrios Liakos       : Extrapolation schemes; Compound Job, initial MDCI parallelization
   Dimitrios Manganas     : Further ROCIS development; embedding schemes
   Dimitrios Pantazis     : SARC Basis sets
   Taras Petrenko         : DFT Hessian,TD-DFT gradient, ASA, ECA, R-Raman, ABS, FL, XAS/XES, NRVS
   Peter Pinski           : DLPNO-MP2, DLPNO-MP2 Gradient
   Christoph Reimann      : Effective Core Potentials
   Marius Retegan         : Local ZFS, SOC
   Christoph Riplinger    : Optimizer, TS searches, QM/MM, DLPNO-CCSD(T), (RO)-DLPNO pert. Triples
   Tobias Risthaus        : Range-separated hybrids, TD-DFT gradient, RPA, STAB
   Michael Roemelt        : Original ROCIS implementation
   Masaaki Saitow         : Open-shell DLPNO-CCSD energy and density
   Barbara Sandhoefer     : DKH picture change effects
   Avijit Sen             : IP-ROCIS
   Kantharuban Sivalingam : CASSCF convergence, NEVPT2, FIC-MRCI
   Bernardo de Souza      : ESD, SOC TD-DFT
   Georgi Stoychev        : AutoAux, RI-MP2 NMR
   Willem Van den Heuvel  : Paramagnetic NMR
   Boris Wezisla          : Elementary symmetry handling
   Frank Wennmohs         : Technical directorship


 We gratefully acknowledge several colleagues who have allowed us to
 interface, adapt or use parts of their codes:
   Stefan Grimme, W. Hujo, H. Kruse,             : VdW corrections, initial TS optimization,
                  C. Bannwarth                     DFT functionals, gCP, sTDA/sTD-DF
   Ed Valeev, F. Pavosevic, A. Kumar             : LibInt (2-el integral package), F12 methods
   Garnet Chan, S. Sharma, J. Yang, R. Olivares  : DMRG
   Ulf Ekstrom                                   : XCFun DFT Library
   Mihaly Kallay                                 : mrcc  (arbitrary order and MRCC methods)
   Andreas Klamt, Michael Diedenhofen            : otool_cosmo (COSMO solvation model)
   Jiri Pittner, Ondrej Demel                    : Mk-CCSD
   Frank Weinhold                                : gennbo (NPA and NBO analysis)
   Christopher J. Cramer and Donald G. Truhlar   : smd solvation model
   Lars Goerigk                                  : TD-DFT with DH, B97 family of functionals
   V. Asgeirsson, H. Jonsson                     : NEB implementation
   FAccTs GmbH                                   : IRC, NEB, NEB-TS, Multilevel, MM, QM/MM, CI optimization
   S Lehtola, MJT Oliveira, MAL Marques          : LibXC Library


 Your calculation uses the libint2 library for the computation of 2-el integrals
 For citations please refer to: http://libint.valeyev.net

 Your ORCA version has been built with support for libXC version: 4.2.3
 For citations please refer to: https://tddft.org/programs/libxc/

 This ORCA versions uses:
   CBLAS   interface :  Fast vector & matrix operations
   LAPACKE interface :  Fast linear algebra routines
   SCALAPACK package :  Parallel linear algebra routines


Your calculation utilizes the DFT-NL dispersion correction.
Cite in your paper:
Vydrov, O. A.; Van Voorhis, T. J. Chem. Phys. 2010, 133, 244103
Hujo, W.; Grimme, S. J. Chem. Theory Comput. 2011, 7, 3866 
   

----- Orbital basis set information -----
Your calculation utilizes the basis: def2-TZVPPD
   F. Weigend and R. Ahlrichs, Phys. Chem. Chem. Phys. 7, 3297 (2005).
   D. Rappoport and F. Furche, J. Chem. Phys. 133 134105 (2010).

----- AuxJK basis set information -----
Your calculation utilizes the auxiliary basis: def2/JK
   H-Ba, Hf-Rn: F. Weigend, J. Comput. Chem. 29, 167 (2008).

cite the ECPs for Au [Def2-ECP] as follows:
Ce-Yb(ecp-28): M. Dolg, H. Stoll, H.Preuss, J. Chem. Phys., 1989, 90, 1730-1734.
Y-Cd(ecp-28), Hf-Hg(ecp-46): D. Andrae,U. Haeussermann, M. Dolg, H. Stoll, H. Preuss, Theor. Chim. Acta, 1990, 77, 123-141.
In-Sb(ecp-28), Tl-Bi(ecp-46): B. Metz, H. Stoll, M. Dolg, J. Chem. Phys., 2000, 113, 2563-2569.
Te-Xe(ecp-28), Po-Rn(ecp-46): K. A. Peterson, D. Figgen, E. Goll, H. Stoll, M. Dolg, J. Chem. Phys., 2003, 119, 11113-11123.
Rb(ecp-28), Cs(ecp-46): T. Leininger, A. Nicklass, W. Kuechle, H. Stoll, M. Dolg, A. Bergner, Chem. Phys. Lett., 1996, 255, 274-280.
Sr(ecp-28), Ba(ecp-46): M. Kaupp, P. V. Schleyer, H. Stoll and H. Preuss, J. Chem. Phys., 1991, 94, 1360-1366.
La(ecp-46): M. Dolg, H. Stoll, A. Savin, H. Preuss, Theor. Chim. Acta, 1989, 75, 173-194.
Lu(ecp-28): X. Cao, M. Dolg, J. Chem. Phys., 2001, 115, 7348-7355.

ECP parameters for Au [Def2-ECP] have been obtained from:
TURBOMOLE (7.0.2)

================================================================================
                                        WARNINGS
                       Please study these warnings very carefully!
================================================================================


INFO   : the flag for use of LIBINT has been found!

================================================================================
                                       INPUT FILE
================================================================================
NAME = TMB28_T1.in
|  1> #
|  2> # TMB28_T1 wB97X-V/Def2-TZVPPD
|  3> #
|  4> ! wb97x-v def2-tzvppd def2/jk grid4 nofinalgrid
|  5> 
|  6> *xyz 0 1
|  7> C       -0.472087   -1.270184   -0.544262 
|  8> C       -1.371263   -0.408913   -0.410763 
|  9> C       -0.283188   -2.679486   -0.928311 
| 10> H       -1.250337   -3.132270   -1.147533 
| 11> H        0.355340   -2.736203   -1.811412 
| 12> H        0.207850   -3.220295   -0.118359 
| 13> C       -2.087605    0.860649   -0.268000 
| 14> O       -3.384272    0.602181    0.322954 
| 15> C       -3.916162   -0.562532   -0.037107 
| 16> O       -3.286397   -1.359772   -0.698080 
| 17> C       -1.360806    1.791956    0.779385 
| 18> O       -0.796250    2.763376    0.375084 
| 19> C       -1.472551    1.401357    2.216606 
| 20> H       -1.203914    0.352090    2.355444 
| 21> H       -0.810137    2.031512    2.804683 
| 22> H       -2.503869    1.535124    2.549793 
| 23> C       -5.307153   -0.755812    0.455050 
| 24> H       -5.663745   -1.741165    0.170882 
| 25> H       -5.328847   -0.642840    1.539841 
| 26> H       -5.952574    0.015643    0.032531 
| 27> C       -2.259938    1.568911   -1.595082 
| 28> H       -2.813189    2.495499   -1.446777 
| 29> H       -1.275651    1.804221   -1.997337 
| 30> H       -2.786554    0.924255   -2.298279 
| 31> Au       1.278819   -0.204328   -0.045979 
| 32> Cl       1.126476   -1.118462    2.051374 
| 33> Cl       3.319842    0.694072    0.431966 
| 34> Cl       1.372434    0.585236   -2.189571 
| 35> *
| 36> 
| 37> %maxcore 5000
| 38> 
| 39> %pal
| 40> nprocs = 24
| 41> end
| 42> 
| 43> 
| 44>                          ****END OF INPUT****
================================================================================

                       ****************************
                       * Single Point Calculation *
                       ****************************

---------------------------------
CARTESIAN COORDINATES (ANGSTROEM)
---------------------------------
  C     -0.472087   -1.270184   -0.544262
  C     -1.371263   -0.408913   -0.410763
  C     -0.283188   -2.679486   -0.928311
  H     -1.250337   -3.132270   -1.147533
  H      0.355340   -2.736203   -1.811412
  H      0.207850   -3.220295   -0.118359
  C     -2.087605    0.860649   -0.268000
  O     -3.384272    0.602181    0.322954
  C     -3.916162   -0.562532   -0.037107
  O     -3.286397   -1.359772   -0.698080
  C     -1.360806    1.791956    0.779385
  O     -0.796250    2.763376    0.375084
  C     -1.472551    1.401357    2.216606
  H     -1.203914    0.352090    2.355444
  H     -0.810137    2.031512    2.804683
  H     -2.503869    1.535124    2.549793
  C     -5.307153   -0.755812    0.455050
  H     -5.663745   -1.741165    0.170882
  H     -5.328847   -0.642840    1.539841
  H     -5.952574    0.015643    0.032531
  C     -2.259938    1.568911   -1.595082
  H     -2.813189    2.495499   -1.446777
  H     -1.275651    1.804221   -1.997337
  H     -2.786554    0.924255   -2.298279
  Au     1.278819   -0.204328   -0.045979
  Cl     1.126476   -1.118462    2.051374
  Cl     3.319842    0.694072    0.431966
  Cl     1.372434    0.585236   -2.189571

----------------------------
CARTESIAN COORDINATES (A.U.)
----------------------------
  NO LB      ZA    FRAG     MASS         X           Y           Z
   0 C     6.0000    0    12.011   -0.892115   -2.400300   -1.028506
   1 C     6.0000    0    12.011   -2.591312   -0.772734   -0.776230
   2 C     6.0000    0    12.011   -0.535148   -5.063495   -1.754254
   3 H     1.0000    0     1.008   -2.362795   -5.919132   -2.168523
   4 H     1.0000    0     1.008    0.671495   -5.170674   -3.423073
   5 H     1.0000    0     1.008    0.392780   -6.085476   -0.223666
   6 C     6.0000    0    12.011   -3.945002    1.626391   -0.506447
   7 O     8.0000    0    15.999   -6.395347    1.137957    0.610295
   8 C     6.0000    0    12.011   -7.400474   -1.063031   -0.070122
   9 O     8.0000    0    15.999   -6.210390   -2.569597   -1.319180
  10 C     6.0000    0    12.011   -2.571551    3.386306    1.472824
  11 O     8.0000    0    15.999   -1.504694    5.222024    0.708806
  12 C     6.0000    0    12.011   -2.782718    2.648181    4.188778
  13 H     1.0000    0     1.008   -2.275068    0.665354    4.451144
  14 H     1.0000    0     1.008   -1.530937    3.839001    5.300083
  15 H     1.0000    0     1.008   -4.731627    2.900964    4.818410
  16 C     6.0000    0    12.011  -10.029066   -1.428278    0.859920
  17 H     1.0000    0     1.008  -10.702927   -3.290325    0.322920
  18 H     1.0000    0     1.008  -10.070061   -1.214792    2.909878
  19 H     1.0000    0     1.008  -11.248735    0.029561    0.061475
  20 C     6.0000    0    12.011   -4.270664    2.964812   -3.014268
  21 H     1.0000    0     1.008   -5.316157    4.715810   -2.734012
  22 H     1.0000    0     1.008   -2.410631    3.409484   -3.774420
  23 H     1.0000    0     1.008   -5.265824    1.746589   -4.343118
  24 Au   19.0000*   0   196.966    2.416618   -0.386124   -0.086888
  25 Cl   17.0000    0    35.453    2.128731   -2.113587    3.876535
  26 Cl   17.0000    0    35.453    6.273592    1.311606    0.816297
  27 Cl   17.0000    0    35.453    2.593524    1.105936   -4.137690
* core charge reduced due to ECP

--------------------------------
INTERNAL COORDINATES (ANGSTROEM)
--------------------------------
 C      0   0   0     0.000000000000     0.00000000     0.00000000
 C      1   0   0     1.252248856026     0.00000000     0.00000000
 C      1   2   0     1.472857289015   141.07702461     0.00000000
 H      3   1   2     1.090159999331   109.63750653   358.03721652
 H      3   1   2     1.091238837778   109.62088466   118.34092398
 H      3   1   2     1.090694702577   109.78852170   237.02701532
 C      2   1   3     1.464689320975   163.28020086   197.46470051
 O      7   2   1     1.448232593898   108.84248464   200.91155478
 C      8   7   2     1.330077918090   113.81988782   326.29476002
 O      9   8   7     1.212056467147   121.05277956     6.51185867
 C      7   2   1     1.578792213331   110.53729082   314.88136912
 O     11   7   2     1.194085253295   118.22385184   109.46910521
 C     11   7   2     1.493538994023   116.72315645   287.68231112
 H     13  11   7     1.091972099141   110.80825707    50.68828866
 H     13  11   7     1.087070461999   108.86757826   171.50893416
 H     13  11   7     1.092027474188   109.40404845   291.55296993
 C      9   8   7     1.488096647779   113.45346579   186.21059033
 H     17   9   8     1.085739306324   109.77423071   182.81323835
 H     17   9   8     1.090873418918   109.51315684   304.10736463
 H     17   9   8     1.090978180179   109.45482488    61.68024420
 C      7   2   1     1.514093906684   112.06737085    79.23555669
 H     21   7   2     1.089332990306   109.65604914   178.86896945
 H     21   7   2     1.089036629087   108.78077681   297.98435516
 H     21   7   2     1.089675084877   110.11383430    57.42518388
 Au     1   2   3     2.109503918380   102.90264063   179.02463072
 Cl    25   1   2     2.292976006463    87.67772502    98.14714879
 Cl    25   1   2     2.280642205510   172.45375702   181.42782011
 Cl    25   1   2     2.286298698942    89.25579408   276.20020864

---------------------------
INTERNAL COORDINATES (A.U.)
---------------------------
 C      0   0   0     0.000000000000     0.00000000     0.00000000
 C      1   0   0     2.366407389405     0.00000000     0.00000000
 C      1   2   0     2.783296910589   141.07702461     0.00000000
 H      3   1   2     2.060103840891   109.63750653   358.03721652
 H      3   1   2     2.062142550098   109.62088466   118.34092398
 H      3   1   2     2.061114283589   109.78852170   237.02701532
 C      2   1   3     2.767861687921   163.28020086   197.46470051
 O      7   2   1     2.736762980686   108.84248464   200.91155478
 C      8   7   2     2.513483001966   113.81988782   326.29476002
 O      9   8   7     2.290454781757   121.05277956     6.51185867
 C      7   2   1     2.983484905563   110.53729082   314.88136912
 O     11   7   2     2.256494109282   118.22385184   109.46910521
 C     11   7   2     2.822379669036   116.72315645   287.68231112
 H     13  11   7     2.063528213259   110.80825707    50.68828866
 H     13  11   7     2.054265461453   108.86757826   171.50893416
 H     13  11   7     2.063632856934   109.40404845   291.55296993
 C      9   8   7     2.812095125108   113.45346579   186.21059033
 H     17   9   8     2.051749941786   109.77423071   182.81323835
 H     17   9   8     2.061452008529   109.51315684   304.10736463
 H     17   9   8     2.061649978622   109.45482488    61.68024420
 C      7   2   1     2.861222824671   112.06737085    79.23555669
 H     21   7   2     2.058541020325   109.65604914   178.86896945
 H     21   7   2     2.057980978784   108.78077681   297.98435516
 H     21   7   2     2.059187485374   110.11383430    57.42518388
 Au     1   2   3     3.986384684172   102.90264063   179.02463072
 Cl    25   1   2     4.333096683867    87.67772502    98.14714879
 Cl    25   1   2     4.309789177876   172.45375702   181.42782011
 Cl    25   1   2     4.320478401341    89.25579408   276.20020864

---------------------
BASIS SET INFORMATION
---------------------
There are 5 groups of distinct atoms

 Group   1 Type C   : 12s6p3d1f contracted to 6s3p3d1f pattern {621111/411/111/1}
 Group   2 Type H   : 5s3p1d contracted to 3s3p1d pattern {311/111/1}
 Group   3 Type O   : 12s7p3d1f contracted to 6s4p3d1f pattern {621111/4111/111/1}
 Group   4 Type Au  : 8s8p6d2f1g contracted to 6s5p3d2f1g pattern {311111/41111/411/11/1}
 Group   5 Type Cl  : 15s10p4d1f contracted to 6s6p4d1f pattern {732111/511111/1111/1}

Atom   0C    basis set group =>   1
Atom   1C    basis set group =>   1
Atom   2C    basis set group =>   1
Atom   3H    basis set group =>   2
Atom   4H    basis set group =>   2
Atom   5H    basis set group =>   2
Atom   6C    basis set group =>   1
Atom   7O    basis set group =>   3
Atom   8C    basis set group =>   1
Atom   9O    basis set group =>   3
Atom  10C    basis set group =>   1
Atom  11O    basis set group =>   3
Atom  12C    basis set group =>   1
Atom  13H    basis set group =>   2
Atom  14H    basis set group =>   2
Atom  15H    basis set group =>   2
Atom  16C    basis set group =>   1
Atom  17H    basis set group =>   2
Atom  18H    basis set group =>   2
Atom  19H    basis set group =>   2
Atom  20C    basis set group =>   1
Atom  21H    basis set group =>   2
Atom  22H    basis set group =>   2
Atom  23H    basis set group =>   2
Atom  24Au   basis set group =>   4
Atom  25Cl   basis set group =>   5
Atom  26Cl   basis set group =>   5
Atom  27Cl   basis set group =>   5
----------------------------------
AUXILIARY/JK BASIS SET INFORMATION
----------------------------------
There are 5 groups of distinct atoms

 Group   1 Type C   : 14s10p6d2f1g contracted to 10s8p5d1f1g pattern {5111111111/31111111/21111/2/1}
 Group   2 Type H   : 4s2p2d contracted to 2s2p2d pattern {31/11/11}
 Group   3 Type O   : 14s10p6d2f1g contracted to 10s8p4d2f1g pattern {5111111111/31111111/3111/11/1}
 Group   4 Type Au  : 13s12p11d9f5g3h2i contracted to 13s11p10d8f4g3h2i pattern {1111111111111/21111111111/2111111111/21111111/2111/111/11}
 Group   5 Type Cl  : 16s12p10d4f1g contracted to 13s11p9d4f1g pattern {4111111111111/21111111111/211111111/1111/1}

Atom   0C    basis set group =>   1
Atom   1C    basis set group =>   1
Atom   2C    basis set group =>   1
Atom   3H    basis set group =>   2
Atom   4H    basis set group =>   2
Atom   5H    basis set group =>   2
Atom   6C    basis set group =>   1
Atom   7O    basis set group =>   3
Atom   8C    basis set group =>   1
Atom   9O    basis set group =>   3
Atom  10C    basis set group =>   1
Atom  11O    basis set group =>   3
Atom  12C    basis set group =>   1
Atom  13H    basis set group =>   2
Atom  14H    basis set group =>   2
Atom  15H    basis set group =>   2
Atom  16C    basis set group =>   1
Atom  17H    basis set group =>   2
Atom  18H    basis set group =>   2
Atom  19H    basis set group =>   2
Atom  20C    basis set group =>   1
Atom  21H    basis set group =>   2
Atom  22H    basis set group =>   2
Atom  23H    basis set group =>   2
Atom  24Au   basis set group =>   4
Atom  25Cl   basis set group =>   5
Atom  26Cl   basis set group =>   5
Atom  27Cl   basis set group =>   5
-------------------------
ECP PARAMETER INFORMATION
-------------------------

 Group 1, Type Au ECP Def2-ECP (replacing 60 core electrons, lmax=3)

Atom  24Au   ECP group =>   1



           ************************************************************
           *        Program running with 24 parallel MPI-processes    *
           *              working on a common directory               *
           ************************************************************
------------------------------------------------------------------------------
                           ORCA GTO INTEGRAL CALCULATION
------------------------------------------------------------------------------

                         BASIS SET STATISTICS AND STARTUP INFO

 # of primitive gaussian shells          ...  490
 # of primitive gaussian functions       ... 1162
 # of contracted shells                  ...  311
 # of contracted basis functions         ...  869
 Highest angular momentum                ...    4
 Maximum contraction depth               ...    7
 Integral package used                   ... LIBINT
 Integral threshhold            Thresh   ...  1.000e-10
 Primitive cut-off              TCut     ...  1.000e-11


------------------------------ INTEGRAL EVALUATION ----------------------------


 * One electron integrals 

   ECP integrals                         ... done
 Pre-screening matrix                    ... done
 Shell pair data                         ... done (   0.011 sec)



           ************************************************************
           *        Program running with 24 parallel MPI-processes    *
           *              working on a common directory               *
           ************************************************************
-------------------------------------------------------------------------------
                                 ORCA SCF
-------------------------------------------------------------------------------

------------
SCF SETTINGS
------------
Hamiltonian:
 Density Functional     Method          .... DFT(GTOs)
 Exchange Functional    Exchange        .... WB97X-V
 Correlation Functional Correlation     .... WB97X-V
 Gradients option       PostSCFGGA      .... off
 Hybrid DFT is turned on
   Fraction HF Exchange ScalHFX         ....  0.167000
   Scaling of DF-GGA-X  ScalDFX         ....  0.000000
   Scaling of DF-GGA-C  ScalDFC         ....  1.000000
   Scaling of DF-LDA-C  ScalLDAC        ....  1.000000
   Perturbative correction              ....  0.000000
   Density functional embedding theory  .... OFF
 Long-range corrected/Screened/Range-Separated Hybrid DFT is turned on
   Amount of maximum screened exact exchange              ....  0.833000
   Range separation parameter mu (erf(mu*r12)/r12)        ....  0.300000
   NL short-range parameter             ....  6.000000
   NL long-range parameter              ....  0.010000


General Settings:
 Integral files         IntName         .... TMB28_T1
 Hartree-Fock type      HFTyp           .... RHF
 Total Charge           Charge          ....    0
 Multiplicity           Mult            ....    1
 Number of Electrons    NEL             ....  160
 Basis Dimension        Dim             ....  869
 Nuclear Repulsion      ENuc            ....   1815.7180678798 Eh

Convergence Acceleration:
 DIIS                   CNVDIIS         .... on
   Start iteration      DIISMaxIt       ....    12
   Startup error        DIISStart       ....  0.200000
   # of expansion vecs  DIISMaxEq       ....     5
   Bias factor          DIISBfac        ....   1.050
   Max. coefficient     DIISMaxC        ....  10.000
 Newton-Raphson         CNVNR           .... off
 SOSCF                  CNVSOSCF        .... off
 Level Shifting         CNVShift        .... on
   Level shift para.    LevelShift      ....    0.2500
   Turn off err/grad.   ShiftErr        ....    0.0010
 Zerner damping         CNVZerner       .... off
 Static damping         CNVDamp         .... on
   Fraction old density DampFac         ....    0.7000
   Max. Damping (<1)    DampMax         ....    0.9800
   Min. Damping (>=0)   DampMin         ....    0.0000
   Turn off err/grad.   DampErr         ....    0.1000
 Fernandez-Rico         CNVRico         .... off

SCF Procedure:
 Maximum # iterations   MaxIter         ....   125
 SCF integral mode      SCFMode         .... Direct
   Integral package                     .... LIBINT
 Reset frequency        DirectResetFreq ....    20
 Integral Threshold     Thresh          ....  1.000e-10 Eh
 Primitive CutOff       TCut            ....  1.000e-11 Eh

Convergence Tolerance:
 Convergence Check Mode ConvCheckMode   .... Total+1el-Energy
 Convergence forced     ConvForced      .... 0
 Energy Change          TolE            ....  1.000e-06 Eh
 1-El. energy change                    ....  1.000e-03 Eh
 DIIS Error             TolErr          ....  1.000e-06


Diagonalization of the overlap matrix:
Smallest eigenvalue                        ... 1.885e-07
Time for diagonalization                   ...    0.133 sec
Threshold for overlap eigenvalues          ... 1.000e-08
Number of eigenvalues below threshold      ... 0
Time for construction of square roots      ...    0.093 sec
Total time needed                          ...    0.228 sec

-------------------
DFT GRID GENERATION
-------------------

General Integration Accuracy     IntAcc      ...  4.670
Radial Grid Type                 RadialGrid  ... Gauss-Chebyshev
Angular Grid (max. acc.)         AngularGrid ... Lebedev-302
Angular grid pruning method      GridPruning ... 3 (G Style)
Weight generation scheme         WeightScheme... Becke
Basis function cutoff            BFCut       ...    1.0000e-10
Integration weight cutoff        WCut        ...    1.0000e-14
Grids for H and He will be reduced by one unit

# of grid points (after initial pruning)     ... 147138 (   0.0 sec)
# of grid points (after weights+screening)   ... 130360 (   0.1 sec)
nearest neighbour list constructed           ...    0.0 sec
Grid point re-assignment to atoms done       ...    0.0 sec
Grid point division into batches done        ...    0.5 sec
Reduced shell lists constructed in    0.6 sec

Total number of grid points                  ...   130360
Total number of batches                      ...     2050
Average number of points per batch           ...       63
Average number of grid points per atom       ...     4656
Average number of shells per batch           ...   197.51 (63.51%)
Average number of basis functions per batch  ...   557.55 (64.16%)
Average number of large shells per batch     ...   155.85 (78.91%)
Average number of large basis fcns per batch ...   436.20 (78.23%)
Maximum spatial batch extension              ...   2.13,  2.30,  2.10 au
Average spatial batch extension              ...   0.05,  0.05,  0.05 au

Time for grid setup =    0.749 sec

------------------------------
INITIAL GUESS: MODEL POTENTIAL
------------------------------
Loading Hartree-Fock densities                     ... done
  calling /sw/apps/orca/orca_4_2_0_linux_x86-64_openmpi314/orca TMB28_T1_atom79.inp > TMB28_T1_atom79.out in order to generate an atomic fitting density for atom 24 (Au with ECP) on-the-fly... 
    atom 24 (Au), assumed electronic state with S=2: 1s2 2s2 2p6 3s2 3p6 4s2 3d10 4p6 5s2 4d10 5p6 6s1 4f14 5d10           ... done
Calculating cut-offs                               ... done
Setting up the integral package                    ... done
Initializing the effective Hamiltonian             ... done
Starting the Coulomb interaction                   ... done (   0.1 sec)
Reading the grid                                   ... done
Mapping shells                                     ... done
Starting the XC term evaluation                    ... done (   0.4 sec)
  promolecular density results
     # of electrons  =    219.995963809
     EX              =   -404.360828894
     EC              =    -12.705488019
     EX+EC           =   -417.066316913
Transforming the Hamiltonian                       ... done (   0.1 sec)
Diagonalizing the Hamiltonian                      ... done (   0.1 sec)
Back transforming the eigenvectors                 ... done (   0.0 sec)
Now organizing SCF variables                       ... done
                      ------------------
                      INITIAL GUESS DONE (   2.5 sec)
                      ------------------
--------------
SCF ITERATIONS
--------------
ITER       Energy         Delta-E        Max-DP      RMS-DP      [F,P]     Damp
               ***  Starting incremental Fock matrix formation  ***
  0  -2092.0272111217   0.000000000000 2.32632898  0.00867348  0.4463090 0.7000
  1  -2092.2845329491  -0.257321827315 4.40002431  0.01065135  0.3348139 0.7000
  2  -2092.4091218390  -0.124588889983 5.28192558  0.01184892  0.2468223 0.7000
                               ***Turning on DIIS***
  3  -2092.4862378025  -0.077115963439 4.61594070  0.01031315  0.1777594 0.7000
  4  -2092.5401731407  -0.053935338236 4.21541295  0.00946657  0.1259658 0.7000
  5  -2092.5783715803  -0.038198439562 9.90054775  0.02268223  0.0876966 0.0000
  6  -2092.6703050054  -0.091933425114 0.28278722  0.00067767  0.0031756 0.0000
  7  -2092.6707616218  -0.000456616445 1.17383418  0.00257273  0.0016410 0.0000
  8  -2092.6709125161  -0.000150894277 0.13410789  0.00042738  0.0014590 0.0000
  9  -2092.6709729098  -0.000060393729 1.11477753  0.00232764  0.0005365 0.0000
 10  -2092.6709993728  -0.000026462998 0.32307099  0.00072276  0.0002816 0.0000
 11  -2092.6710030381  -0.000003665278 0.53725887  0.00111220  0.0001899 0.0000
 12  -2092.6710037319  -0.000000693766 0.35046858  0.00070458  0.0001332 0.0000
                 **** Energy Check signals convergence ****

               *****************************************************
               *                     SUCCESS                       *
               *           SCF CONVERGED AFTER  13 CYCLES          *
               *****************************************************


Setting up the DFT-NL grid :

General Integration Accuracy     IntAcc      ...  4.340
Radial Grid Type                 RadialGrid  ... Gauss-Chebyshev
Angular Grid (max. acc.)         AngularGrid ... Lebedev-110
Angular grid pruning method      GridPruning ... 3 (G Style)
Weight generation scheme         WeightScheme... Becke
Basis function cutoff            BFCut       ...    1.0000e-10
Integration weight cutoff        WCut        ...    1.0000e-14
Grids for H and He will be reduced by one unit

# of grid points (after initial pruning)     ...  38642 (   0.0 sec)
# of grid points (after weights+screening)   ...  34945 (   0.0 sec)
nearest neighbour list constructed           ...    0.0 sec
Grid point re-assignment to atoms done       ...    0.0 sec
Grid point division into batches done        ...    0.0 sec
Reduced shell lists constructed in    0.1 sec

Total number of grid points                  ...    34945
Total number of batches                      ...      559
Average number of points per batch           ...       62
Average number of grid points per atom       ...     1248
Average number of shells per batch           ...   199.40 (64.12%)
Average number of basis functions per batch  ...   566.12 (65.15%)
Average number of large shells per batch     ...   158.08 (79.28%)
Average number of large basis fcns per batch ...   443.76 (78.39%)
Maximum spatial batch extension              ...   3.24,  2.65,  2.57 au
Average spatial batch extension              ...   0.08,  0.07,  0.08 au

Final grid set up in    0.1 sec

-------------------------------------------------------------------------------
                         DFT-NL dispersion correction                          
-------------------------------------------------------------------------------

SC Energy -2092.671003992 
NL    Energy 0.605740824 
SC+NL Energy -2092.065263169 
NL done in    0.3 sec
-------------------------------------------------------------------------------

----------------
TOTAL SCF ENERGY
----------------

Total Energy       :        -2092.06526317 Eh          -56927.98997 eV

Components:
Nuclear Repulsion  :         1815.71806788 Eh           49408.20049 eV
Electronic Energy  :        -3907.78333105 Eh         -106336.19047 eV
One Electron Energy:        -6543.83725851 Eh         -178066.86455 eV
Two Electron Energy:         2636.05392746 Eh           71730.67408 eV

Virial components:
Potential Energy   :        -4089.95045677 Eh         -111293.20997 eV
Kinetic Energy     :         1997.88519360 Eh           54365.21999 eV
Virial Ratio       :            2.04713988


DFT components:
N(Alpha)           :       80.000113091618 electrons
N(Beta)            :       80.000113091618 electrons
N(Total)           :      160.000226183236 electrons
E(X)               :     -120.159367319544 Eh       
E(C)               :       -7.343374037638 Eh       
NL Energy, E(C,NL) :        0.605740823618 Eh       
E(XC)              :     -126.897000533565 Eh       
DFET-embed. en.    :        0.000000000000 Eh       

---------------
SCF CONVERGENCE
---------------

  Last Energy change         ...   -2.6056e-07  Tolerance :   1.0000e-06
  Last MAX-Density change    ...    6.9435e-01  Tolerance :   1.0000e-05
  Last RMS-Density change    ...    1.7755e-03  Tolerance :   1.0000e-06
  Last DIIS Error            ...    3.2364e-05  Tolerance :   1.0000e-06

             **** THE GBW FILE WAS UPDATED (TMB28_T1.gbw) ****
             **** DENSITY FILE WAS UPDATED (TMB28_T1.scfp) ****
             **** ENERGY FILE WAS UPDATED (TMB28_T1.en.tmp) ****
             **** THE GBW FILE WAS UPDATED (TMB28_T1.gbw) ****
             **** DENSITY FILE WAS UPDATED (TMB28_T1.scfp) ****
----------------
ORBITAL ENERGIES
----------------

  NO   OCC          E(Eh)            E(eV) 
   0   2.0000    -101.489873     -2761.6798 
   1   2.0000    -101.487825     -2761.6241 
   2   2.0000    -101.475835     -2761.2978 
   3   2.0000     -19.329179      -525.9737 
   4   2.0000     -19.278655      -524.5989 
   5   2.0000     -19.249936      -523.8174 
   6   2.0000     -10.471192      -284.9356 
   7   2.0000     -10.422038      -283.5981 
   8   2.0000     -10.410384      -283.2810 
   9   2.0000     -10.387211      -282.6504 
  10   2.0000     -10.353135      -281.7231 
  11   2.0000     -10.331810      -281.1428 
  12   2.0000     -10.315148      -280.6894 
  13   2.0000     -10.299964      -280.2763 
  14   2.0000     -10.297711      -280.2150 
  15   2.0000      -9.529172      -259.3019 
  16   2.0000      -9.527012      -259.2432 
  17   2.0000      -9.514897      -258.9135 
  18   2.0000      -7.283004      -198.1806 
  19   2.0000      -7.281027      -198.1268 
  20   2.0000      -7.275894      -197.9871 
  21   2.0000      -7.275407      -197.9739 
  22   2.0000      -7.273679      -197.9269 
  23   2.0000      -7.273130      -197.9119 
  24   2.0000      -7.269278      -197.8071 
  25   2.0000      -7.261450      -197.5941 
  26   2.0000      -7.260738      -197.5747 
  27   2.0000      -4.387395      -119.3871 
  28   2.0000      -2.570917       -69.9582 
  29   2.0000      -2.569662       -69.9241 
  30   2.0000      -2.545903       -69.2775 
  31   2.0000      -1.324206       -36.0335 
  32   2.0000      -1.232117       -33.5276 
  33   2.0000      -1.219402       -33.1816 
  34   2.0000      -1.026020       -27.9194 
  35   2.0000      -0.972911       -26.4742 
  36   2.0000      -0.933621       -25.4051 
  37   2.0000      -0.923303       -25.1244 
  38   2.0000      -0.915218       -24.9043 
  39   2.0000      -0.903815       -24.5940 
  40   2.0000      -0.896707       -24.4006 
  41   2.0000      -0.879481       -23.9319 
  42   2.0000      -0.831385       -22.6231 
  43   2.0000      -0.777239       -21.1497 
  44   2.0000      -0.738425       -20.0936 
  45   2.0000      -0.685847       -18.6628 
  46   2.0000      -0.666067       -18.1246 
  47   2.0000      -0.655643       -17.8409 
  48   2.0000      -0.635010       -17.2795 
  49   2.0000      -0.623860       -16.9761 
  50   2.0000      -0.613424       -16.6921 
  51   2.0000      -0.599146       -16.3036 
  52   2.0000      -0.592081       -16.1113 
  53   2.0000      -0.587470       -15.9859 
  54   2.0000      -0.578629       -15.7453 
  55   2.0000      -0.568382       -15.4665 
  56   2.0000      -0.566387       -15.4122 
  57   2.0000      -0.561612       -15.2822 
  58   2.0000      -0.554986       -15.1019 
  59   2.0000      -0.551602       -15.0098 
  60   2.0000      -0.545543       -14.8450 
  61   2.0000      -0.535470       -14.5709 
  62   2.0000      -0.533467       -14.5164 
  63   2.0000      -0.526954       -14.3392 
  64   2.0000      -0.517848       -14.0914 
  65   2.0000      -0.511944       -13.9307 
  66   2.0000      -0.504088       -13.7169 
  67   2.0000      -0.486492       -13.2381 
  68   2.0000      -0.481545       -13.1035 
  69   2.0000      -0.455409       -12.3923 
  70   2.0000      -0.444086       -12.0842 
  71   2.0000      -0.431322       -11.7369 
  72   2.0000      -0.418252       -11.3812 
  73   2.0000      -0.415895       -11.3171 
  74   2.0000      -0.396351       -10.7853 
  75   2.0000      -0.384153       -10.4533 
  76   2.0000      -0.381810       -10.3896 
  77   2.0000      -0.378368       -10.2959 
  78   2.0000      -0.375696       -10.2232 
  79   2.0000      -0.367657       -10.0045 
  80   0.0000      -0.074751        -2.0341 
  81   0.0000       0.003864         0.1051 
  82   0.0000       0.028795         0.7836 
  83   0.0000       0.031713         0.8630 
  84   0.0000       0.046024         1.2524 
  85   0.0000       0.051812         1.4099 
  86   0.0000       0.055085         1.4989 
  87   0.0000       0.061822         1.6823 
  88   0.0000       0.064210         1.7472 
  89   0.0000       0.074908         2.0383 
  90   0.0000       0.075540         2.0555 
  91   0.0000       0.083087         2.2609 
  92   0.0000       0.084771         2.3067 
  93   0.0000       0.091387         2.4868 
  94   0.0000       0.093854         2.5539 
  95   0.0000       0.100465         2.7338 
  96   0.0000       0.105645         2.8747 
  97   0.0000       0.107692         2.9304 
  98   0.0000       0.110052         2.9947 
  99   0.0000       0.118618         3.2278 
 100   0.0000       0.118863         3.2344 
 101   0.0000       0.126813         3.4508 
 102   0.0000       0.128473         3.4959 
 103   0.0000       0.131786         3.5861 
 104   0.0000       0.136731         3.7206 
 105   0.0000       0.142494         3.8774 
 106   0.0000       0.145358         3.9554 
 107   0.0000       0.148738         4.0474 
 108   0.0000       0.153254         4.1703 
 109   0.0000       0.155362         4.2276 
 110   0.0000       0.162521         4.4224 
 111   0.0000       0.167609         4.5609 
 112   0.0000       0.175486         4.7752 
 113   0.0000       0.177638         4.8338 
 114   0.0000       0.177964         4.8427 
 115   0.0000       0.181132         4.9288 
 116   0.0000       0.186612         5.0780 
 117   0.0000       0.191219         5.2033 
 118   0.0000       0.200504         5.4560 
 119   0.0000       0.204345         5.5605 
 120   0.0000       0.208281         5.6676 
 121   0.0000       0.211876         5.7654 
 122   0.0000       0.215575         5.8661 
 123   0.0000       0.220243         5.9931 
 124   0.0000       0.224482         6.1085 
 125   0.0000       0.229691         6.2502 
 126   0.0000       0.233625         6.3573 
 127   0.0000       0.242327         6.5941 
 128   0.0000       0.243560         6.6276 
 129   0.0000       0.247791         6.7427 
 130   0.0000       0.249599         6.7919 
 131   0.0000       0.254752         6.9321 
 132   0.0000       0.259181         7.0527 
 133   0.0000       0.259846         7.0708 
 134   0.0000       0.262776         7.1505 
 135   0.0000       0.266621         7.2551 
 136   0.0000       0.274419         7.4673 
 137   0.0000       0.278537         7.5794 
 138   0.0000       0.278879         7.5887 
 139   0.0000       0.284206         7.7336 
 140   0.0000       0.285237         7.7617 
 141   0.0000       0.288571         7.8524 
 142   0.0000       0.292176         7.9505 
 143   0.0000       0.295488         8.0406 
 144   0.0000       0.296969         8.0809 
 145   0.0000       0.298288         8.1168 
 146   0.0000       0.304683         8.2909 
 147   0.0000       0.307747         8.3742 
 148   0.0000       0.307903         8.3785 
 149   0.0000       0.310561         8.4508 
 150   0.0000       0.310927         8.4607 
 151   0.0000       0.314290         8.5523 
 152   0.0000       0.315131         8.5752 
 153   0.0000       0.318735         8.6732 
 154   0.0000       0.323215         8.7951 
 155   0.0000       0.325943         8.8694 
 156   0.0000       0.327577         8.9138 
 157   0.0000       0.330246         8.9865 
 158   0.0000       0.334231         9.0949 
 159   0.0000       0.341715         9.2985 
 160   0.0000       0.342581         9.3221 
 161   0.0000       0.344891         9.3850 
 162   0.0000       0.346643         9.4326 
 163   0.0000       0.350528         9.5383 
 164   0.0000       0.352869         9.6021 
 165   0.0000       0.357670         9.7327 
 166   0.0000       0.359301         9.7771 
 167   0.0000       0.361081         9.8255 
 168   0.0000       0.364596         9.9211 
 169   0.0000       0.372173        10.1273 
 170   0.0000       0.373895        10.1742 
 171   0.0000       0.375784        10.2256 
 172   0.0000       0.378320        10.2946 
 173   0.0000       0.381543        10.3823 
 174   0.0000       0.383833        10.4446 
 175   0.0000       0.385160        10.4807 
 176   0.0000       0.390565        10.6278 
 177   0.0000       0.392502        10.6805 
 178   0.0000       0.399373        10.8675 
 179   0.0000       0.401858        10.9351 
 180   0.0000       0.402951        10.9649 
 181   0.0000       0.405584        11.0365 
 182   0.0000       0.408778        11.1234 
 183   0.0000       0.414001        11.2655 
 184   0.0000       0.416001        11.3200 
 185   0.0000       0.419089        11.4040 
 186   0.0000       0.420135        11.4324 
 187   0.0000       0.422194        11.4885 
 188   0.0000       0.424769        11.5585 
 189   0.0000       0.428782        11.6678 
 190   0.0000       0.430411        11.7121 
 191   0.0000       0.433999        11.8097 
 192   0.0000       0.438586        11.9345 
 193   0.0000       0.446698        12.1553 
 194   0.0000       0.450753        12.2656 
 195   0.0000       0.451858        12.2957 
 196   0.0000       0.457240        12.4421 
 197   0.0000       0.460192        12.5225 
 198   0.0000       0.462971        12.5981 
 199   0.0000       0.464401        12.6370 
 200   0.0000       0.471000        12.8166 
 201   0.0000       0.474237        12.9046 
 202   0.0000       0.480600        13.0778 
 203   0.0000       0.482577        13.1316 
 204   0.0000       0.490704        13.3527 
 205   0.0000       0.493005        13.4153 
 206   0.0000       0.495696        13.4886 
 207   0.0000       0.498811        13.5733 
 208   0.0000       0.504397        13.7253 
 209   0.0000       0.508663        13.8414 
 210   0.0000       0.512242        13.9388 
 211   0.0000       0.514291        13.9946 
 212   0.0000       0.516964        14.0673 
 213   0.0000       0.524286        14.2665 
 214   0.0000       0.525080        14.2881 
 215   0.0000       0.530278        14.4296 
 216   0.0000       0.534862        14.5543 
 217   0.0000       0.542525        14.7628 
 218   0.0000       0.545347        14.8396 
 219   0.0000       0.547184        14.8896 
 220   0.0000       0.552156        15.0249 
 221   0.0000       0.557246        15.1634 
 222   0.0000       0.558188        15.1891 
 223   0.0000       0.564960        15.3733 
 224   0.0000       0.567202        15.4344 
 225   0.0000       0.572359        15.5747 
 226   0.0000       0.575147        15.6505 
 227   0.0000       0.581175        15.8146 
 228   0.0000       0.588168        16.0049 
 229   0.0000       0.592372        16.1193 
 230   0.0000       0.596281        16.2256 
 231   0.0000       0.598917        16.2974 
 232   0.0000       0.607073        16.5193 
 233   0.0000       0.609415        16.5830 
 234   0.0000       0.616555        16.7773 
 235   0.0000       0.618694        16.8355 
 236   0.0000       0.623373        16.9629 
 237   0.0000       0.627316        17.0701 
 238   0.0000       0.634276        17.2595 
 239   0.0000       0.638582        17.3767 
 240   0.0000       0.642084        17.4720 
 241   0.0000       0.645081        17.5535 
 242   0.0000       0.650699        17.7064 
 243   0.0000       0.651328        17.7235 
 244   0.0000       0.656250        17.8575 
 245   0.0000       0.660415        17.9708 
 246   0.0000       0.663910        18.0659 
 247   0.0000       0.666271        18.1302 
 248   0.0000       0.676325        18.4037 
 249   0.0000       0.676501        18.4085 
 250   0.0000       0.683138        18.5891 
 251   0.0000       0.688058        18.7230 
 252   0.0000       0.690408        18.7870 
 253   0.0000       0.694582        18.9005 
 254   0.0000       0.698995        19.0206 
 255   0.0000       0.703925        19.1548 
 256   0.0000       0.706239        19.2177 
 257   0.0000       0.712366        19.3845 
 258   0.0000       0.713516        19.4158 
 259   0.0000       0.718296        19.5458 
 260   0.0000       0.719627        19.5821 
 261   0.0000       0.725664        19.7463 
 262   0.0000       0.727976        19.8092 
 263   0.0000       0.732331        19.9277 
 264   0.0000       0.732993        19.9458 
 265   0.0000       0.737337        20.0640 
 266   0.0000       0.741012        20.1640 
 267   0.0000       0.743028        20.2188 
 268   0.0000       0.747619        20.3437 
 269   0.0000       0.751011        20.4360 
 270   0.0000       0.755162        20.5490 
 271   0.0000       0.756118        20.5750 
 272   0.0000       0.761781        20.7291 
 273   0.0000       0.762560        20.7503 
 274   0.0000       0.766627        20.8610 
 275   0.0000       0.770186        20.9578 
 276   0.0000       0.773458        21.0469 
 277   0.0000       0.778285        21.1782 
 278   0.0000       0.781739        21.2722 
 279   0.0000       0.782826        21.3018 
 280   0.0000       0.787387        21.4259 
 281   0.0000       0.791065        21.5260 
 282   0.0000       0.795319        21.6417 
 283   0.0000       0.799614        21.7586 
 284   0.0000       0.801332        21.8053 
 285   0.0000       0.802972        21.8500 
 286   0.0000       0.807853        21.9828 
 287   0.0000       0.809797        22.0357 
 288   0.0000       0.813828        22.1454 
 289   0.0000       0.821175        22.3453 
 290   0.0000       0.826007        22.4768 
 291   0.0000       0.827654        22.5216 
 292   0.0000       0.831863        22.6361 
 293   0.0000       0.835923        22.7466 
 294   0.0000       0.840895        22.8819 
 295   0.0000       0.845972        23.0201 
 296   0.0000       0.852148        23.1881 
 297   0.0000       0.852777        23.2052 
 298   0.0000       0.862865        23.4798 
 299   0.0000       0.863554        23.4985 
 300   0.0000       0.866953        23.5910 
 301   0.0000       0.873824        23.7779 
 302   0.0000       0.876063        23.8389 
 303   0.0000       0.879023        23.9194 
 304   0.0000       0.881723        23.9929 
 305   0.0000       0.891274        24.2528 
 306   0.0000       0.893883        24.3238 
 307   0.0000       0.903348        24.5813 
 308   0.0000       0.912182        24.8217 
 309   0.0000       0.916703        24.9448 
 310   0.0000       0.919243        25.0139 
 311   0.0000       0.921448        25.0739 
 312   0.0000       0.933537        25.4028 
 313   0.0000       0.938095        25.5269 
 314   0.0000       0.942097        25.6358 
 315   0.0000       0.944093        25.6901 
 316   0.0000       0.951868        25.9016 
 317   0.0000       0.953793        25.9540 
 318   0.0000       0.959410        26.1069 
 319   0.0000       0.964940        26.2573 
 320   0.0000       0.976230        26.5646 
 321   0.0000       0.986486        26.8436 
 322   0.0000       0.988851        26.9080 
 323   0.0000       0.995475        27.0882 
 324   0.0000       1.004918        27.3452 
 325   0.0000       1.007889        27.4261 
 326   0.0000       1.010803        27.5054 
 327   0.0000       1.014514        27.6063 
 328   0.0000       1.017915        27.6989 
 329   0.0000       1.030162        28.0321 
 330   0.0000       1.034842        28.1595 
 331   0.0000       1.044306        28.4170 
 332   0.0000       1.051486        28.6124 
 333   0.0000       1.064271        28.9603 
 334   0.0000       1.067935        29.0600 
 335   0.0000       1.072871        29.1943 
 336   0.0000       1.079689        29.3798 
 337   0.0000       1.082513        29.4567 
 338   0.0000       1.093472        29.7549 
 339   0.0000       1.099498        29.9189 
 340   0.0000       1.105124        30.0720 
 341   0.0000       1.111342        30.2412 
 342   0.0000       1.120101        30.4795 
 343   0.0000       1.122117        30.5343 
 344   0.0000       1.138306        30.9749 
 345   0.0000       1.139258        31.0008 
 346   0.0000       1.143385        31.1131 
 347   0.0000       1.154029        31.4027 
 348   0.0000       1.158388        31.5213 
 349   0.0000       1.171344        31.8739 
 350   0.0000       1.172431        31.9035 
 351   0.0000       1.181049        32.1380 
 352   0.0000       1.189987        32.3812 
 353   0.0000       1.194690        32.5092 
 354   0.0000       1.205884        32.8138 
 355   0.0000       1.221616        33.2418 
 356   0.0000       1.231068        33.4991 
 357   0.0000       1.235671        33.6243 
 358   0.0000       1.246000        33.9054 
 359   0.0000       1.250154        34.0184 
 360   0.0000       1.258652        34.2497 
 361   0.0000       1.268734        34.5240 
 362   0.0000       1.278856        34.7994 
 363   0.0000       1.283941        34.9378 
 364   0.0000       1.284516        34.9535 
 365   0.0000       1.295532        35.2532 
 366   0.0000       1.300164        35.3793 
 367   0.0000       1.306346        35.5475 
 368   0.0000       1.323681        36.0192 
 369   0.0000       1.324610        36.0445 
 370   0.0000       1.326529        36.0967 
 371   0.0000       1.335033        36.3281 
 372   0.0000       1.336580        36.3702 
 373   0.0000       1.347537        36.6684 
 374   0.0000       1.353537        36.8316 
 375   0.0000       1.357571        36.9414 
 376   0.0000       1.367918        37.2229 
 377   0.0000       1.373005        37.3614 
 378   0.0000       1.375887        37.4398 
 379   0.0000       1.385373        37.6979 
 380   0.0000       1.389698        37.8156 
 381   0.0000       1.396502        38.0008 
 382   0.0000       1.402426        38.1619 
 383   0.0000       1.407634        38.3037 
 384   0.0000       1.412750        38.4429 
 385   0.0000       1.429738        38.9051 
 386   0.0000       1.433494        39.0074 
 387   0.0000       1.437440        39.1147 
 388   0.0000       1.445467        39.3332 
 389   0.0000       1.445929        39.3457 
 390   0.0000       1.455376        39.6028 
 391   0.0000       1.461203        39.7614 
 392   0.0000       1.470198        40.0061 
 393   0.0000       1.472102        40.0579 
 394   0.0000       1.481010        40.3003 
 395   0.0000       1.495170        40.6856 
 396   0.0000       1.504795        40.9476 
 397   0.0000       1.516237        41.2589 
 398   0.0000       1.522661        41.4337 
 399   0.0000       1.528852        41.6022 
 400   0.0000       1.542035        41.9609 
 401   0.0000       1.546124        42.0722 
 402   0.0000       1.563393        42.5421 
 403   0.0000       1.575862        42.8814 
 404   0.0000       1.580291        43.0019 
 405   0.0000       1.584061        43.1045 
 406   0.0000       1.587721        43.2041 
 407   0.0000       1.604910        43.6718 
 408   0.0000       1.607527        43.7430 
 409   0.0000       1.612753        43.8852 
 410   0.0000       1.626601        44.2621 
 411   0.0000       1.640274        44.6341 
 412   0.0000       1.659869        45.1673 
 413   0.0000       1.661226        45.2043 
 414   0.0000       1.672165        45.5019 
 415   0.0000       1.682900        45.7940 
 416   0.0000       1.685874        45.8750 
 417   0.0000       1.692716        46.0611 
 418   0.0000       1.700186        46.2644 
 419   0.0000       1.705077        46.3975 
 420   0.0000       1.710240        46.5380 
 421   0.0000       1.719941        46.8020 
 422   0.0000       1.733844        47.1803 
 423   0.0000       1.739009        47.3208 
 424   0.0000       1.742847        47.4253 
 425   0.0000       1.747192        47.5435 
 426   0.0000       1.752454        47.6867 
 427   0.0000       1.760207        47.8977 
 428   0.0000       1.766509        48.0691 
 429   0.0000       1.768617        48.1265 
 430   0.0000       1.780309        48.4447 
 431   0.0000       1.789874        48.7049 
 432   0.0000       1.798228        48.9323 
 433   0.0000       1.800381        48.9909 
 434   0.0000       1.810232        49.2589 
 435   0.0000       1.820543        49.5395 
 436   0.0000       1.826933        49.7134 
 437   0.0000       1.839734        50.0617 
 438   0.0000       1.859070        50.5879 
 439   0.0000       1.870491        50.8987 
 440   0.0000       1.874092        50.9966 
 441   0.0000       1.874862        51.0176 
 442   0.0000       1.901820        51.7512 
 443   0.0000       1.910029        51.9745 
 444   0.0000       1.915890        52.1340 
 445   0.0000       1.921379        52.2834 
 446   0.0000       1.933719        52.6192 
 447   0.0000       1.953209        53.1495 
 448   0.0000       1.955328        53.2072 
 449   0.0000       1.986096        54.0444 
 450   0.0000       1.988735        54.1162 
 451   0.0000       2.010758        54.7155 
 452   0.0000       2.020866        54.9906 
 453   0.0000       2.031505        55.2801 
 454   0.0000       2.045516        55.6613 
 455   0.0000       2.060898        56.0799 
 456   0.0000       2.072506        56.3957 
 457   0.0000       2.082052        56.6555 
 458   0.0000       2.082693        56.6730 
 459   0.0000       2.089978        56.8712 
 460   0.0000       2.103956        57.2516 
 461   0.0000       2.109928        57.4141 
 462   0.0000       2.118178        57.6386 
 463   0.0000       2.122370        57.7526 
 464   0.0000       2.127941        57.9042 
 465   0.0000       2.135455        58.1087 
 466   0.0000       2.139568        58.2206 
 467   0.0000       2.142548        58.3017 
 468   0.0000       2.146387        58.4062 
 469   0.0000       2.158525        58.7364 
 470   0.0000       2.159838        58.7722 
 471   0.0000       2.163600        58.8745 
 472   0.0000       2.171604        59.0923 
 473   0.0000       2.175661        59.2027 
 474   0.0000       2.185539        59.4715 
 475   0.0000       2.191061        59.6218 
 476   0.0000       2.200793        59.8866 
 477   0.0000       2.210418        60.1485 
 478   0.0000       2.217270        60.3350 
 479   0.0000       2.218164        60.3593 
 480   0.0000       2.226003        60.5726 
 481   0.0000       2.230549        60.6963 
 482   0.0000       2.239549        60.9412 
 483   0.0000       2.243283        61.0428 
 484   0.0000       2.253893        61.3316 
 485   0.0000       2.256021        61.3895 
 486   0.0000       2.260492        61.5111 
 487   0.0000       2.262782        61.5734 
 488   0.0000       2.269404        61.7536 
 489   0.0000       2.272772        61.8453 
 490   0.0000       2.285566        62.1934 
 491   0.0000       2.291753        62.3618 
 492   0.0000       2.297664        62.5226 
 493   0.0000       2.311062        62.8872 
 494   0.0000       2.312409        62.9238 
 495   0.0000       2.320156        63.1347 
 496   0.0000       2.326366        63.3036 
 497   0.0000       2.344111        63.7865 
 498   0.0000       2.351021        63.9745 
 499   0.0000       2.359111        64.1947 
 500   0.0000       2.364955        64.3537 
 501   0.0000       2.385663        64.9172 
 502   0.0000       2.391010        65.0627 
 503   0.0000       2.396716        65.2180 
 504   0.0000       2.407016        65.4982 
 505   0.0000       2.417784        65.7913 
 506   0.0000       2.423328        65.9421 
 507   0.0000       2.428672        66.0875 
 508   0.0000       2.437508        66.3280 
 509   0.0000       2.455942        66.8296 
 510   0.0000       2.475890        67.3724 
 511   0.0000       2.478255        67.4367 
 512   0.0000       2.488574        67.7175 
 513   0.0000       2.513587        68.3982 
 514   0.0000       2.524169        68.6861 
 515   0.0000       2.527267        68.7704 
 516   0.0000       2.551299        69.4244 
 517   0.0000       2.560070        69.6630 
 518   0.0000       2.577483        70.1369 
 519   0.0000       2.581287        70.2404 
 520   0.0000       2.595654        70.6313 
 521   0.0000       2.612755        71.0967 
 522   0.0000       2.617997        71.2393 
 523   0.0000       2.622364        71.3581 
 524   0.0000       2.650573        72.1257 
 525   0.0000       2.661032        72.4104 
 526   0.0000       2.666571        72.5611 
 527   0.0000       2.677633        72.8621 
 528   0.0000       2.687999        73.1442 
 529   0.0000       2.704748        73.5999 
 530   0.0000       2.708631        73.7056 
 531   0.0000       2.720281        74.0226 
 532   0.0000       2.728635        74.2499 
 533   0.0000       2.744267        74.6753 
 534   0.0000       2.747439        74.7616 
 535   0.0000       2.753500        74.9265 
 536   0.0000       2.767923        75.3190 
 537   0.0000       2.772326        75.4388 
 538   0.0000       2.793356        76.0111 
 539   0.0000       2.807215        76.3882 
 540   0.0000       2.814239        76.5793 
 541   0.0000       2.839139        77.2569 
 542   0.0000       2.853274        77.6415 
 543   0.0000       2.855785        77.7099 
 544   0.0000       2.871664        78.1420 
 545   0.0000       2.892901        78.7198 
 546   0.0000       2.894468        78.7625 
 547   0.0000       2.905122        79.0524 
 548   0.0000       2.918112        79.4059 
 549   0.0000       2.923914        79.5638 
 550   0.0000       2.930511        79.7432 
 551   0.0000       2.939739        79.9944 
 552   0.0000       2.962674        80.6185 
 553   0.0000       2.965548        80.6967 
 554   0.0000       2.982272        81.1518 
 555   0.0000       2.986655        81.2710 
 556   0.0000       2.994454        81.4832 
 557   0.0000       3.002649        81.7062 
 558   0.0000       3.009501        81.8927 
 559   0.0000       3.015517        82.0564 
 560   0.0000       3.027587        82.3848 
 561   0.0000       3.044763        82.8522 
 562   0.0000       3.050083        82.9970 
 563   0.0000       3.051760        83.0426 
 564   0.0000       3.060242        83.2734 
 565   0.0000       3.075044        83.6762 
 566   0.0000       3.088042        84.0299 
 567   0.0000       3.094997        84.2191 
 568   0.0000       3.101985        84.4093 
 569   0.0000       3.116401        84.8016 
 570   0.0000       3.119434        84.8841 
 571   0.0000       3.126898        85.0872 
 572   0.0000       3.135038        85.3087 
 573   0.0000       3.148701        85.6805 
 574   0.0000       3.160630        86.0051 
 575   0.0000       3.166860        86.1746 
 576   0.0000       3.173211        86.3475 
 577   0.0000       3.189925        86.8023 
 578   0.0000       3.194956        86.9392 
 579   0.0000       3.200309        87.0848 
 580   0.0000       3.210265        87.3558 
 581   0.0000       3.214476        87.4703 
 582   0.0000       3.223361        87.7121 
 583   0.0000       3.239564        88.1530 
 584   0.0000       3.242566        88.2347 
 585   0.0000       3.244812        88.2958 
 586   0.0000       3.255912        88.5979 
 587   0.0000       3.267403        88.9106 
 588   0.0000       3.290291        89.5334 
 589   0.0000       3.293253        89.6140 
 590   0.0000       3.296058        89.6903 
 591   0.0000       3.317646        90.2777 
 592   0.0000       3.322294        90.4042 
 593   0.0000       3.338317        90.8402 
 594   0.0000       3.347255        91.0834 
 595   0.0000       3.353573        91.2554 
 596   0.0000       3.362401        91.4956 
 597   0.0000       3.378387        91.9306 
 598   0.0000       3.385473        92.1234 
 599   0.0000       3.397153        92.4412 
 600   0.0000       3.405938        92.6803 
 601   0.0000       3.406397        92.6928 
 602   0.0000       3.425025        93.1997 
 603   0.0000       3.431092        93.3648 
 604   0.0000       3.436776        93.5194 
 605   0.0000       3.447435        93.8095 
 606   0.0000       3.448204        93.8304 
 607   0.0000       3.453412        93.9721 
 608   0.0000       3.470087        94.4259 
 609   0.0000       3.470836        94.4462 
 610   0.0000       3.478009        94.6414 
 611   0.0000       3.487377        94.8964 
 612   0.0000       3.507113        95.4334 
 613   0.0000       3.515282        95.6557 
 614   0.0000       3.525830        95.9427 
 615   0.0000       3.536694        96.2383 
 616   0.0000       3.548196        96.5513 
 617   0.0000       3.556157        96.7680 
 618   0.0000       3.560958        96.8986 
 619   0.0000       3.577141        97.3389 
 620   0.0000       3.582872        97.4949 
 621   0.0000       3.593905        97.7951 
 622   0.0000       3.604781        98.0911 
 623   0.0000       3.613239        98.3212 
 624   0.0000       3.617604        98.4400 
 625   0.0000       3.621276        98.5399 
 626   0.0000       3.633019        98.8595 
 627   0.0000       3.638193        99.0003 
 628   0.0000       3.655853        99.4808 
 629   0.0000       3.657122        99.5153 
 630   0.0000       3.661416        99.6322 
 631   0.0000       3.671485        99.9062 
 632   0.0000       3.678689       100.1022 
 633   0.0000       3.690724       100.4297 
 634   0.0000       3.699123       100.6582 
 635   0.0000       3.713377       101.0461 
 636   0.0000       3.716524       101.1318 
 637   0.0000       3.730122       101.5018 
 638   0.0000       3.740334       101.7797 
 639   0.0000       3.745296       101.9147 
 640   0.0000       3.753332       102.1333 
 641   0.0000       3.764592       102.4398 
 642   0.0000       3.772809       102.6634 
 643   0.0000       3.794366       103.2499 
 644   0.0000       3.800224       103.4094 
 645   0.0000       3.807087       103.5961 
 646   0.0000       3.825908       104.1083 
 647   0.0000       3.839504       104.4782 
 648   0.0000       3.845262       104.6349 
 649   0.0000       3.861059       105.0648 
 650   0.0000       3.874059       105.4185 
 651   0.0000       3.904886       106.2573 
 652   0.0000       3.905846       106.2835 
 653   0.0000       3.919935       106.6669 
 654   0.0000       3.926714       106.8513 
 655   0.0000       3.930614       106.9574 
 656   0.0000       3.935457       107.0892 
 657   0.0000       3.956699       107.6672 
 658   0.0000       3.977602       108.2360 
 659   0.0000       3.986662       108.4826 
 660   0.0000       3.992989       108.6547 
 661   0.0000       4.009989       109.1173 
 662   0.0000       4.012934       109.1975 
 663   0.0000       4.029809       109.6567 
 664   0.0000       4.055416       110.3535 
 665   0.0000       4.058933       110.4492 
 666   0.0000       4.077091       110.9433 
 667   0.0000       4.082585       111.0928 
 668   0.0000       4.096885       111.4819 
 669   0.0000       4.115461       111.9874 
 670   0.0000       4.118071       112.0584 
 671   0.0000       4.122469       112.1781 
 672   0.0000       4.130940       112.4086 
 673   0.0000       4.145656       112.8090 
 674   0.0000       4.162391       113.2644 
 675   0.0000       4.167067       113.3917 
 676   0.0000       4.174847       113.6034 
 677   0.0000       4.183041       113.8263 
 678   0.0000       4.190005       114.0158 
 679   0.0000       4.194142       114.1284 
 680   0.0000       4.200486       114.3010 
 681   0.0000       4.206531       114.4655 
 682   0.0000       4.215581       114.7118 
 683   0.0000       4.218115       114.7807 
 684   0.0000       4.225057       114.9697 
 685   0.0000       4.235123       115.2436 
 686   0.0000       4.239915       115.3740 
 687   0.0000       4.245485       115.5255 
 688   0.0000       4.254959       115.7833 
 689   0.0000       4.269932       116.1907 
 690   0.0000       4.275207       116.3343 
 691   0.0000       4.278313       116.4188 
 692   0.0000       4.291346       116.7735 
 693   0.0000       4.294256       116.8526 
 694   0.0000       4.310646       117.2986 
 695   0.0000       4.317488       117.4848 
 696   0.0000       4.321870       117.6041 
 697   0.0000       4.333582       117.9228 
 698   0.0000       4.343655       118.1969 
 699   0.0000       4.359561       118.6297 
 700   0.0000       4.370356       118.9234 
 701   0.0000       4.373197       119.0007 
 702   0.0000       4.384120       119.2980 
 703   0.0000       4.396009       119.6215 
 704   0.0000       4.424107       120.3861 
 705   0.0000       4.431679       120.5921 
 706   0.0000       4.440844       120.8415 
 707   0.0000       4.460728       121.3826 
 708   0.0000       4.470403       121.6458 
 709   0.0000       4.480587       121.9230 
 710   0.0000       4.482935       121.9869 
 711   0.0000       4.496023       122.3430 
 712   0.0000       4.515660       122.8773 
 713   0.0000       4.519799       122.9900 
 714   0.0000       4.535494       123.4171 
 715   0.0000       4.546716       123.7224 
 716   0.0000       4.562113       124.1414 
 717   0.0000       4.577132       124.5501 
 718   0.0000       4.580930       124.6534 
 719   0.0000       4.619957       125.7154 
 720   0.0000       4.627064       125.9088 
 721   0.0000       4.636416       126.1633 
 722   0.0000       4.655347       126.6784 
 723   0.0000       4.693125       127.7064 
 724   0.0000       4.712449       128.2323 
 725   0.0000       4.725150       128.5779 
 726   0.0000       4.741484       129.0224 
 727   0.0000       4.762667       129.5987 
 728   0.0000       4.791248       130.3765 
 729   0.0000       4.821483       131.1992 
 730   0.0000       4.833701       131.5317 
 731   0.0000       4.839067       131.6777 
 732   0.0000       4.874098       132.6309 
 733   0.0000       4.884222       132.9064 
 734   0.0000       4.898190       133.2865 
 735   0.0000       4.907287       133.5341 
 736   0.0000       4.928038       134.0987 
 737   0.0000       4.942221       134.4847 
 738   0.0000       4.943832       134.5285 
 739   0.0000       4.958174       134.9188 
 740   0.0000       4.958837       134.9368 
 741   0.0000       4.972303       135.3032 
 742   0.0000       4.996801       135.9699 
 743   0.0000       5.000254       136.0638 
 744   0.0000       5.052353       137.4815 
 745   0.0000       5.068634       137.9246 
 746   0.0000       5.112356       139.1143 
 747   0.0000       5.113212       139.1376 
 748   0.0000       5.167288       140.6091 
 749   0.0000       5.180430       140.9667 
 750   0.0000       5.193553       141.3238 
 751   0.0000       5.225549       142.1944 
 752   0.0000       5.239732       142.5804 
 753   0.0000       5.248547       142.8202 
 754   0.0000       5.255690       143.0146 
 755   0.0000       5.268407       143.3606 
 756   0.0000       5.287636       143.8839 
 757   0.0000       5.303065       144.3037 
 758   0.0000       5.314089       144.6037 
 759   0.0000       5.325397       144.9114 
 760   0.0000       5.328680       145.0008 
 761   0.0000       5.349094       145.5563 
 762   0.0000       5.363318       145.9433 
 763   0.0000       5.376126       146.2918 
 764   0.0000       5.381680       146.4429 
 765   0.0000       5.391886       146.7207 
 766   0.0000       5.402203       147.0014 
 767   0.0000       5.439988       148.0296 
 768   0.0000       5.447648       148.2380 
 769   0.0000       5.453549       148.3986 
 770   0.0000       5.479127       149.0946 
 771   0.0000       5.498486       149.6214 
 772   0.0000       5.514562       150.0589 
 773   0.0000       5.524506       150.3295 
 774   0.0000       5.543034       150.8336 
 775   0.0000       5.562236       151.3561 
 776   0.0000       5.563428       151.3886 
 777   0.0000       5.581587       151.8827 
 778   0.0000       5.592867       152.1897 
 779   0.0000       5.605009       152.5200 
 780   0.0000       5.621090       152.9576 
 781   0.0000       5.653939       153.8515 
 782   0.0000       5.659759       154.0099 
 783   0.0000       5.675509       154.4385 
 784   0.0000       5.690311       154.8412 
 785   0.0000       5.714866       155.5094 
 786   0.0000       5.729035       155.8950 
 787   0.0000       5.757065       156.6577 
 788   0.0000       5.769095       156.9850 
 789   0.0000       5.790911       157.5787 
 790   0.0000       5.806975       158.0158 
 791   0.0000       5.809465       158.0836 
 792   0.0000       5.821011       158.3978 
 793   0.0000       5.844722       159.0430 
 794   0.0000       5.856364       159.3598 
 795   0.0000       5.865722       159.6144 
 796   0.0000       5.871260       159.7651 
 797   0.0000       5.913835       160.9236 
 798   0.0000       5.958230       162.1317 
 799   0.0000       5.980758       162.7447 
 800   0.0000       6.123625       166.6323 
 801   0.0000       6.177427       168.0963 
 802   0.0000       6.285851       171.0467 
 803   0.0000       6.377209       173.5327 
 804   0.0000       6.441238       175.2750 
 805   0.0000       6.485845       176.4888 
 806   0.0000       6.586411       179.2254 
 807   0.0000       6.645989       180.8465 
 808   0.0000       6.690318       182.0528 
 809   0.0000       6.703742       182.4181 
 810   0.0000       6.735422       183.2801 
 811   0.0000       6.820593       185.5978 
 812   0.0000       6.851945       186.4509 
 813   0.0000       6.916126       188.1974 
 814   0.0000       6.964765       189.5209 
 815   0.0000       6.982494       190.0033 
 816   0.0000       7.046275       191.7389 
 817   0.0000       7.123832       193.8493 
 818   0.0000       7.138101       194.2376 
 819   0.0000       7.285913       198.2598 
 820   0.0000       7.352608       200.0746 
 821   0.0000       7.365343       200.4212 
 822   0.0000       7.401305       201.3998 
 823   0.0000       7.623654       207.4502 
 824   0.0000       7.713604       209.8978 
 825   0.0000       8.295733       225.7384 
 826   0.0000       8.312145       226.1850 
 827   0.0000       8.324022       226.5081 
 828   0.0000       8.331653       226.7158 
 829   0.0000       8.333906       226.7771 
 830   0.0000       8.342201       227.0028 
 831   0.0000       8.356669       227.3965 
 832   0.0000       8.363590       227.5849 
 833   0.0000       8.381622       228.0755 
 834   0.0000       8.401191       228.6080 
 835   0.0000       8.406935       228.7643 
 836   0.0000       8.420762       229.1406 
 837   0.0000       8.461513       230.2495 
 838   0.0000       8.468688       230.4447 
 839   0.0000       8.496338       231.1971 
 840   0.0000      11.013314       299.6875 
 841   0.0000      11.047368       300.6142 
 842   0.0000      11.093899       301.8803 
 843   0.0000      11.127633       302.7983 
 844   0.0000      11.184257       304.3391 
 845   0.0000      11.193570       304.5925 
 846   0.0000      11.292216       307.2768 
 847   0.0000      11.315093       307.8993 
 848   0.0000      11.341174       308.6090 
 849   0.0000      23.171864       630.5385 
 850   0.0000      23.317824       634.5102 
 851   0.0000      23.567499       641.3043 
 852   0.0000      23.678225       644.3173 
 853   0.0000      23.748714       646.2354 
 854   0.0000      23.826198       648.3438 
 855   0.0000      23.913975       650.7323 
 856   0.0000      23.980648       652.5466 
 857   0.0000      24.056277       654.6046 
 858   0.0000      26.002563       707.5657 
 859   0.0000      26.054642       708.9828 
 860   0.0000      26.519357       721.6284 
 861   0.0000      32.019434       871.2931 
 862   0.0000      32.636311       888.0792 
 863   0.0000      34.178300       930.0388 
 864   0.0000      44.422224      1208.7902 
 865   0.0000      44.547034      1212.1864 
 866   0.0000      44.784189      1218.6397 
 867   0.0000      45.069149      1226.3939 
 868   0.0000     205.572569      5593.9140 

                    ********************************
                    * MULLIKEN POPULATION ANALYSIS *
                    ********************************

-----------------------
MULLIKEN ATOMIC CHARGES
-----------------------
   0 C :   -0.584784
   1 C :    0.546556
   2 C :   -0.678547
   3 H :    0.040382
   4 H :    0.124585
   5 H :    0.124834
   6 C :    3.118316
   7 O :   -0.334537
   8 C :    0.563250
   9 O :   -0.465360
  10 C :   -0.151509
  11 O :   -0.408489
  12 C :   -0.239758
  13 H :    0.092314
  14 H :    0.032655
  15 H :    0.085811
  16 C :   -0.420028
  17 H :    0.096570
  18 H :    0.090840
  19 H :    0.098391
  20 C :   -0.720622
  21 H :    0.076696
  22 H :    0.068761
  23 H :    0.093548
  24 Au:    0.130712
  25 Cl:   -0.497350
  26 Cl:   -0.406936
  27 Cl:   -0.476300
Sum of atomic charges:   -0.0000000

--------------------------------
MULLIKEN REDUCED ORBITAL CHARGES
--------------------------------
  0 C s       :     4.505454  s :     4.505454
      pz      :     0.979832  p :     2.394646
      px      :     0.690547
      py      :     0.724266
      dz2     :    -0.020315  d :    -0.324714
      dxz     :    -0.039865
      dyz     :     0.005578
      dx2y2   :    -0.019129
      dxy     :    -0.250983
      f0      :     0.001600  f :     0.009398
      f+1     :     0.000588
      f-1     :     0.001231
      f+2     :     0.000784
      f-2     :     0.001559
      f+3     :     0.001886
      f-3     :     0.001749
  1 C s       :     3.476353  s :     3.476353
      pz      :     1.137603  p :     2.081924
      px      :     0.089185
      py      :     0.855136
      dz2     :     0.004699  d :    -0.115671
      dxz     :    -0.041876
      dyz     :     0.050543
      dx2y2   :    -0.189821
      dxy     :     0.060783
      f0      :     0.001752  f :     0.010838
      f+1     :     0.000731
      f-1     :     0.000970
      f+2     :     0.000469
      f-2     :     0.002057
      f+3     :     0.002345
      f-3     :     0.002515
  2 C s       :     3.310012  s :     3.310012
      pz      :     1.119615  p :     3.286724
      px      :     1.133868
      py      :     1.033242
      dz2     :     0.018958  d :     0.078538
      dxz     :     0.017500
      dyz     :     0.014688
      dx2y2   :     0.011681
      dxy     :     0.015712
      f0      :     0.000209  f :     0.003272
      f+1     :     0.000410
      f-1     :     0.000414
      f+2     :     0.000502
      f-2     :     0.000352
      f+3     :     0.000685
      f-3     :     0.000700
  3 H s       :     0.931589  s :     0.931589
      pz      :     0.002688  p :     0.026143
      px      :     0.024794
      py      :    -0.001340
      dz2     :     0.000139  d :     0.001886
      dxz     :     0.000595
      dyz     :     0.000146
      dx2y2   :     0.000594
      dxy     :     0.000412
  4 H s       :     0.848327  s :     0.848327
      pz      :     0.011496  p :     0.025203
      px      :     0.007583
      py      :     0.006125
      dz2     :     0.000608  d :     0.001885
      dxz     :     0.000274
      dyz     :     0.000521
      dx2y2   :     0.000232
      dxy     :     0.000250
  5 H s       :     0.852488  s :     0.852488
      pz      :     0.009861  p :     0.020790
      px      :     0.004279
      py      :     0.006651
      dz2     :     0.000643  d :     0.001888
      dxz     :     0.000333
      dyz     :     0.000302
      dx2y2   :     0.000382
      dxy     :     0.000228
  6 C s       :     1.550435  s :     1.550435
      pz      :     0.333514  p :     1.201304
      px      :     0.290661
      py      :     0.577129
      dz2     :     0.103871  d :     0.116382
      dxz     :     0.051965
      dyz     :     0.002712
      dx2y2   :    -0.011706
      dxy     :    -0.030460
      f0      :     0.001718  f :     0.013564
      f+1     :     0.002545
      f-1     :     0.001378
      f+2     :     0.001799
      f-2     :     0.002127
      f+3     :     0.002228
      f-3     :     0.001769
  7 O s       :     3.874246  s :     3.874246
      pz      :     1.659569  p :     4.427498
      px      :     1.323050
      py      :     1.444878
      dz2     :     0.005598  d :     0.030714
      dxz     :     0.007197
      dyz     :     0.007325
      dx2y2   :     0.010055
      dxy     :     0.000538
      f0      :     0.000229  f :     0.002080
      f+1     :     0.000217
      f-1     :     0.000232
      f+2     :     0.000332
      f-2     :     0.000253
      f+3     :     0.000406
      f-3     :     0.000411
  8 C s       :     3.155608  s :     3.155608
      pz      :     0.672589  p :     1.971694
      px      :     0.704117
      py      :     0.594989
      dz2     :     0.048551  d :     0.283402
      dxz     :     0.037157
      dyz     :     0.043651
      dx2y2   :     0.117119
      dxy     :     0.036923
      f0      :     0.001691  f :     0.026046
      f+1     :     0.002878
      f-1     :     0.003552
      f+2     :     0.004179
      f-2     :     0.003409
      f+3     :     0.003831
      f-3     :     0.006506
  9 O s       :     3.926885  s :     3.926885
      pz      :     1.414526  p :     4.503071
      px      :     1.561742
      py      :     1.526803
      dz2     :     0.010496  d :     0.033558
      dxz     :     0.009625
      dyz     :     0.005253
      dx2y2   :    -0.000707
      dxy     :     0.008891
      f0      :     0.000132  f :     0.001846
      f+1     :     0.000204
      f-1     :     0.000352
      f+2     :     0.000297
      f-2     :     0.000326
      f+3     :     0.000254
      f-3     :     0.000281
 10 C s       :     3.555278  s :     3.555278
      pz      :     0.861186  p :     2.335932
      px      :     0.729668
      py      :     0.745078
      dz2     :     0.025950  d :     0.242140
      dxz     :     0.052353
      dyz     :     0.113600
      dx2y2   :     0.033367
      dxy     :     0.016870
      f0      :     0.002173  f :     0.018160
      f+1     :     0.002430
      f-1     :     0.004205
      f+2     :     0.001914
      f-2     :     0.002325
      f+3     :     0.001918
      f-3     :     0.003196
 11 O s       :     3.962350  s :     3.962350
      pz      :     1.762880  p :     4.407131
      px      :     1.328291
      py      :     1.315961
      dz2     :     0.003449  d :     0.037095
      dxz     :     0.003667
      dyz     :     0.004445
      dx2y2   :     0.015768
      dxy     :     0.009767
      f0      :     0.000197  f :     0.001912
      f+1     :     0.000145
      f-1     :     0.000358
      f+2     :     0.000235
      f-2     :     0.000287
      f+3     :     0.000219
      f-3     :     0.000470
 12 C s       :     2.954897  s :     2.954897
      pz      :     1.000859  p :     3.191347
      px      :     1.078929
      py      :     1.111558
      dz2     :     0.012990  d :     0.090479
      dxz     :     0.005483
      dyz     :     0.006917
      dx2y2   :     0.037385
      dxy     :     0.027705
      f0      :     0.000940  f :     0.003036
[...]
-------------------------------
  0 C s       :     2.699281  s :     2.699281
      pz      :     0.743487  p :     2.628232
      px      :     0.934193
      py      :     0.950552
      dz2     :     0.117843  d :     0.930613
      dxz     :     0.153715
      dyz     :     0.191737
      dx2y2   :     0.195776
      dxy     :     0.271542
      f0      :     0.005516  f :     0.052298
      f+1     :     0.003972
      f-1     :     0.005966
      f+2     :     0.004363
      f-2     :     0.008891
      f+3     :     0.013355
      f-3     :     0.010235
  1 C s       :     2.683679  s :     2.683679
      pz      :     0.851906  p :     2.393790
      px      :     0.687938
      py      :     0.853945
      dz2     :     0.092019  d :     0.822747
      dxz     :     0.120467
      dyz     :     0.142510
      dx2y2   :     0.257489
      dxy     :     0.210261
      f0      :     0.004561  f :     0.049237
      f+1     :     0.004092
      f-1     :     0.004758
      f+2     :     0.002200
      f-2     :     0.006553
      f+3     :     0.013447
      f-3     :     0.013626
  2 C s       :     2.628790  s :     2.628790
      pz      :     0.923776  p :     2.707591
      px      :     0.925559
      py      :     0.858256
      dz2     :     0.069968  d :     0.491761
      dxz     :     0.079676
      dyz     :     0.107112
      dx2y2   :     0.103602
      dxy     :     0.131403
      f0      :     0.002720  f :     0.032700
      f+1     :     0.004677
      f-1     :     0.004886
      f+2     :     0.004277
      f-2     :     0.003742
      f+3     :     0.005431
      f-3     :     0.006967
  3 H s       :     0.685539  s :     0.685539
      pz      :     0.077566  p :     0.287015
      px      :     0.129405
      py      :     0.080044
      dz2     :     0.003036  d :     0.029887
      dxz     :     0.008330
      dyz     :     0.001944
      dx2y2   :     0.008313
      dxy     :     0.008265
  4 H s       :     0.686725  s :     0.686725
      pz      :     0.113730  p :     0.284046
      px      :     0.095935
      py      :     0.074381
      dz2     :     0.009388  d :     0.029819
      dxz     :     0.008045
      dyz     :     0.005973
      dx2y2   :     0.003332
      dxy     :     0.003082
  5 H s       :     0.686405  s :     0.686405
      pz      :     0.119523  p :     0.296768
      px      :     0.089379
      py      :     0.087866
      dz2     :     0.008205  d :     0.029861
      dxz     :     0.006606
      dyz     :     0.006656
      dx2y2   :     0.004481
      dxy     :     0.003914
  6 C s       :     2.576996  s :     2.576996
      pz      :     0.869469  p :     2.449893
      px      :     0.720414
      py      :     0.860009
      dz2     :     0.247769  d :     1.216689
      dxz     :     0.262359
      dyz     :     0.244250
      dx2y2   :     0.217882
      dxy     :     0.244429
      f0      :     0.012639  f :     0.092675
      f+1     :     0.015856
      f-1     :     0.007944
      f+2     :     0.014875
      f-2     :     0.013753
      f+3     :     0.015797
      f-3     :     0.011811
  7 O s       :     3.151351  s :     3.151351
      pz      :     1.499682  p :     4.241879
      px      :     1.319753
      py      :     1.422444
      dz2     :     0.078356  d :     0.511524
      dxz     :     0.089899
      dyz     :     0.081889
      dx2y2   :     0.117481
      dxy     :     0.143898
      f0      :     0.000471  f :     0.007160
      f+1     :     0.000859
      f-1     :     0.000674
      f+2     :     0.001457
      f-2     :     0.000767
      f+3     :     0.001333
      f-3     :     0.001599
  8 C s       :     2.614749  s :     2.614749
      pz      :     0.682158  p :     2.316499
      px      :     0.852785
      py      :     0.781556
      dz2     :     0.204584  d :     1.334674
      dxz     :     0.213163
      dyz     :     0.241356
      dx2y2   :     0.368535
      dxy     :     0.307036
      f0      :     0.013270  f :     0.164030
      f+1     :     0.016025
      f-1     :     0.017670
      f+2     :     0.027198
      f-2     :     0.022309
      f+3     :     0.025954
      f-3     :     0.041604
  9 O s       :     3.269017  s :     3.269017
      pz      :     1.353096  p :     4.270361
      px      :     1.443188
      py      :     1.474078
      dz2     :     0.042508  d :     0.307991
      dxz     :     0.058051
      dyz     :     0.052957
      dx2y2   :     0.079923
      dxy     :     0.074552
      f0      :     0.000543  f :     0.006403
      f+1     :     0.000424
      f-1     :     0.000780
      f+2     :     0.001198
      f-2     :     0.001493
      f+3     :     0.000886
      f-3     :     0.001079
 10 C s       :     2.642438  s :     2.642438
      pz      :     0.879012  p :     2.370211
      px      :     0.679548
      py      :     0.811650
      dz2     :     0.269140  d :     1.199295
      dxz     :     0.218482
      dyz     :     0.340152
      dx2y2   :     0.174741
      dxy     :     0.196780
      f0      :     0.013464  f :     0.111088
      f+1     :     0.015517
      f-1     :     0.027066
      f+2     :     0.011801
      f-2     :     0.014514
      f+3     :     0.013696
      f-3     :     0.015031
 11 O s       :     3.313380  s :     3.313380
      pz      :     1.580592  p :     4.278115
      px      :     1.280517
      py      :     1.417006
      dz2     :     0.047812  d :     0.255035
      dxz     :     0.032938
      dyz     :     0.072345
      dx2y2   :     0.039711
      dxy     :     0.062229
      f0      :     0.000704  f :     0.006626
      f+1     :     0.000480
      f-1     :     0.001287
      f+2     :     0.000654
      f-2     :     0.001217
      f+3     :     0.001378
      f-3     :     0.000905
 12 C s       :     2.617133  s :     2.617133
      pz      :     0.857266  p :     2.690592
      px      :     0.914559
      py      :     0.918766
      dz2     :     0.125336  d :     0.451538
      dxz     :     0.094173
      dyz     :     0.093095
      dx2y2   :     0.080611
      dxy     :     0.058323
      f0      :     0.007582  f :     0.030335
      f+1     :     0.003446
      f-1     :     0.005761
      f+2     :     0.003076
      f-2     :     0.004775
      f+3     :     0.003401
      f-3     :     0.002293
 13 H s       :     0.670191  s :     0.670191
      pz      :     0.075610  p :     0.345616
      px      :     0.118154
      py      :     0.151852
      dz2     :     0.002931  d :     0.029995
      dxz     :     0.000561
      dyz     :     0.008819
      dx2y2   :     0.008423
      dxy     :     0.009261
 14 H s       :     0.685310  s :     0.685310
      pz      :     0.082629  p :     0.272223
      px      :     0.095965
      py      :     0.093629
      dz2     :     0.006296  d :     0.030432
      dxz     :     0.005712
      dyz     :     0.005477
      dx2y2   :     0.007355
      dxy     :     0.005592
 15 H s       :     0.680595  s :     0.680595
      pz      :     0.077520  p :     0.282954
      px      :     0.127322
      py      :     0.078113
      dz2     :     0.003983  d :     0.030130
      dxz     :     0.008959
      dyz     :     0.000876
      dx2y2   :     0.007188
      dxy     :     0.009123
 16 C s       :     2.619625  s :     2.619625
      pz      :     0.914031  p :     2.691200
      px      :     0.852194
      py      :     0.924974
      dz2     :     0.097776  d :     0.398372
      dxz     :     0.071831
      dyz     :     0.033429
      dx2y2   :     0.086658
      dxy     :     0.108678
      f0      :     0.005652  f :     0.030277
      f+1     :     0.003264
      f-1     :     0.001251
      f+2     :     0.005463
      f-2     :     0.004643
      f+3     :     0.005860
      f-3     :     0.004144
 17 H s       :     0.690212  s :     0.690212
      pz      :     0.077897  p :     0.270659
      px      :     0.071878
      py      :     0.120884
      dz2     :     0.003916  d :     0.030225
      dxz     :     0.001530
      dyz     :     0.008055
      dx2y2   :     0.008132
      dxy     :     0.008593
 18 H s       :     0.684898  s :     0.684898
      pz      :     0.128088  p :     0.271480
      px      :     0.066933
      py      :     0.076458
      dz2     :     0.010470  d :     0.029945
      dxz     :     0.009348
      dyz     :     0.009842
      dx2y2   :     0.000206
      dxy     :     0.000078
 19 H s       :     0.685268  s :     0.685268
      pz      :     0.083092  p :     0.270428
      px      :     0.084284
      py      :     0.103052
      dz2     :     0.005047  d :     0.029921
      dxz     :     0.004339
      dyz     :     0.005341
      dx2y2   :     0.008272
      dxy     :     0.006923
 20 C s       :     2.605197  s :     2.605197
      pz      :     0.844873  p :     2.648019
      px      :     0.915913
      py      :     0.887233
      dz2     :     0.108335  d :     0.492404
      dxz     :     0.104104
      dyz     :     0.115798
      dx2y2   :     0.066286
      dxy     :     0.097881
      f0      :     0.006191  f :     0.030936
      f+1     :     0.003716
      f-1     :     0.006752
      f+2     :     0.003944
      f-2     :     0.004417
      f+3     :     0.004554
      f-3     :     0.001362
 21 H s       :     0.682216  s :     0.682216
      pz      :     0.070096  p :     0.269614
      px      :     0.089867
      py      :     0.109651
      dz2     :     0.002802  d :     0.030060
      dxz     :     0.002504
      dyz     :     0.006956
      dx2y2   :     0.009394
      dxy     :     0.008405
 22 H s       :     0.665001  s :     0.665001
      pz      :     0.081466  p :     0.325795
      px      :     0.161712
      py      :     0.082618
      dz2     :     0.004162  d :     0.030298
      dxz     :     0.008622
      dyz     :     0.001949
      dx2y2   :     0.006935
      dxy     :     0.008630
 23 H s       :     0.680600  s :     0.680600
      pz      :     0.088420  p :     0.274975
      px      :     0.087852
      py      :     0.098703
      dz2     :     0.007368  d :     0.030091
      dxz     :     0.005585
      dyz     :     0.006477
      dx2y2   :     0.005586
      dxy     :     0.005076
 24 Aus       :     2.238521  s :     2.238521
      pz      :     2.372272  p :     6.846196
      px      :     2.289704
      py      :     2.184220
      dz2     :     1.769892  d :     9.511610
      dxz     :     2.001106
      dyz     :     1.924892
      dx2y2   :     1.914149
      dxy     :     1.901571
      f0      :     0.029227  f :     0.125675
      f+1     :     0.019773
      f-1     :     0.028256
      f+2     :     0.010334
      f-2     :     0.011266
      f+3     :     0.008778
      f-3     :     0.018041
      g0      :     0.000262  g :     0.001655
      g+1     :     0.000203
      g-1     :     0.000322
      g+2     :     0.000160
      g-2     :     0.000176
      g+3     :     0.000064
      g-3     :     0.000127
      g+4     :     0.000156
      g-4     :     0.000185
 25 Cls       :     5.670152  s :     5.670152
      pz      :     3.513946  p :    11.140317
      px      :     3.841963
      py      :     3.784408
      dz2     :     0.055799  d :     0.196417
      dxz     :     0.048461
      dyz     :     0.045703
      dx2y2   :     0.015194
      dxy     :     0.031260
      f0      :     0.001739  f :     0.005862
      f+1     :     0.001114
      f-1     :     0.001649
      f+2     :     0.000603
      f-2     :     0.000609
      f+3     :     0.000065
      f-3     :     0.000083
 26 Cls       :     5.698610  s :     5.698610
      pz      :     3.876687  p :    11.221749
      px      :     3.531637
      py      :     3.813425
      dz2     :     0.030023  d :     0.192341
      dxz     :     0.058359
      dyz     :     0.019106
      dx2y2   :     0.037177
      dxy     :     0.047676
      f0      :     0.000621  f :     0.006084
      f+1     :     0.000927
      f-1     :     0.000260
      f+2     :     0.000672
      f-2     :     0.000731
      f+3     :     0.001329
      f-3     :     0.001545
 27 Cls       :     5.674987  s :     5.674987
      pz      :     3.495412  p :    11.144930
      px      :     3.841377
      py      :     3.808140
      dz2     :     0.058817  d :     0.189223
      dxz     :     0.056857
      dyz     :     0.042830
      dx2y2   :     0.014310
      dxy     :     0.016409
      f0      :     0.001882  f :     0.006046
      f+1     :     0.001257
      f-1     :     0.001754
      f+2     :     0.000519
      f-2     :     0.000530
      f+3     :     0.000052
      f-3     :     0.000052


                      *****************************
                      * MAYER POPULATION ANALYSIS *
                      *****************************

  NA   - Mulliken gross atomic population
  ZA   - Total nuclear charge
  QA   - Mulliken gross atomic charge
  VA   - Mayer's total valence
  BVA  - Mayer's bonded valence
  FA   - Mayer's free valence

  ATOM       NA         ZA         QA         VA         BVA        FA
  0 C      6.5848     6.0000    -0.5848     2.6268     2.6268    -0.0000
  1 C      5.4534     6.0000     0.5466    -2.5099    -2.5099     0.0000
  2 C      6.6785     6.0000    -0.6785     3.7530     3.7530    -0.0000
  3 H      0.9596     1.0000     0.0404     1.0564     1.0564    -0.0000
  4 H      0.8754     1.0000     0.1246     1.0210     1.0210    -0.0000
  5 H      0.8752     1.0000     0.1248     1.0268     1.0268    -0.0000
  6 C      2.8817     6.0000     3.1183    -1.2562    -1.2562     0.0000
  7 O      8.3345     8.0000    -0.3345     1.8614     1.8614    -0.0000
  8 C      5.4368     6.0000     0.5632     3.8553     3.8553    -0.0000
  9 O      8.4654     8.0000    -0.4654     1.9593     1.9593    -0.0000
 10 C      6.1515     6.0000    -0.1515     3.4399     3.4399     0.0000
 11 O      8.4085     8.0000    -0.4085     1.9782     1.9782     0.0000
 12 C      6.2398     6.0000    -0.2398     4.2757     4.2757    -0.0000
 13 H      0.9077     1.0000     0.0923     1.0070     1.0070    -0.0000
 14 H      0.9673     1.0000     0.0327     1.1103     1.1103    -0.0000
 15 H      0.9142     1.0000     0.0858     1.0033     1.0033     0.0000
 16 C      6.4200     6.0000    -0.4200     3.7848     3.7848    -0.0000
 17 H      0.9034     1.0000     0.0966     1.0656     1.0656    -0.0000
 18 H      0.9092     1.0000     0.0908     1.0550     1.0550    -0.0000
 19 H      0.9016     1.0000     0.0984     1.0501     1.0501    -0.0000
 20 C      6.7206     6.0000    -0.7206     3.9456     3.9456     0.0000
 21 H      0.9233     1.0000     0.0767     1.0588     1.0588     0.0000
 22 H      0.9312     1.0000     0.0688     1.0800     1.0800     0.0000
 23 H      0.9065     1.0000     0.0935     1.0154     1.0154     0.0000
 24 Au    18.8693    19.0000     0.1307     2.9468     2.9468    -0.0000
 25 Cl    17.4974    17.0000    -0.4974     0.8195     0.8195    -0.0000
 26 Cl    17.4069    17.0000    -0.4069     0.8741     0.8741     0.0000
 27 Cl    17.4763    17.0000    -0.4763     0.8329     0.8329    -0.0000

  Mayer bond orders larger than 0.100000
B(  0-C ,  1-C ) :  -0.3587 B(  0-C ,  2-C ) :   1.1160 B(  0-C ,  6-C ) :  -0.7063 
B(  0-C ,  9-O ) :   0.1206 B(  0-C , 24-Au) :   1.4928 B(  0-C , 25-Cl) :   0.4699 
B(  0-C , 27-Cl) :   0.6435 B(  1-C ,  2-C ) :  -0.4667 B(  1-C ,  3-H ) :  -0.1172 
B(  1-C ,  6-C ) :  -0.4788 B(  1-C ,  9-O ) :  -0.1028 B(  1-C , 10-C ) :   0.8790 
B(  1-C , 12-C ) :   0.2192 B(  1-C , 20-C ) :   0.4692 B(  1-C , 24-Au) :  -0.9837 
B(  1-C , 25-Cl) :  -0.6948 B(  1-C , 27-Cl) :  -0.8855 B(  2-C ,  3-H ) :   1.0376 
B(  2-C ,  4-H ) :   0.9858 B(  2-C ,  5-H ) :   0.9901 B(  2-C ,  6-C ) :   0.1474 
B(  6-C ,  7-O ) :   0.4838 B(  6-C , 10-C ) :  -0.5233 B(  6-C , 12-C ) :  -0.1666 
B(  6-C , 20-C ) :   0.4863 B(  6-C , 24-Au) :  -0.3241 B(  7-O ,  8-C ) :   1.1153 
B(  7-O ,  9-O ) :   0.1002 B(  7-O , 10-C ) :   0.1209 B(  7-O , 20-C ) :   0.1299 
B(  8-C ,  9-O ) :   1.7888 B(  8-C , 16-C ) :   1.0218 B( 10-C , 11-O ) :   1.8674 
B( 10-C , 12-C ) :   1.3120 B( 12-C , 13-H ) :   0.9138 B( 12-C , 14-H ) :   1.0197 
B( 12-C , 15-H ) :   0.9350 B( 16-C , 17-H ) :   1.0131 B( 16-C , 18-H ) :   0.9691 
B( 16-C , 19-H ) :   0.9638 B( 20-C , 21-H ) :   0.9895 B( 20-C , 22-H ) :   0.9693 
B( 20-C , 23-H ) :   0.9890 B( 24-Au, 25-Cl) :   0.9864 B( 24-Au, 26-Cl) :   0.7771 
B( 24-Au, 27-Cl) :   0.9706 B( 25-Cl, 27-Cl) :   0.1173 

-------
TIMINGS
-------

Total SCF time: 0 days 0 hours 14 min 29 sec 

Total time                  ....     869.548 sec
Sum of individual times     ....     868.146 sec  ( 99.8%)

Fock matrix formation       ....     860.428 sec  ( 99.0%)
  XC integration            ....       6.813 sec  (  0.8% of F)
    Basis function eval.    ....       1.126 sec  ( 16.5% of XC)
    Density eval.           ....       2.191 sec  ( 32.2% of XC)
    XC-Functional eval.     ....       0.107 sec  (  1.6% of XC)
    XC-Potential eval.      ....       2.277 sec  ( 33.4% of XC)
Diagonalization             ....       3.196 sec  (  0.4%)
Density matrix formation    ....       0.094 sec  (  0.0%)
Population analysis         ....       0.163 sec  (  0.0%)
Initial guess               ....       1.756 sec  (  0.2%)
Orbital Transformation      ....       0.000 sec  (  0.0%)
Orbital Orthonormalization  ....       0.000 sec  (  0.0%)
DIIS solution               ....       1.648 sec  (  0.2%)
Grid generation             ....       0.861 sec  (  0.1%)

-------------------------   --------------------
FINAL SINGLE POINT ENERGY     -2092.065263168828
-------------------------   --------------------


                            ***************************************
                            *     ORCA property calculations      *
                            ***************************************

                                    ---------------------
                                    Active property flags
                                    ---------------------
   (+) Dipole Moment


------------------------------------------------------------------------------
                       ORCA ELECTRIC PROPERTIES CALCULATION
------------------------------------------------------------------------------

Dipole Moment Calculation                       ... on
Quadrupole Moment Calculation                   ... off
Polarizability Calculation                      ... off
GBWName                                         ... TMB28_T1.gbw
Electron density file                           ... TMB28_T1.scfp
The origin for moment calculation is the CENTER OF MASS  = ( 0.348205, -0.021782 -0.008003)

-------------
DIPOLE MOMENT
-------------
                                X             Y             Z
Electronic contribution:    196.10218     -27.67073      -6.40228
Nuclear contribution   :   -200.70985      26.65253       6.49371
                        -----------------------------------------
Total Dipole Moment    :     -4.60767      -1.01820       0.09143
                        -----------------------------------------
Magnitude (a.u.)       :      4.71972
Magnitude (Debye)      :     11.99656



--------------------
Rotational spectrum 
--------------------
 
Rotational constants in cm-1:     0.016870     0.006757     0.006678 
Rotational constants in MHz :   505.750873   202.581775   200.209050 

 Dipole components along the rotational axes: 
x,y,z [a.u.] :    -4.604365    -0.941465    -0.434949 
x,y,z [Debye]:   -11.703365    -2.393014    -1.105552 

 

Timings for individual modules:

Sum of individual times         ...      873.781 sec (=  14.563 min)
GTO integral calculation        ...        3.839 sec (=   0.064 min)   0.4 %
SCF iterations                  ...      869.943 sec (=  14.499 min)  99.6 %
                             ****ORCA TERMINATED NORMALLY****
TOTAL RUN TIME: 0 days 0 hours 14 minutes 34 seconds 413 msec
