
                                 *****************
                                 * O   R   C   A *
                                 *****************

           --- An Ab Initio, DFT and Semiempirical electronic structure package ---

                  #######################################################
                  #                        -***-                        #
                  #          Department of theory and spectroscopy      #
                  #               Directorship: Frank Neese             #
                  #        Max Planck Institute fuer Kohlenforschung    #
                  #                Kaiser Wilhelm Platz 1               #
                  #                 D-45470 Muelheim/Ruhr               #
                  #                      Germany                        #
                  #                                                     #
                  #                  All rights reserved                #
                  #                        -***-                        #
                  #######################################################


                         Program Version 4.2.0 -  RELEASE  -


 With contributions from (in alphabetic order):
   Daniel Aravena         : Magnetic Suceptibility
   Michael Atanasov       : Ab Initio Ligand Field Theory (pilot matlab implementation)
   Alexander A. Auer      : GIAO ZORA, VPT2
   Ute Becker             : Parallelization
   Giovanni Bistoni       : ED, misc. LED, open-shell LED, HFLED
   Martin Brehm           : Molecular dynamics
   Dmytro Bykov           : SCF Hessian
   Vijay G. Chilkuri      : MRCI spin determinant printing, contributions to CSF-ICE
   Dipayan Datta          : RHF DLPNO-CCSD density
   Achintya Kumar Dutta   : EOM-CC, STEOM-CC
   Dmitry Ganyushin       : Spin-Orbit,Spin-Spin,Magnetic field MRCI
   Miquel Garcia          : C-PCM Hessian, Gaussian charge scheme
   Yang Guo               : DLPNO-NEVPT2, CIM, IAO-localization
   Andreas Hansen         : Spin unrestricted coupled pair/coupled cluster methods
   Benjamin Helmich-Paris : CASSCF linear response (MC-RPA)
   Lee Huntington         : MR-EOM, pCC
   Robert Izsak           : Overlap fitted RIJCOSX, COSX-SCS-MP3, EOM
   Christian Kollmar      : KDIIS, OOCD, Brueckner-CCSD(T), CCSD density
   Simone Kossmann        : Meta GGA functionals, TD-DFT gradient, OOMP2, MP2 Hessian
   Martin Krupicka        : AUTO-CI
   Lucas Lang             : DCDCAS
   Dagmar Lenk            : GEPOL surface, SMD
   Dimitrios Liakos       : Extrapolation schemes; Compound Job, initial MDCI parallelization
   Dimitrios Manganas     : Further ROCIS development; embedding schemes
   Dimitrios Pantazis     : SARC Basis sets
   Taras Petrenko         : DFT Hessian,TD-DFT gradient, ASA, ECA, R-Raman, ABS, FL, XAS/XES, NRVS
   Peter Pinski           : DLPNO-MP2, DLPNO-MP2 Gradient
   Christoph Reimann      : Effective Core Potentials
   Marius Retegan         : Local ZFS, SOC
   Christoph Riplinger    : Optimizer, TS searches, QM/MM, DLPNO-CCSD(T), (RO)-DLPNO pert. Triples
   Tobias Risthaus        : Range-separated hybrids, TD-DFT gradient, RPA, STAB
   Michael Roemelt        : Original ROCIS implementation
   Masaaki Saitow         : Open-shell DLPNO-CCSD energy and density
   Barbara Sandhoefer     : DKH picture change effects
   Avijit Sen             : IP-ROCIS
   Kantharuban Sivalingam : CASSCF convergence, NEVPT2, FIC-MRCI
   Bernardo de Souza      : ESD, SOC TD-DFT
   Georgi Stoychev        : AutoAux, RI-MP2 NMR
   Willem Van den Heuvel  : Paramagnetic NMR
   Boris Wezisla          : Elementary symmetry handling
   Frank Wennmohs         : Technical directorship


 We gratefully acknowledge several colleagues who have allowed us to
 interface, adapt or use parts of their codes:
   Stefan Grimme, W. Hujo, H. Kruse,             : VdW corrections, initial TS optimization,
                  C. Bannwarth                     DFT functionals, gCP, sTDA/sTD-DF
   Ed Valeev, F. Pavosevic, A. Kumar             : LibInt (2-el integral package), F12 methods
   Garnet Chan, S. Sharma, J. Yang, R. Olivares  : DMRG
   Ulf Ekstrom                                   : XCFun DFT Library
   Mihaly Kallay                                 : mrcc  (arbitrary order and MRCC methods)
   Andreas Klamt, Michael Diedenhofen            : otool_cosmo (COSMO solvation model)
   Jiri Pittner, Ondrej Demel                    : Mk-CCSD
   Frank Weinhold                                : gennbo (NPA and NBO analysis)
   Christopher J. Cramer and Donald G. Truhlar   : smd solvation model
   Lars Goerigk                                  : TD-DFT with DH, B97 family of functionals
   V. Asgeirsson, H. Jonsson                     : NEB implementation
   FAccTs GmbH                                   : IRC, NEB, NEB-TS, Multilevel, MM, QM/MM, CI optimization
   S Lehtola, MJT Oliveira, MAL Marques          : LibXC Library


 Your calculation uses the libint2 library for the computation of 2-el integrals
 For citations please refer to: http://libint.valeyev.net

 Your ORCA version has been built with support for libXC version: 4.2.3
 For citations please refer to: https://tddft.org/programs/libxc/

 This ORCA versions uses:
   CBLAS   interface :  Fast vector & matrix operations
   LAPACKE interface :  Fast linear algebra routines
   SCALAPACK package :  Parallel linear algebra routines


Your calculation utilizes the DFT-NL dispersion correction.
Cite in your paper:
Vydrov, O. A.; Van Voorhis, T. J. Chem. Phys. 2010, 133, 244103
Hujo, W.; Grimme, S. J. Chem. Theory Comput. 2011, 7, 3866 
   

----- Orbital basis set information -----
Your calculation utilizes the basis: def2-TZVPPD
   F. Weigend and R. Ahlrichs, Phys. Chem. Chem. Phys. 7, 3297 (2005).
   D. Rappoport and F. Furche, J. Chem. Phys. 133 134105 (2010).

----- AuxJK basis set information -----
Your calculation utilizes the auxiliary basis: def2/JK
   H-Ba, Hf-Rn: F. Weigend, J. Comput. Chem. 29, 167 (2008).

cite the ECPs for Au [Def2-ECP] as follows:
Ce-Yb(ecp-28): M. Dolg, H. Stoll, H.Preuss, J. Chem. Phys., 1989, 90, 1730-1734.
Y-Cd(ecp-28), Hf-Hg(ecp-46): D. Andrae,U. Haeussermann, M. Dolg, H. Stoll, H. Preuss, Theor. Chim. Acta, 1990, 77, 123-141.
In-Sb(ecp-28), Tl-Bi(ecp-46): B. Metz, H. Stoll, M. Dolg, J. Chem. Phys., 2000, 113, 2563-2569.
Te-Xe(ecp-28), Po-Rn(ecp-46): K. A. Peterson, D. Figgen, E. Goll, H. Stoll, M. Dolg, J. Chem. Phys., 2003, 119, 11113-11123.
Rb(ecp-28), Cs(ecp-46): T. Leininger, A. Nicklass, W. Kuechle, H. Stoll, M. Dolg, A. Bergner, Chem. Phys. Lett., 1996, 255, 274-280.
Sr(ecp-28), Ba(ecp-46): M. Kaupp, P. V. Schleyer, H. Stoll and H. Preuss, J. Chem. Phys., 1991, 94, 1360-1366.
La(ecp-46): M. Dolg, H. Stoll, A. Savin, H. Preuss, Theor. Chim. Acta, 1989, 75, 173-194.
Lu(ecp-28): X. Cao, M. Dolg, J. Chem. Phys., 2001, 115, 7348-7355.

ECP parameters for Au [Def2-ECP] have been obtained from:
TURBOMOLE (7.0.2)

================================================================================
                                        WARNINGS
                       Please study these warnings very carefully!
================================================================================


INFO   : the flag for use of LIBINT has been found!

================================================================================
                                       INPUT FILE
================================================================================
NAME = TMB26_T1.in
|  1> #
|  2> # TMB26_T1 wB97X-V/Def2-TZVPPD
|  3> #
|  4> ! wb97x-v def2-tzvppd def2/jk grid4 nofinalgrid
|  5> 
|  6> *xyz 0 1
|  7> C       -2.466566    1.069840    0.238308 
|  8> C       -2.451721    0.070166    1.223311 
|  9> C       -3.390268   -0.966147    1.168446 
| 10> C       -4.328348   -1.022612    0.143865 
| 11> C       -4.333048   -0.013813   -0.819144 
| 12> C       -3.403006    1.027077   -0.774806 
| 13> H       -1.851874    0.172622    2.118430 
| 14> H       -5.044959   -1.827220    0.098719 
| 15> H       -3.408268    1.764270   -1.566273 
| 16> C       -1.433505    2.123552    0.250561 
| 17> C       -1.778108    3.466931    0.185146 
| 18> C       -0.064979    1.782593    0.286078 
| 19> C       -0.802488    4.453319    0.169404 
| 20> H       -2.826505    3.739000    0.161874 
| 21> C        0.907771    2.775168    0.263672 
| 22> C        0.538977    4.108677    0.211691 
| 23> H       -1.095064    5.495288    0.125305 
| 24> H        1.951961    2.493561    0.298441 
| 25> H        1.301937    4.876538    0.199556 
| 26> C        0.257789    0.377788    0.312230 
| 27> C       -0.304042   -0.722217    0.502541 
| 28> H       -0.515543   -1.762216    0.625327 
| 29> Au       2.138195   -0.491597   -0.140080 
| 30> Cl       1.419476   -1.043843   -2.240555 
| 31> Cl       4.263347   -1.139807   -0.651257 
| 32> Cl       2.780432    0.097050    1.979491 
| 33> O       -3.309425   -1.870502    2.160546 
| 34> O       -5.195970    0.025756   -1.845512 
| 35> C       -4.244039   -2.927838    2.190952 
| 36> H       -4.158173   -3.562934    1.304307 
| 37> H       -4.005337   -3.514103    3.075014 
| 38> H       -5.267556   -2.550903    2.273203 
| 39> C       -6.143948   -1.010635   -1.979012 
| 40> H       -6.717344   -0.779100   -2.873359 
| 41> H       -5.656738   -1.981777   -2.105696 
| 42> H       -6.818943   -1.047780   -1.118843 
| 43> *
| 44> 
| 45> %maxcore 5000
| 46> 
| 47> %pal
| 48> nprocs = 24
| 49> end
| 50> 
| 51> 
| 52>                          ****END OF INPUT****
================================================================================

                       ****************************
                       * Single Point Calculation *
                       ****************************

---------------------------------
CARTESIAN COORDINATES (ANGSTROEM)
---------------------------------
  C     -2.466566    1.069840    0.238308
  C     -2.451721    0.070166    1.223311
  C     -3.390268   -0.966147    1.168446
  C     -4.328348   -1.022612    0.143865
  C     -4.333048   -0.013813   -0.819144
  C     -3.403006    1.027077   -0.774806
  H     -1.851874    0.172622    2.118430
  H     -5.044959   -1.827220    0.098719
  H     -3.408268    1.764270   -1.566273
  C     -1.433505    2.123552    0.250561
  C     -1.778108    3.466931    0.185146
  C     -0.064979    1.782593    0.286078
  C     -0.802488    4.453319    0.169404
  H     -2.826505    3.739000    0.161874
  C      0.907771    2.775168    0.263672
  C      0.538977    4.108677    0.211691
  H     -1.095064    5.495288    0.125305
  H      1.951961    2.493561    0.298441
  H      1.301937    4.876538    0.199556
  C      0.257789    0.377788    0.312230
  C     -0.304042   -0.722217    0.502541
  H     -0.515543   -1.762216    0.625327
  Au     2.138195   -0.491597   -0.140080
  Cl     1.419476   -1.043843   -2.240555
  Cl     4.263347   -1.139807   -0.651257
  Cl     2.780432    0.097050    1.979491
  O     -3.309425   -1.870502    2.160546
  O     -5.195970    0.025756   -1.845512
  C     -4.244039   -2.927838    2.190952
  H     -4.158173   -3.562934    1.304307
  H     -4.005337   -3.514103    3.075014
  H     -5.267556   -2.550903    2.273203
  C     -6.143948   -1.010635   -1.979012
  H     -6.717344   -0.779100   -2.873359
  H     -5.656738   -1.981777   -2.105696
  H     -6.818943   -1.047780   -1.118843

----------------------------
CARTESIAN COORDINATES (A.U.)
----------------------------
  NO LB      ZA    FRAG     MASS         X           Y           Z
   0 C     6.0000    0    12.011   -4.661134    2.021705    0.450337
   1 C     6.0000    0    12.011   -4.633081    0.132595    2.311723
   2 C     6.0000    0    12.011   -6.406678   -1.825753    2.208043
   3 C     6.0000    0    12.011   -8.179392   -1.932457    0.271865
   4 C     6.0000    0    12.011   -8.188274   -0.026103   -1.547958
   5 C     6.0000    0    12.011   -6.430749    1.940894   -1.464171
   6 H     1.0000    0     1.008   -3.499535    0.326208    4.003253
   7 H     1.0000    0     1.008   -9.533591   -3.452945    0.186552
   8 H     1.0000    0     1.008   -6.440693    3.333987   -2.959827
   9 C     6.0000    0    12.011   -2.708932    4.012932    0.473492
  10 C     6.0000    0    12.011   -3.360137    6.551550    0.349875
  11 C     6.0000    0    12.011   -0.122793    3.368613    0.540609
  12 C     6.0000    0    12.011   -1.516483    8.415553    0.320127
  13 H     1.0000    0     1.008   -5.341320    7.065686    0.305898
  14 C     6.0000    0    12.011    1.715439    5.244307    0.498268
  15 C     6.0000    0    12.011    1.018519    7.764274    0.400038
  16 H     1.0000    0     1.008   -2.069371   10.384589    0.236792
  17 H     1.0000    0     1.008    3.688672    4.712147    0.563972
  18 H     1.0000    0     1.008    2.460304    9.215321    0.377106
  19 C     6.0000    0    12.011    0.487151    0.713916    0.590029
  20 C     6.0000    0    12.011   -0.574556   -1.364792    0.949665
  21 H     1.0000    0     1.008   -0.974235   -3.330106    1.181697
  22 Au   19.0000*   0   196.966    4.040603   -0.928984   -0.264713
  23 Cl   17.0000    0    35.453    2.682421   -1.972577   -4.234035
  24 Cl   17.0000    0    35.453    8.056558   -2.153923   -1.230697
  25 Cl   17.0000    0    35.453    5.254255    0.183398    3.740696
  26 O     8.0000    0    15.999   -6.253907   -3.534737    4.082840
  27 O     8.0000    0    15.999   -9.818960    0.048672   -3.487512
  28 C     6.0000    0    12.011   -8.020071   -5.532812    4.140299
  29 H     1.0000    0     1.008   -7.857808   -6.732969    2.464783
  30 H     1.0000    0     1.008   -7.568990   -6.640692    5.810934
  31 H     1.0000    0     1.008   -9.954238   -4.820508    4.295731
  32 C     6.0000    0    12.011  -11.610379   -1.909823   -3.739791
  33 H     1.0000    0     1.008  -12.693941   -1.472286   -5.429862
  34 H     1.0000    0     1.008  -10.689686   -3.745016   -3.979189
  35 H     1.0000    0     1.008  -12.885935   -1.980017   -2.114307
* core charge reduced due to ECP

--------------------------------
INTERNAL COORDINATES (ANGSTROEM)
--------------------------------
 C      0   0   0     0.000000000000     0.00000000     0.00000000
 C      1   0   0     1.403495418699     0.00000000     0.00000000
 C      2   1   0     1.399223096366   119.53276541     0.00000000
 C      3   2   1     1.390305221232   120.76777659     0.56713879
 C      4   3   2     1.394662628194   118.80014319   358.93459087
 C      1   2   3     1.380271177981   120.01607272     0.04553466
 H      2   1   3     1.082382409089   121.25436088   191.05034674
 H      4   3   2     1.078407863612   120.63163333   179.44066236
 H      6   1   2     1.081619720596   121.28402772   182.47566261
 C      1   2   3     1.475694461829   119.69375609   183.30369211
 C     10   1   2     1.388415459247   121.11384380   230.91568236
 C     10   1   2     1.410807538131   120.44503768    52.96440711
 C     11  10   1     1.387459362110   120.92255539   181.32770406
 H     11  10   1     1.083374079602   118.95894645     2.27522628
 C     12  10   1     1.389945942100   120.39002405   178.37843777
 C     15  12  10     1.384542268000   120.13101964     0.26294049
 H     13  11  10     1.083164269415   119.63149452   180.44392688
 H     15  12  10     1.082055517018   119.27423663   179.58505439
 H     16  15  12     1.082527475469   119.72681922   179.69168713
 C     12  10   1     1.441644962171   116.94507399   359.86318017
 C     20  12  10     1.249753315381   139.44639220   346.60866294
 H     21  20  12     1.068366507711   164.43034754   181.85624842
 Au    20  12  10     2.120457813577   126.45525862   162.73040331
 Cl    23  20  12     2.287690510341    90.92954707   260.07627184
 Cl    23  20  12     2.279857265825   172.31347705     4.99329977
 Cl    23  20  12     2.291627124735    86.89985098    80.05931556
 O      3   2   1     1.344862805893   115.39103503   180.65748207
 O      5   4   3     1.341503393685   123.49012071   180.08533394
 C     27   3   2     1.411519490028   118.67273687   178.48125308
 H     29  27   3     1.094010628466   111.43387399    62.42051528
 H     29  27   3     1.087313623051   106.02436184   181.11673557
 H     29  27   3     1.093815464562   111.28839058   299.83453901
 C     28   5   4     1.410883001303   118.87688996   359.19689575
 H     33  28   5     1.087312275958   106.00599203   180.72169578
 H     33  28   5     1.093864344478   111.33665789   299.35132433
 H     33  28   5     1.094024090051   111.41366289    62.05808211

---------------------------
INTERNAL COORDINATES (A.U.)
---------------------------
 C      0   0   0     0.000000000000     0.00000000     0.00000000
 C      1   0   0     2.652221971555     0.00000000     0.00000000
 C      2   1   0     2.644148452388   119.53276541     0.00000000
 C      3   2   1     2.627296110690   120.76777659     0.56713879
 C      4   3   2     2.635530416502   118.80014319   358.93459087
 C      1   2   3     2.608334516929   120.01607272     0.04553466
 H      2   1   3     2.045406325353   121.25436088   191.05034674
 H      4   3   2     2.037895522894   120.63163333   179.44066236
 H      6   1   2     2.043965052975   121.28402772   182.47566261
 C      1   2   3     2.788658390202   119.69375609   183.30369211
 C     10   1   2     2.623724978079   121.11384380   230.91568236
 C     10   1   2     2.666039874738   120.44503768    52.96440711
 C     11  10   1     2.621918216334   120.92255539   181.32770406
 H     11  10   1     2.047280311037   118.95894645     2.27522628
 C     12  10   1     2.626617171525   120.39002405   178.37843777
 C     15  12  10     2.616405707358   120.13101964     0.26294049
 H     13  11  10     2.046883827244   119.63149452   180.44392688
 H     15  12  10     2.044788588863   119.27423663   179.58505439
 H     16  15  12     2.045680461082   119.72681922   179.69168713
 C     12  10   1     2.724314160850   116.94507399   359.86318017
 C     20  12  10     2.361691501031   139.44639220   346.60866294
 H     21  20  12     2.018920110227   164.43034754   181.85624842
 Au    20  12  10     4.007084546195   126.45525862   162.73040331
 Cl    23  20  12     4.323108543714    90.92954707   260.07627184
 Cl    23  20  12     4.308305856839   172.31347705     4.99329977
 Cl    23  20  12     4.330547666814    86.89985098    80.05931556
 O      3   2   1     2.541422390834   115.39103503   180.65748207
 O      5   4   3     2.535074021791   123.49012071   180.08533394
 C     27   3   2     2.667385268845   118.67273687   178.48125308
 H     29  27   3     2.067380475400   111.43387399    62.42051528
 H     29  27   3     2.054724969249   106.02436184   181.11673557
 H     29  27   3     2.067011669070   111.28839058   299.83453901
 C     28   5   4     2.666182479467   118.87688996   359.19689575
 H     33  28   5     2.054722423612   106.00599203   180.72169578
 H     33  28   5     2.067104038724   111.33665789   299.35132433
 H     33  28   5     2.067405914108   111.41366289    62.05808211

---------------------
BASIS SET INFORMATION
---------------------
There are 5 groups of distinct atoms

 Group   1 Type C   : 12s6p3d1f contracted to 6s3p3d1f pattern {621111/411/111/1}
 Group   2 Type H   : 5s3p1d contracted to 3s3p1d pattern {311/111/1}
 Group   3 Type Au  : 8s8p6d2f1g contracted to 6s5p3d2f1g pattern {311111/41111/411/11/1}
 Group   4 Type Cl  : 15s10p4d1f contracted to 6s6p4d1f pattern {732111/511111/1111/1}
 Group   5 Type O   : 12s7p3d1f contracted to 6s4p3d1f pattern {621111/4111/111/1}

Atom   0C    basis set group =>   1
Atom   1C    basis set group =>   1
Atom   2C    basis set group =>   1
Atom   3C    basis set group =>   1
Atom   4C    basis set group =>   1
Atom   5C    basis set group =>   1
Atom   6H    basis set group =>   2
Atom   7H    basis set group =>   2
Atom   8H    basis set group =>   2
Atom   9C    basis set group =>   1
Atom  10C    basis set group =>   1
Atom  11C    basis set group =>   1
Atom  12C    basis set group =>   1
Atom  13H    basis set group =>   2
Atom  14C    basis set group =>   1
Atom  15C    basis set group =>   1
Atom  16H    basis set group =>   2
Atom  17H    basis set group =>   2
Atom  18H    basis set group =>   2
Atom  19C    basis set group =>   1
Atom  20C    basis set group =>   1
Atom  21H    basis set group =>   2
Atom  22Au   basis set group =>   3
Atom  23Cl   basis set group =>   4
Atom  24Cl   basis set group =>   4
Atom  25Cl   basis set group =>   4
Atom  26O    basis set group =>   5
Atom  27O    basis set group =>   5
Atom  28C    basis set group =>   1
Atom  29H    basis set group =>   2
Atom  30H    basis set group =>   2
Atom  31H    basis set group =>   2
Atom  32C    basis set group =>   1
Atom  33H    basis set group =>   2
Atom  34H    basis set group =>   2
Atom  35H    basis set group =>   2
----------------------------------
AUXILIARY/JK BASIS SET INFORMATION
----------------------------------
There are 5 groups of distinct atoms

 Group   1 Type C   : 14s10p6d2f1g contracted to 10s8p5d1f1g pattern {5111111111/31111111/21111/2/1}
 Group   2 Type H   : 4s2p2d contracted to 2s2p2d pattern {31/11/11}
 Group   3 Type Au  : 13s12p11d9f5g3h2i contracted to 13s11p10d8f4g3h2i pattern {1111111111111/21111111111/2111111111/21111111/2111/111/11}
 Group   4 Type Cl  : 16s12p10d4f1g contracted to 13s11p9d4f1g pattern {4111111111111/21111111111/211111111/1111/1}
 Group   5 Type O   : 14s10p6d2f1g contracted to 10s8p4d2f1g pattern {5111111111/31111111/3111/11/1}

Atom   0C    basis set group =>   1
Atom   1C    basis set group =>   1
Atom   2C    basis set group =>   1
Atom   3C    basis set group =>   1
Atom   4C    basis set group =>   1
Atom   5C    basis set group =>   1
Atom   6H    basis set group =>   2
Atom   7H    basis set group =>   2
Atom   8H    basis set group =>   2
Atom   9C    basis set group =>   1
Atom  10C    basis set group =>   1
Atom  11C    basis set group =>   1
Atom  12C    basis set group =>   1
Atom  13H    basis set group =>   2
Atom  14C    basis set group =>   1
Atom  15C    basis set group =>   1
Atom  16H    basis set group =>   2
Atom  17H    basis set group =>   2
Atom  18H    basis set group =>   2
Atom  19C    basis set group =>   1
Atom  20C    basis set group =>   1
Atom  21H    basis set group =>   2
Atom  22Au   basis set group =>   3
Atom  23Cl   basis set group =>   4
Atom  24Cl   basis set group =>   4
Atom  25Cl   basis set group =>   4
Atom  26O    basis set group =>   5
Atom  27O    basis set group =>   5
Atom  28C    basis set group =>   1
Atom  29H    basis set group =>   2
Atom  30H    basis set group =>   2
Atom  31H    basis set group =>   2
Atom  32C    basis set group =>   1
Atom  33H    basis set group =>   2
Atom  34H    basis set group =>   2
Atom  35H    basis set group =>   2
-------------------------
ECP PARAMETER INFORMATION
-------------------------

 Group 1, Type Au ECP Def2-ECP (replacing 60 core electrons, lmax=3)

Atom  22Au   ECP group =>   1



           ************************************************************
           *        Program running with 24 parallel MPI-processes    *
           *              working on a common directory               *
           ************************************************************
------------------------------------------------------------------------------
                           ORCA GTO INTEGRAL CALCULATION
------------------------------------------------------------------------------

                         BASIS SET STATISTICS AND STARTUP INFO

 # of primitive gaussian shells          ...  639
 # of primitive gaussian functions       ... 1509
 # of contracted shells                  ...  402
 # of contracted basis functions         ... 1122
 Highest angular momentum                ...    4
 Maximum contraction depth               ...    7
 Integral package used                   ... LIBINT
 Integral threshhold            Thresh   ...  1.000e-10
 Primitive cut-off              TCut     ...  1.000e-11


------------------------------ INTEGRAL EVALUATION ----------------------------


 * One electron integrals 

   ECP integrals                         ... done
 Pre-screening matrix                    ... done
 Shell pair data                         ... done (   0.018 sec)



           ************************************************************
           *        Program running with 24 parallel MPI-processes    *
           *              working on a common directory               *
           ************************************************************
-------------------------------------------------------------------------------
                                 ORCA SCF
-------------------------------------------------------------------------------

------------
SCF SETTINGS
------------
Hamiltonian:
 Density Functional     Method          .... DFT(GTOs)
 Exchange Functional    Exchange        .... WB97X-V
 Correlation Functional Correlation     .... WB97X-V
 Gradients option       PostSCFGGA      .... off
 Hybrid DFT is turned on
   Fraction HF Exchange ScalHFX         ....  0.167000
   Scaling of DF-GGA-X  ScalDFX         ....  0.000000
   Scaling of DF-GGA-C  ScalDFC         ....  1.000000
   Scaling of DF-LDA-C  ScalLDAC        ....  1.000000
   Perturbative correction              ....  0.000000
   Density functional embedding theory  .... OFF
 Long-range corrected/Screened/Range-Separated Hybrid DFT is turned on
   Amount of maximum screened exact exchange              ....  0.833000
   Range separation parameter mu (erf(mu*r12)/r12)        ....  0.300000
   NL short-range parameter             ....  6.000000
   NL long-range parameter              ....  0.010000


General Settings:
 Integral files         IntName         .... TMB26_T1
 Hartree-Fock type      HFTyp           .... RHF
 Total Charge           Charge          ....    0
 Multiplicity           Mult            ....    1
 Number of Electrons    NEL             ....  196
 Basis Dimension        Dim             .... 1122
 Nuclear Repulsion      ENuc            ....   2410.1440826510 Eh

Convergence Acceleration:
 DIIS                   CNVDIIS         .... on
   Start iteration      DIISMaxIt       ....    12
   Startup error        DIISStart       ....  0.200000
   # of expansion vecs  DIISMaxEq       ....     5
   Bias factor          DIISBfac        ....   1.050
   Max. coefficient     DIISMaxC        ....  10.000
 Newton-Raphson         CNVNR           .... off
 SOSCF                  CNVSOSCF        .... off
 Level Shifting         CNVShift        .... on
   Level shift para.    LevelShift      ....    0.2500
   Turn off err/grad.   ShiftErr        ....    0.0010
 Zerner damping         CNVZerner       .... off
 Static damping         CNVDamp         .... on
   Fraction old density DampFac         ....    0.7000
   Max. Damping (<1)    DampMax         ....    0.9800
   Min. Damping (>=0)   DampMin         ....    0.0000
   Turn off err/grad.   DampErr         ....    0.1000
 Fernandez-Rico         CNVRico         .... off

SCF Procedure:
 Maximum # iterations   MaxIter         ....   125
 SCF integral mode      SCFMode         .... Direct
   Integral package                     .... LIBINT
 Reset frequency        DirectResetFreq ....    20
 Integral Threshold     Thresh          ....  1.000e-10 Eh
 Primitive CutOff       TCut            ....  1.000e-11 Eh

Convergence Tolerance:
 Convergence Check Mode ConvCheckMode   .... Total+1el-Energy
 Convergence forced     ConvForced      .... 0
 Energy Change          TolE            ....  1.000e-06 Eh
 1-El. energy change                    ....  1.000e-03 Eh
 DIIS Error             TolErr          ....  1.000e-06


Diagonalization of the overlap matrix:
Smallest eigenvalue                        ... 1.773e-07
Time for diagonalization                   ...    0.200 sec
Threshold for overlap eigenvalues          ... 1.000e-08
Number of eigenvalues below threshold      ... 0
Time for construction of square roots      ...    0.148 sec
Total time needed                          ...    0.352 sec

-------------------
DFT GRID GENERATION
-------------------

General Integration Accuracy     IntAcc      ...  4.670
Radial Grid Type                 RadialGrid  ... Gauss-Chebyshev
Angular Grid (max. acc.)         AngularGrid ... Lebedev-302
Angular grid pruning method      GridPruning ... 3 (G Style)
Weight generation scheme         WeightScheme... Becke
Basis function cutoff            BFCut       ...    1.0000e-10
Integration weight cutoff        WCut        ...    1.0000e-14
Grids for H and He will be reduced by one unit

# of grid points (after initial pruning)     ... 191198 (   0.0 sec)
# of grid points (after weights+screening)   ... 168125 (   0.2 sec)
nearest neighbour list constructed           ...    0.0 sec
Grid point re-assignment to atoms done       ...    0.0 sec
Grid point division into batches done        ...    0.6 sec
Reduced shell lists constructed in    0.8 sec

Total number of grid points                  ...   168125
Total number of batches                      ...     2644
Average number of points per batch           ...       63
Average number of grid points per atom       ...     4670
Average number of shells per batch           ...   238.61 (59.36%)
Average number of basis functions per batch  ...   664.21 (59.20%)
Average number of large shells per batch     ...   184.10 (77.16%)
Average number of large basis fcns per batch ...   508.37 (76.54%)
Maximum spatial batch extension              ...   4.34,  2.55,  4.13 au
Average spatial batch extension              ...   0.05,  0.05,  0.05 au

Time for grid setup =    1.018 sec

------------------------------
INITIAL GUESS: MODEL POTENTIAL
------------------------------
Loading Hartree-Fock densities                     ... done
  calling /sw/apps/orca/orca_4_2_0_linux_x86-64_openmpi314/orca TMB26_T1_atom79.inp > TMB26_T1_atom79.out in order to generate an atomic fitting density for atom 22 (Au with ECP) on-the-fly... 
    atom 22 (Au), assumed electronic state with S=2: 1s2 2s2 2p6 3s2 3p6 4s2 3d10 4p6 5s2 4d10 5p6 6s1 4f14 5d10           ... done
Calculating cut-offs                               ... done
Setting up the integral package                    ... done
Initializing the effective Hamiltonian             ... done
Starting the Coulomb interaction                   ... done (   0.2 sec)
Reading the grid                                   ... done
Mapping shells                                     ... done
Starting the XC term evaluation                    ... done (   0.6 sec)
  promolecular density results
     # of electrons  =    255.994112152
     EX              =   -423.368281712
     EC              =    -14.198254391
     EX+EC           =   -437.566536103
Transforming the Hamiltonian                       ... done (   0.1 sec)
Diagonalizing the Hamiltonian                      ... done (   0.2 sec)
Back transforming the eigenvectors                 ... done (   0.1 sec)
Now organizing SCF variables                       ... done
                      ------------------
                      INITIAL GUESS DONE (   3.3 sec)
                      ------------------
--------------
SCF ITERATIONS
--------------
ITER       Energy         Delta-E        Max-DP      RMS-DP      [F,P]     Damp
               ***  Starting incremental Fock matrix formation  ***
  0  -2284.8194508723   0.000000000000 3.01663696  0.00927060  0.4440871 0.7000
  1  -2285.0875685227  -0.268117650452 3.42200828  0.00772461  0.3350215 0.7000
  2  -2285.2134513700  -0.125882847274 3.11533174  0.00609810  0.2478121 0.7000
                               ***Turning on DIIS***
  3  -2285.2920053481  -0.078553978155 2.36838688  0.00466015  0.1785714 0.7000
  4  -2285.3476938789  -0.055688530723 1.66288887  0.00350665  0.1263944 0.7000
  5  -2285.3873413668  -0.039647487926 3.81207288  0.00855855  0.0878890 0.0000
  6  -2285.4833546654  -0.096013298609 0.19460007  0.00072403  0.0043335 0.0000
  7  -2285.4839988222  -0.000644156773 0.13002368  0.00064256  0.0026625 0.0000
  8  -2285.4842654626  -0.000266640457 0.18219108  0.00072714  0.0015980 0.0000
  9  -2285.4843935229  -0.000128060316 0.37029801  0.00106229  0.0007912 0.0000
 10  -2285.4844610487  -0.000067525805 0.25225596  0.00086909  0.0005867 0.0000
 11  -2285.4844688543  -0.000007805536 0.42314455  0.00105296  0.0003038 0.0000
 12  -2285.4844705953  -0.000001741029 0.17581427  0.00075316  0.0001092 0.0000
 13  -2285.4844709881  -0.000000392756 0.22673261  0.00102395  0.0000658 0.0000
                 **** Energy Check signals convergence ****

               *****************************************************
               *                     SUCCESS                       *
               *           SCF CONVERGED AFTER  14 CYCLES          *
               *****************************************************


Setting up the DFT-NL grid :

General Integration Accuracy     IntAcc      ...  4.340
Radial Grid Type                 RadialGrid  ... Gauss-Chebyshev
Angular Grid (max. acc.)         AngularGrid ... Lebedev-110
Angular grid pruning method      GridPruning ... 3 (G Style)
Weight generation scheme         WeightScheme... Becke
Basis function cutoff            BFCut       ...    1.0000e-10
Integration weight cutoff        WCut        ...    1.0000e-14
Grids for H and He will be reduced by one unit

# of grid points (after initial pruning)     ...  50106 (   0.0 sec)
# of grid points (after weights+screening)   ...  44991 (   0.0 sec)
nearest neighbour list constructed           ...    0.0 sec
Grid point re-assignment to atoms done       ...    0.0 sec
Grid point division into batches done        ...    0.0 sec
Reduced shell lists constructed in    0.1 sec

Total number of grid points                  ...    44991
Total number of batches                      ...      720
Average number of points per batch           ...       62
Average number of grid points per atom       ...     1250
Average number of shells per batch           ...   242.68 (60.37%)
Average number of basis functions per batch  ...   679.58 (60.57%)
Average number of large shells per batch     ...   187.81 (77.39%)
Average number of large basis fcns per batch ...   520.06 (76.53%)
Maximum spatial batch extension              ...   5.42,  4.32,  5.30 au
Average spatial batch extension              ...   0.08,  0.08,  0.08 au

Final grid set up in    0.2 sec

-------------------------------------------------------------------------------
                         DFT-NL dispersion correction                          
-------------------------------------------------------------------------------

SC Energy -2285.484471072 
NL    Energy 0.736065633 
SC+NL Energy -2284.748405439 
NL done in    0.6 sec
-------------------------------------------------------------------------------

----------------
TOTAL SCF ENERGY
----------------

Total Energy       :        -2284.74840544 Eh          -62171.16483 eV

Components:
Nuclear Repulsion  :         2410.14408265 Eh           65583.35468 eV
Electronic Energy  :        -4694.89248809 Eh         -127754.51952 eV
One Electron Energy:        -7984.98089610 Eh         -217282.37661 eV
Two Electron Energy:         3290.08840801 Eh           89527.85709 eV

Virial components:
Potential Energy   :        -4474.60441803 Eh         -121760.17638 eV
Kinetic Energy     :         2189.85601259 Eh           59589.01155 eV
Virial Ratio       :            2.04333271


DFT components:
N(Alpha)           :       97.999849331439 electrons
N(Beta)            :       97.999849331439 electrons
N(Total)           :      195.999698662878 electrons
E(X)               :     -139.529756580106 Eh       
E(C)               :       -8.840904548799 Eh       
NL Energy, E(C,NL) :        0.736065632996 Eh       
E(XC)              :     -147.634595495909 Eh       
DFET-embed. en.    :        0.000000000000 Eh       

---------------
SCF CONVERGENCE
---------------

  Last Energy change         ...   -8.3514e-08  Tolerance :   1.0000e-06
  Last MAX-Density change    ...    2.1088e-01  Tolerance :   1.0000e-05
  Last RMS-Density change    ...    7.2660e-04  Tolerance :   1.0000e-06
  Last DIIS Error            ...    2.1980e-05  Tolerance :   1.0000e-06

             **** THE GBW FILE WAS UPDATED (TMB26_T1.gbw) ****
             **** DENSITY FILE WAS UPDATED (TMB26_T1.scfp) ****
             **** ENERGY FILE WAS UPDATED (TMB26_T1.en.tmp) ****
             **** THE GBW FILE WAS UPDATED (TMB26_T1.gbw) ****
             **** DENSITY FILE WAS UPDATED (TMB26_T1.scfp) ****
----------------
ORBITAL ENERGIES
----------------

  NO   OCC          E(Eh)            E(eV) 
   0   2.0000    -101.482765     -2761.4864 
   1   2.0000    -101.482335     -2761.4747 
   2   2.0000    -101.475260     -2761.2822 
   3   2.0000     -19.283099      -524.7198 
   4   2.0000     -19.279766      -524.6291 
   5   2.0000     -10.377024      -282.3732 
   6   2.0000     -10.375939      -282.3437 
   7   2.0000     -10.372736      -282.2565 
   8   2.0000     -10.354022      -281.7473 
   9   2.0000     -10.351474      -281.6779 
  10   2.0000     -10.350307      -281.6462 
  11   2.0000     -10.330394      -281.1043 
  12   2.0000     -10.325370      -280.9676 
  13   2.0000     -10.322183      -280.8809 
  14   2.0000     -10.305349      -280.4228 
  15   2.0000     -10.304462      -280.3987 
  16   2.0000     -10.303494      -280.3723 
  17   2.0000     -10.302648      -280.3493 
  18   2.0000     -10.299754      -280.2706 
  19   2.0000     -10.299592      -280.2662 
  20   2.0000     -10.292372      -280.0697 
  21   2.0000      -9.521922      -259.1047 
  22   2.0000      -9.521440      -259.0916 
  23   2.0000      -9.514268      -258.8964 
  24   2.0000      -7.275918      -197.9878 
  25   2.0000      -7.275507      -197.9766 
  26   2.0000      -7.268666      -197.7905 
  27   2.0000      -7.268627      -197.7894 
  28   2.0000      -7.268161      -197.7767 
  29   2.0000      -7.268016      -197.7728 
  30   2.0000      -7.267452      -197.7574 
  31   2.0000      -7.260870      -197.5783 
  32   2.0000      -7.260047      -197.5559 
  33   2.0000      -4.386467      -119.3618 
  34   2.0000      -2.570029       -69.9340 
  35   2.0000      -2.568124       -69.8822 
  36   2.0000      -2.545178       -69.2578 
  37   2.0000      -1.245010       -33.8785 
  38   2.0000      -1.241778       -33.7905 
  39   2.0000      -1.053951       -28.6795 
  40   2.0000      -1.021577       -27.7985 
  41   2.0000      -0.984363       -26.7859 
  42   2.0000      -0.947107       -25.7721 
  43   2.0000      -0.932680       -25.3795 
  44   2.0000      -0.917996       -24.9799 
  45   2.0000      -0.909331       -24.7442 
  46   2.0000      -0.897279       -24.4162 
  47   2.0000      -0.894752       -24.3474 
  48   2.0000      -0.892127       -24.2760 
  49   2.0000      -0.882236       -24.0069 
  50   2.0000      -0.843594       -22.9554 
  51   2.0000      -0.791872       -21.5479 
  52   2.0000      -0.779090       -21.2001 
  53   2.0000      -0.757872       -20.6227 
  54   2.0000      -0.737025       -20.0555 
  55   2.0000      -0.713984       -19.4285 
  56   2.0000      -0.697877       -18.9902 
  57   2.0000      -0.665248       -18.1023 
  58   2.0000      -0.661309       -17.9951 
  59   2.0000      -0.639047       -17.3893 
  60   2.0000      -0.633345       -17.2342 
  61   2.0000      -0.628945       -17.1145 
  62   2.0000      -0.618806       -16.8386 
  63   2.0000      -0.617236       -16.7958 
  64   2.0000      -0.613894       -16.7049 
  65   2.0000      -0.585798       -15.9404 
  66   2.0000      -0.578337       -15.7374 
  67   2.0000      -0.574095       -15.6219 
  68   2.0000      -0.571806       -15.5596 
  69   2.0000      -0.566013       -15.4020 
  70   2.0000      -0.558970       -15.2104 
  71   2.0000      -0.555849       -15.1254 
  72   2.0000      -0.538388       -14.6503 
  73   2.0000      -0.533450       -14.5159 
  74   2.0000      -0.525658       -14.3039 
  75   2.0000      -0.523002       -14.2316 
  76   2.0000      -0.520428       -14.1616 
  77   2.0000      -0.517289       -14.0761 
  78   2.0000      -0.493915       -13.4401 
  79   2.0000      -0.490070       -13.3355 
  80   2.0000      -0.485737       -13.2176 
  81   2.0000      -0.476462       -12.9652 
  82   2.0000      -0.470931       -12.8147 
  83   2.0000      -0.466874       -12.7043 
  84   2.0000      -0.461713       -12.5638 
  85   2.0000      -0.447144       -12.1674 
  86   2.0000      -0.435727       -11.8567 
  87   2.0000      -0.418833       -11.3970 
  88   2.0000      -0.411404       -11.1949 
  89   2.0000      -0.390325       -10.6213 
  90   2.0000      -0.385733       -10.4963 
  91   2.0000      -0.379382       -10.3235 
  92   2.0000      -0.376230       -10.2377 
  93   2.0000      -0.374096       -10.1797 
  94   2.0000      -0.366736        -9.9794 
  95   2.0000      -0.362483        -9.8637 
  96   2.0000      -0.349769        -9.5177 
  97   2.0000      -0.331021        -9.0075 
  98   0.0000      -0.069715        -1.8970 
  99   0.0000      -0.009836        -0.2677 
 100   0.0000       0.012137         0.3303 
 101   0.0000       0.029227         0.7953 
 102   0.0000       0.031046         0.8448 
 103   0.0000       0.047658         1.2968 
 104   0.0000       0.049856         1.3566 
 105   0.0000       0.056508         1.5377 
 106   0.0000       0.059780         1.6267 
 107   0.0000       0.062645         1.7047 
 108   0.0000       0.066540         1.8106 
 109   0.0000       0.068551         1.8654 
 110   0.0000       0.075157         2.0451 
 111   0.0000       0.078846         2.1455 
 112   0.0000       0.081002         2.2042 
 113   0.0000       0.085959         2.3391 
 114   0.0000       0.087663         2.3854 
 115   0.0000       0.095731         2.6050 
 116   0.0000       0.098845         2.6897 
 117   0.0000       0.103419         2.8142 
 118   0.0000       0.106202         2.8899 
 119   0.0000       0.109792         2.9876 
 120   0.0000       0.115024         3.1299 
 121   0.0000       0.116611         3.1731 
 122   0.0000       0.117441         3.1957 
 123   0.0000       0.122678         3.3382 
 124   0.0000       0.124519         3.3883 
 125   0.0000       0.127370         3.4659 
 126   0.0000       0.131781         3.5860 
 127   0.0000       0.137043         3.7291 
 128   0.0000       0.139073         3.7844 
 129   0.0000       0.146501         3.9865 
 130   0.0000       0.150063         4.0834 
 131   0.0000       0.152452         4.1484 
 132   0.0000       0.154143         4.1944 
 133   0.0000       0.156470         4.2578 
 134   0.0000       0.162010         4.4085 
 135   0.0000       0.162490         4.4216 
 136   0.0000       0.168838         4.5943 
 137   0.0000       0.173432         4.7193 
 138   0.0000       0.176709         4.8085 
 139   0.0000       0.182751         4.9729 
 140   0.0000       0.185235         5.0405 
 141   0.0000       0.188197         5.1211 
 142   0.0000       0.193045         5.2530 
 143   0.0000       0.195773         5.3272 
 144   0.0000       0.197676         5.3790 
 145   0.0000       0.199508         5.4289 
 146   0.0000       0.205012         5.5787 
 147   0.0000       0.207608         5.6493 
 148   0.0000       0.211100         5.7443 
 149   0.0000       0.213944         5.8217 
 150   0.0000       0.217051         5.9062 
 151   0.0000       0.221972         6.0402 
 152   0.0000       0.224182         6.1003 
 153   0.0000       0.226756         6.1704 
 154   0.0000       0.231032         6.2867 
 155   0.0000       0.231933         6.3112 
 156   0.0000       0.236678         6.4403 
 157   0.0000       0.242352         6.5947 
 158   0.0000       0.244123         6.6429 
 159   0.0000       0.247213         6.7270 
 160   0.0000       0.248743         6.7686 
 161   0.0000       0.255666         6.9570 
 162   0.0000       0.257395         7.0041 
 163   0.0000       0.258812         7.0426 
 164   0.0000       0.266117         7.2414 
 165   0.0000       0.267060         7.2671 
 166   0.0000       0.268807         7.3146 
 167   0.0000       0.271039         7.3753 
 168   0.0000       0.275500         7.4967 
 169   0.0000       0.277158         7.5419 
 170   0.0000       0.281137         7.6501 
 171   0.0000       0.283178         7.7057 
 172   0.0000       0.286272         7.7899 
 173   0.0000       0.289383         7.8745 
 174   0.0000       0.290378         7.9016 
 175   0.0000       0.293056         7.9745 
 176   0.0000       0.295913         8.0522 
 177   0.0000       0.297545         8.0966 
 178   0.0000       0.299301         8.1444 
 179   0.0000       0.302736         8.2379 
 180   0.0000       0.306192         8.3319 
 181   0.0000       0.306968         8.3530 
 182   0.0000       0.310519         8.4497 
 183   0.0000       0.312895         8.5143 
 184   0.0000       0.313701         8.5362 
 185   0.0000       0.315806         8.5935 
 186   0.0000       0.317650         8.6437 
 187   0.0000       0.321961         8.7610 
 188   0.0000       0.322273         8.7695 
 189   0.0000       0.324323         8.8253 
 190   0.0000       0.327762         8.9189 
 191   0.0000       0.330279         8.9873 
 192   0.0000       0.332509         9.0480 
 193   0.0000       0.336196         9.1484 
 194   0.0000       0.338458         9.2099 
 195   0.0000       0.339072         9.2266 
 196   0.0000       0.343368         9.3435 
 197   0.0000       0.344622         9.3776 
 198   0.0000       0.345773         9.4090 
 199   0.0000       0.348181         9.4745 
 200   0.0000       0.348891         9.4938 
 201   0.0000       0.350315         9.5326 
 202   0.0000       0.354438         9.6447 
 203   0.0000       0.355845         9.6830 
 204   0.0000       0.357431         9.7262 
 205   0.0000       0.358052         9.7431 
 206   0.0000       0.359006         9.7690 
 207   0.0000       0.362818         9.8728 
 208   0.0000       0.366213         9.9652 
 209   0.0000       0.369371        10.0511 
 210   0.0000       0.372608        10.1392 
 211   0.0000       0.373714        10.1693 
 212   0.0000       0.376875        10.2553 
 213   0.0000       0.378092        10.2884 
 214   0.0000       0.380261        10.3474 
 215   0.0000       0.384604        10.4656 
 216   0.0000       0.384844        10.4721 
 217   0.0000       0.388138        10.5618 
 218   0.0000       0.389492        10.5986 
 219   0.0000       0.392943        10.6925 
 220   0.0000       0.394748        10.7417 
 221   0.0000       0.395644        10.7660 
 222   0.0000       0.396666        10.7938 
 223   0.0000       0.399454        10.8697 
 224   0.0000       0.401421        10.9232 
 225   0.0000       0.403477        10.9792 
 226   0.0000       0.406891        11.0721 
 227   0.0000       0.410809        11.1787 
 228   0.0000       0.411555        11.1990 
 229   0.0000       0.415715        11.3122 
 230   0.0000       0.418180        11.3792 
 231   0.0000       0.419513        11.4155 
 232   0.0000       0.421246        11.4627 
 233   0.0000       0.422793        11.5048 
 234   0.0000       0.427434        11.6311 
 235   0.0000       0.428471        11.6593 
 236   0.0000       0.431051        11.7295 
 237   0.0000       0.433674        11.8009 
 238   0.0000       0.435104        11.8398 
 239   0.0000       0.438682        11.9371 
 240   0.0000       0.443621        12.0715 
 241   0.0000       0.445372        12.1192 
 242   0.0000       0.451114        12.2754 
 243   0.0000       0.452031        12.3004 
 244   0.0000       0.458669        12.4810 
 245   0.0000       0.460249        12.5240 
 246   0.0000       0.463420        12.6103 
 247   0.0000       0.466795        12.7021 
 248   0.0000       0.467662        12.7257 
 249   0.0000       0.471715        12.8360 
 250   0.0000       0.476086        12.9550 
 251   0.0000       0.478126        13.0105 
 252   0.0000       0.482036        13.1169 
 253   0.0000       0.485906        13.2222 
 254   0.0000       0.487959        13.2780 
 255   0.0000       0.492659        13.4059 
 256   0.0000       0.494717        13.4619 
 257   0.0000       0.498287        13.5591 
 258   0.0000       0.499320        13.5872 
 259   0.0000       0.504221        13.7206 
 260   0.0000       0.506914        13.7938 
 261   0.0000       0.507409        13.8073 
 262   0.0000       0.514214        13.9925 
 263   0.0000       0.517371        14.0784 
 264   0.0000       0.519478        14.1357 
 265   0.0000       0.523451        14.2438 
 266   0.0000       0.525859        14.3094 
 267   0.0000       0.529122        14.3981 
 268   0.0000       0.531467        14.4619 
 269   0.0000       0.538664        14.6578 
 270   0.0000       0.543652        14.7935 
 271   0.0000       0.544809        14.8250 
 272   0.0000       0.547821        14.9070 
 273   0.0000       0.549148        14.9431 
 274   0.0000       0.551077        14.9956 
 275   0.0000       0.557562        15.1720 
 276   0.0000       0.560442        15.2504 
 277   0.0000       0.561136        15.2693 
 278   0.0000       0.566240        15.4082 
 279   0.0000       0.567978        15.4555 
 280   0.0000       0.573242        15.5987 
 281   0.0000       0.577342        15.7103 
 282   0.0000       0.580000        15.7826 
 283   0.0000       0.581443        15.8219 
 284   0.0000       0.583105        15.8671 
 285   0.0000       0.591386        16.0924 
 286   0.0000       0.595385        16.2013 
 287   0.0000       0.596246        16.2247 
 288   0.0000       0.601261        16.3611 
 289   0.0000       0.604952        16.4616 
 290   0.0000       0.609348        16.5812 
 291   0.0000       0.612176        16.6581 
 292   0.0000       0.614059        16.7094 
 293   0.0000       0.615386        16.7455 
 294   0.0000       0.624601        16.9963 
 295   0.0000       0.626559        17.0495 
 296   0.0000       0.627565        17.0769 
 297   0.0000       0.632533        17.2121 
 298   0.0000       0.634691        17.2708 
 299   0.0000       0.637267        17.3409 
 300   0.0000       0.639162        17.3925 
 301   0.0000       0.640944        17.4410 
 302   0.0000       0.646632        17.5958 
 303   0.0000       0.648082        17.6352 
 304   0.0000       0.653111        17.7721 
 305   0.0000       0.657548        17.8928 
 306   0.0000       0.662476        18.0269 
 307   0.0000       0.663052        18.0426 
 308   0.0000       0.667800        18.1718 
 309   0.0000       0.669801        18.2262 
 310   0.0000       0.670602        18.2480 
 311   0.0000       0.676920        18.4199 
 312   0.0000       0.681288        18.5388 
 313   0.0000       0.684635        18.6299 
 314   0.0000       0.686872        18.6907 
 315   0.0000       0.689874        18.7724 
 316   0.0000       0.692916        18.8552 
 317   0.0000       0.695256        18.9189 
 318   0.0000       0.698439        19.0055 
 319   0.0000       0.700569        19.0635 
 320   0.0000       0.702363        19.1123 
 321   0.0000       0.705632        19.2012 
 322   0.0000       0.706296        19.2193 
 323   0.0000       0.711558        19.3625 
 324   0.0000       0.713847        19.4248 
 325   0.0000       0.717734        19.5305 
 326   0.0000       0.721334        19.6285 
 327   0.0000       0.722619        19.6635 
 328   0.0000       0.724865        19.7246 
 329   0.0000       0.728004        19.8100 
 330   0.0000       0.731188        19.8966 
 331   0.0000       0.731347        19.9010 
 332   0.0000       0.732471        19.9315 
 333   0.0000       0.734052        19.9746 
 334   0.0000       0.737049        20.0561 
 335   0.0000       0.741667        20.1818 
 336   0.0000       0.742103        20.1936 
 337   0.0000       0.743276        20.2256 
 338   0.0000       0.745839        20.2953 
 339   0.0000       0.750848        20.4316 
 340   0.0000       0.752050        20.4643 
 341   0.0000       0.753403        20.5011 
 342   0.0000       0.754489        20.5307 
 343   0.0000       0.756975        20.5983 
 344   0.0000       0.758911        20.6510 
 345   0.0000       0.762303        20.7433 
 346   0.0000       0.764956        20.8155 
 347   0.0000       0.765342        20.8260 
 348   0.0000       0.767520        20.8853 
 349   0.0000       0.768773        20.9194 
 350   0.0000       0.774768        21.0825 
 351   0.0000       0.776111        21.1190 
 352   0.0000       0.779479        21.2107 
 353   0.0000       0.781768        21.2730 
 354   0.0000       0.784173        21.3384 
 355   0.0000       0.784693        21.3526 
 356   0.0000       0.787661        21.4333 
 357   0.0000       0.791507        21.5380 
 358   0.0000       0.793936        21.6041 
 359   0.0000       0.798163        21.7191 
 360   0.0000       0.800759        21.7898 
 361   0.0000       0.803604        21.8672 
 362   0.0000       0.806519        21.9465 
 363   0.0000       0.807801        21.9814 
 364   0.0000       0.812896        22.1200 
 365   0.0000       0.816057        22.2060 
 366   0.0000       0.817978        22.2583 
 367   0.0000       0.822402        22.3787 
 368   0.0000       0.825640        22.4668 
 369   0.0000       0.828316        22.5396 
 370   0.0000       0.831763        22.6334 
 371   0.0000       0.833077        22.6692 
 372   0.0000       0.838248        22.8099 
 373   0.0000       0.839480        22.8434 
 374   0.0000       0.843056        22.9407 
 375   0.0000       0.846163        23.0253 
 376   0.0000       0.849100        23.1052 
 377   0.0000       0.855362        23.2756 
 378   0.0000       0.856459        23.3054 
 379   0.0000       0.861020        23.4295 
 380   0.0000       0.866067        23.5669 
 381   0.0000       0.866800        23.5868 
 382   0.0000       0.869972        23.6731 
 383   0.0000       0.872827        23.7508 
 384   0.0000       0.880796        23.9677 
 385   0.0000       0.885697        24.1010 
 386   0.0000       0.887258        24.1435 
 387   0.0000       0.890489        24.2314 
 388   0.0000       0.891773        24.2664 
 389   0.0000       0.894620        24.3438 
 390   0.0000       0.898886        24.4599 
 391   0.0000       0.902986        24.5715 
 392   0.0000       0.905895        24.6507 
 393   0.0000       0.908106        24.7108 
 394   0.0000       0.911924        24.8147 
 395   0.0000       0.916522        24.9398 
 396   0.0000       0.918954        25.0060 
 397   0.0000       0.923385        25.1266 
 398   0.0000       0.927832        25.2476 
 399   0.0000       0.932124        25.3644 
 400   0.0000       0.933036        25.3892 
 401   0.0000       0.937948        25.5229 
 402   0.0000       0.944015        25.6879 
 403   0.0000       0.947980        25.7958 
 404   0.0000       0.950260        25.8579 
 405   0.0000       0.957424        26.0528 
 406   0.0000       0.962279        26.1849 
 407   0.0000       0.964689        26.2505 
 408   0.0000       0.970207        26.4007 
 409   0.0000       0.972554        26.4646 
 410   0.0000       0.976873        26.5821 
 411   0.0000       0.979152        26.6441 
 412   0.0000       0.982599        26.7379 
 413   0.0000       0.987132        26.8612 
 414   0.0000       0.993035        27.0219 
 415   0.0000       0.996829        27.1251 
 416   0.0000       1.005161        27.3518 
 417   0.0000       1.007436        27.4137 
 418   0.0000       1.012050        27.5393 
 419   0.0000       1.018276        27.7087 
 420   0.0000       1.019472        27.7412 
 421   0.0000       1.023062        27.8389 
 422   0.0000       1.026977        27.9455 
 423   0.0000       1.034612        28.1532 
 424   0.0000       1.035798        28.1855 
 425   0.0000       1.042070        28.3562 
 426   0.0000       1.050679        28.5904 
 427   0.0000       1.058005        28.7898 
 428   0.0000       1.063215        28.9315 
 429   0.0000       1.065501        28.9938 
 430   0.0000       1.068915        29.0867 
 431   0.0000       1.074456        29.2374 
 432   0.0000       1.080069        29.3902 
 433   0.0000       1.084505        29.5109 
 434   0.0000       1.088857        29.6293 
 435   0.0000       1.092379        29.7251 
 436   0.0000       1.100388        29.9431 
 437   0.0000       1.104427        30.0530 
 438   0.0000       1.107380        30.1333 
 439   0.0000       1.116797        30.3896 
 440   0.0000       1.117973        30.4216 
 441   0.0000       1.120295        30.4848 
 442   0.0000       1.125410        30.6240 
 443   0.0000       1.130235        30.7553 
 444   0.0000       1.140280        31.0286 
 445   0.0000       1.152034        31.3484 
 446   0.0000       1.155784        31.4505 
 447   0.0000       1.159679        31.5565 
 448   0.0000       1.166624        31.7454 
 449   0.0000       1.170323        31.8461 
 450   0.0000       1.175107        31.9763 
 451   0.0000       1.180221        32.1154 
 452   0.0000       1.183808        32.2131 
 453   0.0000       1.184303        32.2265 
 454   0.0000       1.193230        32.4694 
 455   0.0000       1.197098        32.5747 
 456   0.0000       1.202482        32.7212 
 457   0.0000       1.204237        32.7690 
 458   0.0000       1.212640        32.9976 
 459   0.0000       1.214339        33.0439 
 460   0.0000       1.220076        33.1999 
 461   0.0000       1.228360        33.4254 
 462   0.0000       1.235731        33.6260 
 463   0.0000       1.239494        33.7283 
 464   0.0000       1.242851        33.8197 
 465   0.0000       1.245818        33.9004 
 466   0.0000       1.249545        34.0019 
 467   0.0000       1.263026        34.3687 
 468   0.0000       1.263872        34.3917 
 469   0.0000       1.271840        34.6085 
 470   0.0000       1.273647        34.6577 
 471   0.0000       1.279661        34.8213 
 472   0.0000       1.283836        34.9350 
 473   0.0000       1.290260        35.1098 
 474   0.0000       1.296910        35.2907 
 475   0.0000       1.300490        35.3881 
 476   0.0000       1.304288        35.4915 
 477   0.0000       1.312889        35.7255 
 478   0.0000       1.315922        35.8081 
 479   0.0000       1.320354        35.9286 
 480   0.0000       1.321744        35.9665 
 481   0.0000       1.333590        36.2888 
 482   0.0000       1.337395        36.3924 
 483   0.0000       1.348667        36.6991 
 484   0.0000       1.353976        36.8435 
 485   0.0000       1.359519        36.9944 
 486   0.0000       1.367622        37.2149 
 487   0.0000       1.373846        37.3843 
 488   0.0000       1.375436        37.4275 
 489   0.0000       1.383343        37.6427 
 490   0.0000       1.387715        37.7616 
 491   0.0000       1.389571        37.8122 
 492   0.0000       1.397925        38.0395 
 493   0.0000       1.402461        38.1629 
 494   0.0000       1.412397        38.4333 
 495   0.0000       1.419158        38.6173 
 496   0.0000       1.424664        38.7671 
 497   0.0000       1.434583        39.0370 
 498   0.0000       1.439204        39.1627 
 499   0.0000       1.441758        39.2322 
 500   0.0000       1.447019        39.3754 
 501   0.0000       1.448921        39.4271 
 502   0.0000       1.459016        39.7018 
 503   0.0000       1.464466        39.8501 
 504   0.0000       1.477707        40.2105 
 505   0.0000       1.483880        40.3784 
 506   0.0000       1.486233        40.4425 
 507   0.0000       1.488058        40.4921 
 508   0.0000       1.499136        40.7936 
 509   0.0000       1.505390        40.9637 
 510   0.0000       1.513986        41.1977 
 511   0.0000       1.516763        41.2732 
 512   0.0000       1.520374        41.3715 
 513   0.0000       1.524993        41.4972 
 514   0.0000       1.527219        41.5577 
 515   0.0000       1.534450        41.7545 
 516   0.0000       1.537979        41.8505 
 517   0.0000       1.546415        42.0801 
 518   0.0000       1.554125        42.2899 
 519   0.0000       1.558893        42.4196 
 520   0.0000       1.562291        42.5121 
 521   0.0000       1.577007        42.9126 
 522   0.0000       1.581436        43.0331 
 523   0.0000       1.584952        43.1287 
 524   0.0000       1.586165        43.1618 
 525   0.0000       1.590057        43.2677 
 526   0.0000       1.601199        43.5708 
 527   0.0000       1.608870        43.7796 
 528   0.0000       1.614142        43.9230 
 529   0.0000       1.616628        43.9907 
 530   0.0000       1.626576        44.2614 
 531   0.0000       1.630334        44.3636 
 532   0.0000       1.637195        44.5503 
 533   0.0000       1.643342        44.7176 
 534   0.0000       1.648572        44.8599 
 535   0.0000       1.656548        45.0770 
 536   0.0000       1.661262        45.2052 
 537   0.0000       1.666477        45.3472 
 538   0.0000       1.670773        45.4640 
 539   0.0000       1.674415        45.5632 
 540   0.0000       1.682174        45.7743 
 541   0.0000       1.689579        45.9758 
 542   0.0000       1.693168        46.0734 
 543   0.0000       1.695402        46.1342 
 544   0.0000       1.705249        46.4022 
 545   0.0000       1.712901        46.6104 
 546   0.0000       1.717791        46.7435 
 547   0.0000       1.732039        47.1312 
 548   0.0000       1.734212        47.1903 
 549   0.0000       1.745497        47.4974 
 550   0.0000       1.746071        47.5130 
 551   0.0000       1.757691        47.8292 
 552   0.0000       1.760656        47.9099 
 553   0.0000       1.764079        48.0030 
 554   0.0000       1.771960        48.2175 
 555   0.0000       1.782690        48.5095 
 556   0.0000       1.784631        48.5623 
 557   0.0000       1.798548        48.9410 
 558   0.0000       1.802956        49.0609 
 559   0.0000       1.810147        49.2566 
 560   0.0000       1.813059        49.3358 
 561   0.0000       1.820415        49.5360 
 562   0.0000       1.829001        49.7697 
 563   0.0000       1.836692        49.9789 
 564   0.0000       1.839413        50.0530 
 565   0.0000       1.848791        50.3082 
 566   0.0000       1.851952        50.3942 
 567   0.0000       1.870255        50.8922 
 568   0.0000       1.881531        51.1991 
 569   0.0000       1.887306        51.3562 
 570   0.0000       1.895202        51.5711 
 571   0.0000       1.906284        51.8726 
 572   0.0000       1.908498        51.9329 
 573   0.0000       1.921095        52.2756 
 574   0.0000       1.923130        52.3310 
 575   0.0000       1.930565        52.5333 
 576   0.0000       1.933205        52.6052 
 577   0.0000       1.940306        52.7984 
 578   0.0000       1.949146        53.0390 
 579   0.0000       1.952746        53.1369 
 580   0.0000       1.961283        53.3692 
 581   0.0000       1.968660        53.5700 
 582   0.0000       1.979343        53.8607 
 583   0.0000       1.986919        54.0668 
 584   0.0000       1.994098        54.2622 
 585   0.0000       2.003558        54.5196 
 586   0.0000       2.009269        54.6750 
 587   0.0000       2.016179        54.8630 
 588   0.0000       2.028603        55.2011 
 589   0.0000       2.031819        55.2886 
 590   0.0000       2.044808        55.6421 
 591   0.0000       2.050524        55.7976 
 592   0.0000       2.054611        55.9088 
 593   0.0000       2.063541        56.1518 
 594   0.0000       2.065802        56.2133 
 595   0.0000       2.077451        56.5303 
 596   0.0000       2.087408        56.8012 
 597   0.0000       2.093962        56.9796 
 598   0.0000       2.098969        57.1159 
 599   0.0000       2.103015        57.2260 
 600   0.0000       2.106590        57.3232 
 601   0.0000       2.113973        57.5241 
 602   0.0000       2.118069        57.6356 
 603   0.0000       2.125646        57.8418 
 604   0.0000       2.134392        58.0798 
 605   0.0000       2.138826        58.2004 
 606   0.0000       2.140405        58.2434 
 607   0.0000       2.147847        58.4459 
 608   0.0000       2.150036        58.5054 
 609   0.0000       2.156410        58.6789 
 610   0.0000       2.159254        58.7563 
 611   0.0000       2.166225        58.9460 
 612   0.0000       2.172386        59.1136 
 613   0.0000       2.175267        59.1920 
 614   0.0000       2.183502        59.4161 
 615   0.0000       2.188681        59.5570 
 616   0.0000       2.193892        59.6988 
 617   0.0000       2.198248        59.8174 
 618   0.0000       2.204834        59.9966 
 619   0.0000       2.209188        60.1151 
 620   0.0000       2.210233        60.1435 
 621   0.0000       2.214460        60.2585 
 622   0.0000       2.222634        60.4810 
 623   0.0000       2.240220        60.9595 
 624   0.0000       2.245016        61.0900 
 625   0.0000       2.247113        61.1471 
 626   0.0000       2.249420        61.2098 
 627   0.0000       2.255636        61.3790 
 628   0.0000       2.259034        61.4714 
 629   0.0000       2.259888        61.4947 
 630   0.0000       2.264937        61.6321 
 631   0.0000       2.269016        61.7431 
 632   0.0000       2.277328        61.9692 
 633   0.0000       2.280104        62.0448 
 634   0.0000       2.286269        62.2125 
 635   0.0000       2.288153        62.2638 
 636   0.0000       2.296492        62.4907 
 637   0.0000       2.301218        62.6193 
 638   0.0000       2.308833        62.8265 
 639   0.0000       2.315703        63.0135 
 640   0.0000       2.326379        63.3040 
 641   0.0000       2.338633        63.6374 
 642   0.0000       2.344832        63.8061 
 643   0.0000       2.348734        63.9123 
 644   0.0000       2.356576        64.1257 
 645   0.0000       2.362368        64.2833 
 646   0.0000       2.367958        64.4354 
 647   0.0000       2.373635        64.5899 
 648   0.0000       2.378532        64.7231 
 649   0.0000       2.384369        64.8820 
 650   0.0000       2.390320        65.0439 
 651   0.0000       2.393224        65.1229 
 652   0.0000       2.397817        65.2479 
 653   0.0000       2.403745        65.4092 
 654   0.0000       2.413128        65.6645 
 655   0.0000       2.419974        65.8508 
 656   0.0000       2.425103        65.9904 
 657   0.0000       2.438941        66.3670 
 658   0.0000       2.444053        66.5061 
 659   0.0000       2.446505        66.5728 
 660   0.0000       2.467456        67.1429 
 661   0.0000       2.478035        67.4308 
 662   0.0000       2.485039        67.6213 
 663   0.0000       2.495116        67.8955 
 664   0.0000       2.504326        68.1462 
 665   0.0000       2.520566        68.5881 
 666   0.0000       2.521124        68.6033 
 667   0.0000       2.535136        68.9846 
 668   0.0000       2.540033        69.1178 
 669   0.0000       2.552314        69.4520 
 670   0.0000       2.558163        69.6112 
 671   0.0000       2.563605        69.7592 
 672   0.0000       2.569326        69.9149 
 673   0.0000       2.594209        70.5920 
 674   0.0000       2.596810        70.6628 
 675   0.0000       2.608198        70.9727 
 676   0.0000       2.609874        71.0183 
 677   0.0000       2.617842        71.2351 
 678   0.0000       2.622723        71.3679 
 679   0.0000       2.630646        71.5835 
 680   0.0000       2.640435        71.8499 
 681   0.0000       2.652185        72.1696 
 682   0.0000       2.658785        72.3492 
 683   0.0000       2.662764        72.4575 
 684   0.0000       2.674186        72.7683 
 685   0.0000       2.686086        73.0921 
 686   0.0000       2.691522        73.2400 
 687   0.0000       2.696082        73.3641 
 688   0.0000       2.699411        73.4547 
 689   0.0000       2.717824        73.9558 
 690   0.0000       2.718700        73.9796 
 691   0.0000       2.724047        74.1251 
 692   0.0000       2.740186        74.5643 
 693   0.0000       2.742181        74.6185 
 694   0.0000       2.758121        75.0523 
 695   0.0000       2.764504        75.2260 
 696   0.0000       2.775264        75.5188 
 697   0.0000       2.800914        76.2167 
 698   0.0000       2.804867        76.3243 
 699   0.0000       2.810372        76.4741 
 700   0.0000       2.822357        76.8002 
 701   0.0000       2.830544        77.0230 
 702   0.0000       2.836224        77.1776 
 703   0.0000       2.848934        77.5234 
 704   0.0000       2.852111        77.6099 
 705   0.0000       2.864296        77.9415 
 706   0.0000       2.868346        78.0517 
 707   0.0000       2.877312        78.2956 
 708   0.0000       2.879292        78.3495 
 709   0.0000       2.887677        78.5777 
 710   0.0000       2.889152        78.6178 
 711   0.0000       2.899009        78.8860 
 712   0.0000       2.908684        79.1493 
 713   0.0000       2.913533        79.2813 
 714   0.0000       2.920059        79.4589 
 715   0.0000       2.939618        79.9911 
 716   0.0000       2.950657        80.2915 
 717   0.0000       2.952007        80.3282 
 718   0.0000       2.958123        80.4946 
 719   0.0000       2.971394        80.8557 
 720   0.0000       2.975633        80.9711 
 721   0.0000       2.983909        81.1963 
 722   0.0000       2.995209        81.5038 
 723   0.0000       2.999721        81.6266 
 724   0.0000       3.004893        81.7673 
 725   0.0000       3.010638        81.9236 
 726   0.0000       3.013160        81.9923 
 727   0.0000       3.021003        82.2057 
 728   0.0000       3.026782        82.3629 
 729   0.0000       3.033040        82.5332 
 730   0.0000       3.036289        82.6216 
 731   0.0000       3.054737        83.1236 
 732   0.0000       3.065705        83.4221 
 733   0.0000       3.069107        83.5146 
 734   0.0000       3.083567        83.9081 
 735   0.0000       3.094675        84.2104 
 736   0.0000       3.097774        84.2947 
 737   0.0000       3.108913        84.5978 
 738   0.0000       3.111595        84.6708 
 739   0.0000       3.117417        84.8292 
 740   0.0000       3.126625        85.0798 
 741   0.0000       3.132050        85.2274 
 742   0.0000       3.146657        85.6249 
 743   0.0000       3.150318        85.7245 
 744   0.0000       3.163182        86.0745 
 745   0.0000       3.166716        86.1707 
 746   0.0000       3.171244        86.2939 
 747   0.0000       3.172762        86.3352 
 748   0.0000       3.180165        86.5367 
 749   0.0000       3.190570        86.8198 
 750   0.0000       3.198972        87.0485 
 751   0.0000       3.205531        87.2269 
 752   0.0000       3.209514        87.3353 
 753   0.0000       3.217532        87.5535 
 754   0.0000       3.220035        87.6216 
 755   0.0000       3.225450        87.7690 
 756   0.0000       3.237096        88.0859 
 757   0.0000       3.238464        88.1231 
 758   0.0000       3.243373        88.2567 
 759   0.0000       3.257665        88.6456 
 760   0.0000       3.260319        88.7178 
 761   0.0000       3.265532        88.8596 
 762   0.0000       3.271451        89.0207 
 763   0.0000       3.281034        89.2815 
 764   0.0000       3.282843        89.3307 
 765   0.0000       3.285871        89.4131 
 766   0.0000       3.294848        89.6574 
 767   0.0000       3.300044        89.7988 
 768   0.0000       3.302775        89.8731 
 769   0.0000       3.316760        90.2536 
 770   0.0000       3.331014        90.6415 
 771   0.0000       3.333862        90.7190 
 772   0.0000       3.337273        90.8118 
 773   0.0000       3.338798        90.8533 
 774   0.0000       3.348384        91.1142 
 775   0.0000       3.359827        91.4256 
 776   0.0000       3.364920        91.5641 
 777   0.0000       3.371181        91.7345 
 778   0.0000       3.375773        91.8594 
 779   0.0000       3.378069        91.9219 
 780   0.0000       3.388407        92.2032 
 781   0.0000       3.395488        92.3959 
 782   0.0000       3.402522        92.5873 
 783   0.0000       3.402879        92.5971 
 784   0.0000       3.409986        92.7904 
 785   0.0000       3.413197        92.8778 
 786   0.0000       3.419546        93.0506 
 787   0.0000       3.427178        93.2582 
 788   0.0000       3.432593        93.4056 
 789   0.0000       3.439922        93.6050 
 790   0.0000       3.449042        93.8532 
 791   0.0000       3.457644        94.0873 
 792   0.0000       3.462267        94.2131 
 793   0.0000       3.463490        94.2464 
 794   0.0000       3.470945        94.4492 
 795   0.0000       3.472529        94.4923 
 796   0.0000       3.482605        94.7665 
 797   0.0000       3.483907        94.8019 
 798   0.0000       3.490539        94.9824 
 799   0.0000       3.493942        95.0750 
 800   0.0000       3.500982        95.2666 
 801   0.0000       3.511077        95.5413 
 802   0.0000       3.516737        95.6953 
 803   0.0000       3.521152        95.8154 
 804   0.0000       3.533961        96.1640 
 805   0.0000       3.540262        96.3354 
 806   0.0000       3.542418        96.3941 
 807   0.0000       3.553154        96.6862 
 808   0.0000       3.559437        96.8572 
 809   0.0000       3.562600        96.9433 
 810   0.0000       3.572811        97.2211 
 811   0.0000       3.577524        97.3494 
 812   0.0000       3.580797        97.4384 
 813   0.0000       3.585807        97.5748 
 814   0.0000       3.588288        97.6423 
 815   0.0000       3.598493        97.9200 
 816   0.0000       3.603233        98.0490 
 817   0.0000       3.609035        98.2068 
 818   0.0000       3.626390        98.6791 
 819   0.0000       3.631414        98.8158 
 820   0.0000       3.632532        98.8462 
 821   0.0000       3.644615        99.1750 
 822   0.0000       3.647180        99.2448 
 823   0.0000       3.657763        99.5328 
 824   0.0000       3.658990        99.5662 
 825   0.0000       3.660692        99.6125 
 826   0.0000       3.669232        99.8449 
 827   0.0000       3.675482       100.0149 
 828   0.0000       3.680784       100.1592 
 829   0.0000       3.687860       100.3518 
 830   0.0000       3.695162       100.5505 
 831   0.0000       3.704598       100.8072 
 832   0.0000       3.710576       100.9699 
 833   0.0000       3.720205       101.2319 
 834   0.0000       3.720685       101.2450 
 835   0.0000       3.730723       101.5181 
 836   0.0000       3.741277       101.8053 
 837   0.0000       3.748222       101.9943 
 838   0.0000       3.756150       102.2100 
 839   0.0000       3.758804       102.2822 
 840   0.0000       3.762028       102.3700 
 841   0.0000       3.772466       102.6540 
 842   0.0000       3.779685       102.8505 
 843   0.0000       3.790470       103.1439 
 844   0.0000       3.815995       103.8385 
 845   0.0000       3.820190       103.9527 
 846   0.0000       3.825704       104.1027 
 847   0.0000       3.830433       104.2314 
 848   0.0000       3.843822       104.5957 
 849   0.0000       3.849144       104.7405 
 850   0.0000       3.859297       105.0168 
 851   0.0000       3.862731       105.1103 
 852   0.0000       3.864924       105.1699 
 853   0.0000       3.877132       105.5021 
 854   0.0000       3.884442       105.7010 
 855   0.0000       3.887238       105.7771 
 856   0.0000       3.897003       106.0428 
 857   0.0000       3.902448       106.1910 
 858   0.0000       3.906477       106.3007 
 859   0.0000       3.908772       106.3631 
 860   0.0000       3.918905       106.6388 
 861   0.0000       3.930723       106.9604 
 862   0.0000       3.935552       107.0918 
 863   0.0000       3.939522       107.1999 
 864   0.0000       3.947287       107.4111 
 865   0.0000       3.955495       107.6345 
 866   0.0000       3.963909       107.8635 
 867   0.0000       3.968811       107.9968 
 868   0.0000       3.972933       108.1090 
 869   0.0000       3.981185       108.3336 
 870   0.0000       3.987487       108.5050 
 871   0.0000       3.994192       108.6875 
 872   0.0000       4.006878       109.0327 
 873   0.0000       4.014538       109.2411 
 874   0.0000       4.021007       109.4172 
 875   0.0000       4.033872       109.7672 
 876   0.0000       4.044460       110.0554 
 877   0.0000       4.052992       110.2875 
 878   0.0000       4.056296       110.3774 
 879   0.0000       4.072812       110.8269 
 880   0.0000       4.078059       110.9696 
 881   0.0000       4.094991       111.4304 
 882   0.0000       4.100480       111.5797 
 883   0.0000       4.104862       111.6990 
 884   0.0000       4.111542       111.8807 
 885   0.0000       4.116270       112.0094 
 886   0.0000       4.120054       112.1124 
 887   0.0000       4.122519       112.1794 
 888   0.0000       4.132316       112.4460 
 889   0.0000       4.146215       112.8242 
 890   0.0000       4.157576       113.1334 
 891   0.0000       4.161728       113.2464 
 892   0.0000       4.172041       113.5270 
 893   0.0000       4.173579       113.5689 
 894   0.0000       4.180536       113.7582 
 895   0.0000       4.187838       113.9569 
 896   0.0000       4.191637       114.0602 
 897   0.0000       4.195793       114.1733 
 898   0.0000       4.207494       114.4917 
 899   0.0000       4.214387       114.6793 
 900   0.0000       4.218209       114.7833 
 901   0.0000       4.227464       115.0351 
 902   0.0000       4.236645       115.2850 
 903   0.0000       4.239087       115.3514 
 904   0.0000       4.249725       115.6409 
 905   0.0000       4.257823       115.8613 
 906   0.0000       4.260663       115.9385 
 907   0.0000       4.269136       116.1691 
 908   0.0000       4.279651       116.4552 
 909   0.0000       4.285288       116.6086 
 910   0.0000       4.298674       116.9729 
 911   0.0000       4.303761       117.1113 
 912   0.0000       4.311042       117.3094 
 913   0.0000       4.312756       117.3561 
 914   0.0000       4.319103       117.5288 
 915   0.0000       4.320315       117.5617 
 916   0.0000       4.340681       118.1159 
 917   0.0000       4.343105       118.1819 
 918   0.0000       4.354790       118.4999 
 919   0.0000       4.360669       118.6598 
 920   0.0000       4.368342       118.8686 
 921   0.0000       4.370952       118.9397 
 922   0.0000       4.376826       119.0995 
 923   0.0000       4.380822       119.2082 
 924   0.0000       4.393968       119.5660 
 925   0.0000       4.402187       119.7896 
 926   0.0000       4.408065       119.9495 
 927   0.0000       4.419528       120.2615 
 928   0.0000       4.428616       120.5088 
 929   0.0000       4.436583       120.7256 
 930   0.0000       4.444777       120.9485 
 931   0.0000       4.445140       120.9584 
 932   0.0000       4.449968       121.0898 
 933   0.0000       4.468744       121.6007 
 934   0.0000       4.472628       121.7064 
 935   0.0000       4.474595       121.7599 
 936   0.0000       4.479198       121.8852 
 937   0.0000       4.495291       122.3231 
 938   0.0000       4.512537       122.7924 
 939   0.0000       4.522822       123.0723 
 940   0.0000       4.527682       123.2045 
 941   0.0000       4.536911       123.4556 
 942   0.0000       4.547282       123.7378 
 943   0.0000       4.557983       124.0290 
 944   0.0000       4.573122       124.4410 
 945   0.0000       4.579576       124.6166 
 946   0.0000       4.599650       125.1628 
 947   0.0000       4.608364       125.4000 
 948   0.0000       4.609619       125.4341 
 949   0.0000       4.628758       125.9549 
 950   0.0000       4.640655       126.2787 
 951   0.0000       4.647610       126.4679 
 952   0.0000       4.663291       126.8946 
 953   0.0000       4.677870       127.2913 
 954   0.0000       4.681696       127.3954 
 955   0.0000       4.691541       127.6633 
 956   0.0000       4.708042       128.1123 
 957   0.0000       4.713225       128.2534 
 958   0.0000       4.722674       128.5105 
[...]
      dxz     :     0.138754
      dyz     :     0.127512
      dx2y2   :     0.301277
      dxy     :     0.291559
      f0      :     0.004291  f :     0.059101
      f+1     :     0.004439
      f-1     :     0.004738
      f+2     :     0.006276
      f-2     :     0.006160
      f+3     :     0.016936
      f-3     :     0.016261
 12 C s       :     2.643777  s :     2.643777
      pz      :     0.710499  p :     2.590625
      px      :     0.957090
      py      :     0.923035
      dz2     :     0.058603  d :     0.683246
      dxz     :     0.129837
      dyz     :     0.041126
      dx2y2   :     0.250959
      dxy     :     0.202721
      f0      :     0.002692  f :     0.044764
      f+1     :     0.003898
      f-1     :     0.003325
      f+2     :     0.003556
      f-2     :     0.006207
      f+3     :     0.012394
      f-3     :     0.012692
 13 H s       :     0.689782  s :     0.689782
      pz      :     0.071520  p :     0.261095
      px      :     0.119820
      py      :     0.069754
      dz2     :     0.002720  d :     0.029441
      dxz     :     0.007964
      dyz     :     0.000561
      dx2y2   :     0.008796
      dxy     :     0.009399
 14 C s       :     2.631693  s :     2.631693
      pz      :     0.699053  p :     2.560749
      px      :     0.917100
      py      :     0.944596
      dz2     :     0.062589  d :     0.706556
      dxz     :     0.045414
      dyz     :     0.139761
      dx2y2   :     0.247839
      dxy     :     0.210953
      f0      :     0.002829  f :     0.045098
      f+1     :     0.003386
      f-1     :     0.004039
      f+2     :     0.003404
      f-2     :     0.006784
      f+3     :     0.012038
      f-3     :     0.012618
 15 C s       :     2.641449  s :     2.641449
      pz      :     0.725293  p :     2.602250
      px      :     0.939756
      py      :     0.937201
      dz2     :     0.058891  d :     0.674141
      dxz     :     0.083429
      dyz     :     0.077877
      dx2y2   :     0.174535
      dxy     :     0.279409
      f0      :     0.002682  f :     0.044733
      f+1     :     0.003678
      f-1     :     0.003668
      f+2     :     0.007200
      f-2     :     0.002136
      f+3     :     0.012506
      f-3     :     0.012863
 16 H s       :     0.705117  s :     0.705117
      pz      :     0.070710  p :     0.257704
      px      :     0.069220
      py      :     0.117774
      dz2     :     0.002731  d :     0.028943
      dxz     :     0.000631
      dyz     :     0.007492
      dx2y2   :     0.008857
      dxy     :     0.009232
 17 H s       :     0.686367  s :     0.686367
      pz      :     0.076750  p :     0.295043
      px      :     0.123848
      py      :     0.094445
      dz2     :     0.002845  d :     0.029353
      dxz     :     0.007612
      dyz     :     0.000608
      dx2y2   :     0.009128
      dxy     :     0.009159
 18 H s       :     0.703962  s :     0.703962
      pz      :     0.071727  p :     0.257638
      px      :     0.093005
      py      :     0.092905
      dz2     :     0.002727  d :     0.029110
      dxz     :     0.004144
      dyz     :     0.004194
      dx2y2   :     0.009389
      dxy     :     0.008657
 19 C s       :     2.690560  s :     2.690560
      pz      :     0.758864  p :     2.637920
      px      :     0.861679
      py      :     1.017377
      dz2     :     0.111620  d :     0.942085
      dxz     :     0.120899
      dyz     :     0.221244
      dx2y2   :     0.228427
      dxy     :     0.259895
      f0      :     0.005525  f :     0.054151
      f+1     :     0.003137
      f-1     :     0.007050
      f+2     :     0.005628
      f-2     :     0.007209
      f+3     :     0.013351
      f-3     :     0.012249
 20 C s       :     2.755689  s :     2.755689
      pz      :     0.860993  p :     2.465391
      px      :     0.588502
      py      :     1.015896
      dz2     :     0.075583  d :     0.532844
      dxz     :     0.085561
      dyz     :     0.067514
      dx2y2   :     0.193156
      dxy     :     0.111029
      f0      :     0.002780  f :     0.034032
      f+1     :     0.001769
      f-1     :     0.005116
      f+2     :     0.001926
      f-2     :     0.003686
      f+3     :     0.007915
      f-3     :     0.010841
 21 H s       :     0.699718  s :     0.699718
      pz      :     0.082764  p :     0.281404
      px      :     0.067774
      py      :     0.130866
      dz2     :     0.003538  d :     0.028827
      dxz     :     0.000490
      dyz     :     0.009644
      dx2y2   :     0.009503
      dxy     :     0.005652
 22 Aus       :     2.246083  s :     2.246083
      pz      :     2.369962  p :     6.853497
      px      :     2.338821
      py      :     2.144714
      dz2     :     1.781660  d :     9.521505
      dxz     :     1.919231
      dyz     :     2.005211
      dx2y2   :     1.920629
      dxy     :     1.894774
      f0      :     0.028784  f :     0.126007
      f+1     :     0.032292
      f-1     :     0.017072
      f+2     :     0.011605
      f-2     :     0.010185
      f+3     :     0.010521
      f-3     :     0.015548
      g0      :     0.000258  g :     0.001656
      g+1     :     0.000307
      g-1     :     0.000216
      g+2     :     0.000188
      g-2     :     0.000158
      g+3     :     0.000079
      g-3     :     0.000111
      g+4     :     0.000157
      g-4     :     0.000182
 23 Cls       :     5.690093  s :     5.690093
      pz      :     3.502856  p :    11.183787
      px      :     3.832633
      py      :     3.848298
      dz2     :     0.053343  d :     0.182607
      dxz     :     0.061227
      dyz     :     0.033552
      dx2y2   :     0.023194
      dxy     :     0.011292
      f0      :     0.001798  f :     0.006010
      f+1     :     0.001508
      f-1     :     0.001375
      f+2     :     0.000613
      f-2     :     0.000585
      f+3     :     0.000069
      f-3     :     0.000063
 24 Cls       :     5.700530  s :     5.700530
      pz      :     3.876611  p :    11.222853
      px      :     3.503128
      py      :     3.843114
      dz2     :     0.030831  d :     0.194918
      dxz     :     0.062009
      dyz     :     0.017325
      dx2y2   :     0.048990
      dxy     :     0.035763
      f0      :     0.000619  f :     0.006107
      f+1     :     0.001051
      f-1     :     0.000168
      f+2     :     0.000866
      f-2     :     0.000572
      f+3     :     0.001368
      f-3     :     0.001464
 25 Cls       :     5.683699  s :     5.683699
      pz      :     3.510779  p :    11.164958
      px      :     3.825789
      py      :     3.828390
      dz2     :     0.055685  d :     0.187409
      dxz     :     0.058382
      dyz     :     0.044219
      dx2y2   :     0.016626
      dxy     :     0.012497
      f0      :     0.001770  f :     0.005894
      f+1     :     0.001475
      f-1     :     0.001372
      f+2     :     0.000590
      f-2     :     0.000562
      f+3     :     0.000062
      f-3     :     0.000062
 26 O s       :     3.163851  s :     3.163851
      pz      :     1.470943  p :     4.297154
      px      :     1.481591
      py      :     1.344620
      dz2     :     0.092113  d :     0.541669
      dxz     :     0.076532
      dyz     :     0.130607
      dx2y2   :     0.128814
      dxy     :     0.113602
      f0      :     0.001021  f :     0.006874
      f+1     :     0.000586
      f-1     :     0.001103
      f+2     :     0.000804
      f-2     :     0.001404
      f+3     :     0.000964
      f-3     :     0.000992
 27 O s       :     3.164013  s :     3.164013
      pz      :     1.456517  p :     4.290976
      px      :     1.374722
      py      :     1.459737
      dz2     :     0.095233  d :     0.541333
      dxz     :     0.121015
      dyz     :     0.090836
      dx2y2   :     0.121620
      dxy     :     0.112629
      f0      :     0.001058  f :     0.006907
      f+1     :     0.001093
      f-1     :     0.000697
      f+2     :     0.000770
      f-2     :     0.001385
      f+3     :     0.000863
      f-3     :     0.001041
 28 C s       :     2.628064  s :     2.628064
      pz      :     0.929383  p :     2.557963
      px      :     0.833490
      py      :     0.795090
      dz2     :     0.094703  d :     0.620556
      dxz     :     0.047837
      dyz     :     0.177192
      dx2y2   :     0.167976
      dxy     :     0.132848
      f0      :     0.005773  f :     0.064766
      f+1     :     0.007585
      f-1     :     0.008382
      f+2     :     0.003273
      f-2     :     0.010050
      f+3     :     0.012776
      f-3     :     0.016926
 29 H s       :     0.693305  s :     0.693305
      pz      :     0.119526  p :     0.263699
      px      :     0.060442
      py      :     0.083731
      dz2     :     0.008812  d :     0.028969
      dxz     :     0.005257
      dyz     :     0.008716
      dx2y2   :     0.002814
      dxy     :     0.003371
 30 H s       :     0.702539  s :     0.702539
      pz      :     0.112637  p :     0.254068
      px      :     0.065029
      py      :     0.076402
      dz2     :     0.009488  d :     0.029342
      dxz     :     0.005358
      dyz     :     0.008424
      dx2y2   :     0.002672
      dxy     :     0.003400
 31 H s       :     0.692453  s :     0.692453
      pz      :     0.079835  p :     0.263968
      px      :     0.117799
      py      :     0.066334
      dz2     :     0.002885  d :     0.029009
      dxz     :     0.008498
      dyz     :     0.001699
      dx2y2   :     0.008194
      dxy     :     0.007733
 32 C s       :     2.628449  s :     2.628449
      pz      :     0.926004  p :     2.558333
      px      :     0.820396
      py      :     0.811933
      dz2     :     0.094528  d :     0.620913
      dxz     :     0.164063
      dyz     :     0.061852
      dx2y2   :     0.156323
      dxy     :     0.144147
      f0      :     0.005583  f :     0.064856
      f+1     :     0.008050
      f-1     :     0.008370
      f+2     :     0.004201
      f-2     :     0.009183
      f+3     :     0.016470
      f-3     :     0.012999
 33 H s       :     0.702805  s :     0.702805
      pz      :     0.113328  p :     0.254104
      px      :     0.078661
      py      :     0.062115
      dz2     :     0.009673  d :     0.029346
      dxz     :     0.008540
      dyz     :     0.005355
      dx2y2   :     0.002467
      dxy     :     0.003312
 34 H s       :     0.692580  s :     0.692580
      pz      :     0.080466  p :     0.263913
      px      :     0.073843
      py      :     0.109604
      dz2     :     0.002929  d :     0.029005
      dxz     :     0.002645
      dyz     :     0.007638
      dx2y2   :     0.007948
      dxy     :     0.007845
 35 H s       :     0.693745  s :     0.693745
      pz      :     0.116914  p :     0.263895
      px      :     0.089391
      py      :     0.057591
      dz2     :     0.008333  d :     0.028972
      dxz     :     0.008720
      dyz     :     0.005033
      dx2y2   :     0.003176
      dxy     :     0.003711


                      *****************************
                      * MAYER POPULATION ANALYSIS *
                      *****************************

  NA   - Mulliken gross atomic population
  ZA   - Total nuclear charge
  QA   - Mulliken gross atomic charge
  VA   - Mayer's total valence
  BVA  - Mayer's bonded valence
  FA   - Mayer's free valence

  ATOM       NA         ZA         QA         VA         BVA        FA
  0 C      4.5134     6.0000     1.4866    -1.4183    -1.4183    -0.0000
  1 C      6.3000     6.0000    -0.3000     3.2608     3.2608     0.0000
  2 C      5.7974     6.0000     0.2026     3.2851     3.2851     0.0000
  3 C      6.0245     6.0000    -0.0245     3.5957     3.5957     0.0000
  4 C      5.8087     6.0000     0.1913     3.4652     3.4652    -0.0000
  5 C      6.5116     6.0000    -0.5116     3.4973     3.4973     0.0000
  6 H      1.0045     1.0000    -0.0045     1.1112     1.1112     0.0000
  7 H      1.1510     1.0000    -0.1510     0.9620     0.9620     0.0000
  8 H      1.0554     1.0000    -0.0554     1.0448     1.0448     0.0000
  9 C      5.6958     6.0000     0.3042     0.0203     0.0203    -0.0000
 10 C      6.0113     6.0000    -0.0113     3.2404     3.2404     0.0000
 11 C      5.0828     6.0000     0.9172     0.0735     0.0735     0.0000
 12 C      6.1440     6.0000    -0.1440     3.4246     3.4246     0.0000
 13 H      1.0414     1.0000    -0.0414     0.9577     0.9577     0.0000
 14 C      6.1501     6.0000    -0.1501     3.2227     3.2227    -0.0000
 15 C      6.1634     6.0000    -0.1634     3.4434     3.4434     0.0000
 16 H      1.0199     1.0000    -0.0199     0.9310     0.9310     0.0000
 17 H      1.1743     1.0000    -0.1743     0.9798     0.9798    -0.0000
 18 H      1.0236     1.0000    -0.0236     0.9425     0.9425    -0.0000
 19 C      5.7320     6.0000     0.2680     1.6842     1.6842     0.0000
 20 C      5.6106     6.0000     0.3894     2.8988     2.8988     0.0000
 21 H      1.1560     1.0000    -0.1560     1.1416     1.1416     0.0000
 22 Au    18.9983    19.0000     0.0017     2.9564     2.9564     0.0000
 23 Cl    17.4595    17.0000    -0.4595     0.8477     0.8477     0.0000
 24 Cl    17.4144    17.0000    -0.4144     0.8985     0.8985     0.0000
 25 Cl    17.4749    17.0000    -0.4749     0.8388     0.8388    -0.0000
 26 O      8.3247     8.0000    -0.3247     1.6385     1.6385     0.0000
 27 O      8.3215     8.0000    -0.3215     1.6529     1.6529    -0.0000
 28 C      6.2207     6.0000    -0.2207     3.9585     3.9585     0.0000
 29 H      0.8791     1.0000     0.1209     1.0162     1.0162     0.0000
 30 H      0.9612     1.0000     0.0388     1.0604     1.0604     0.0000
 31 H      0.8658     1.0000     0.1342     1.0001     1.0001     0.0000
 32 C      6.1856     6.0000    -0.1856     3.9512     3.9512    -0.0000
 33 H      0.9647     1.0000     0.0353     1.0581     1.0581    -0.0000
 34 H      0.8759     1.0000     0.1241     1.0136     1.0136    -0.0000
 35 H      0.8821     1.0000     0.1179     1.0125     1.0125    -0.0000

  Mayer bond orders larger than 0.100000
B(  0-C ,  1-C ) :   0.2210 B(  0-C ,  3-C ) :  -0.4091 B(  0-C ,  5-C ) :   0.6907 
B(  0-C ,  6-H ) :  -0.4829 B(  0-C ,  8-H ) :  -0.2229 B(  0-C ,  9-C ) :  -0.9782 
B(  0-C , 10-C ) :  -0.1303 B(  0-C , 12-C ) :  -0.2462 B(  0-C , 14-C ) :  -0.1259 
B(  0-C , 15-C ) :   0.1269 B(  0-C , 19-C ) :  -0.1376 B(  0-C , 20-C ) :   0.1524 
B(  1-C ,  2-C ) :   0.9879 B(  1-C ,  5-C ) :   0.2909 B(  1-C ,  6-H ) :   1.3165 
B(  1-C , 10-C ) :   0.5484 B(  1-C , 12-C ) :  -0.1348 B(  1-C , 14-C ) :  -0.1086 
B(  1-C , 20-C ) :   0.1873 B(  1-C , 26-O ) :  -0.1371 B(  2-C ,  3-C ) :   1.4002 
B(  2-C ,  4-C ) :   0.2265 B(  2-C ,  6-H ) :   0.2674 B(  2-C ,  7-H ) :  -0.1285 
B(  2-C ,  9-C ) :  -0.1569 B(  2-C , 10-C ) :  -0.3804 B(  2-C , 12-C ) :   0.1292 
B(  2-C , 14-C ) :   0.1601 B(  2-C , 26-O ) :   0.8554 B(  3-C ,  4-C ) :   1.2980 
B(  3-C ,  7-H ) :   1.0923 B(  3-C ,  9-C ) :   0.3255 B(  3-C , 10-C ) :   0.1738 
B(  4-C ,  5-C ) :   1.3112 B(  4-C ,  9-C ) :  -0.1972 B(  4-C , 10-C ) :  -0.2307 
B(  4-C , 11-C ) :   0.1089 B(  4-C , 27-O ) :   0.9402 B(  5-C ,  6-H ) :  -0.1123 
B(  5-C ,  8-H ) :   1.1520 B(  5-C , 10-C ) :   0.3641 B(  5-C , 11-C ) :  -0.1373 
B(  5-C , 14-C ) :  -0.1292 B(  5-C , 20-C ) :   0.1278 B(  9-C , 10-C ) :   0.3394 
B(  9-C , 11-C ) :   0.6919 B(  9-C , 12-C ) :   0.1505 B(  9-C , 13-H ) :  -0.2057 
B(  9-C , 19-C ) :  -0.1201 B( 10-C , 11-C ) :   0.1054 B( 10-C , 12-C ) :   1.2443 
B( 10-C , 13-H ) :   1.1381 B( 11-C , 14-C ) :   0.8348 B( 11-C , 17-H ) :  -0.3620 
B( 11-C , 19-C ) :  -0.3524 B( 11-C , 20-C ) :   0.2662 B( 11-C , 22-Au) :  -0.6492 
B( 11-C , 25-Cl) :  -0.2521 B( 12-C , 15-C ) :   1.2033 B( 12-C , 16-H ) :   1.1321 
B( 12-C , 18-H ) :  -0.1065 B( 14-C , 15-C ) :   1.2306 B( 14-C , 17-H ) :   1.2367 
B( 15-C , 16-H ) :  -0.1007 B( 15-C , 18-H ) :   1.1368 B( 19-C , 20-C ) :   1.4949 
B( 19-C , 21-H ) :  -0.3230 B( 19-C , 22-Au) :   0.5362 B( 19-C , 25-Cl) :   0.3292 
B( 20-C , 21-H ) :   1.3487 B( 20-C , 23-Cl) :  -0.3535 B( 20-C , 25-Cl) :  -0.3942 
B( 22-Au, 23-Cl) :   1.0200 B( 22-Au, 24-Cl) :   0.8305 B( 22-Au, 25-Cl) :   1.0171 
B( 23-Cl, 25-Cl) :   0.1232 B( 26-O , 28-C ) :   0.9083 B( 27-O , 32-C ) :   0.8963 
B( 28-C , 29-H ) :   0.9699 B( 28-C , 30-H ) :   1.0991 B( 28-C , 31-H ) :   0.9752 
B( 32-C , 33-H ) :   1.0947 B( 32-C , 34-H ) :   0.9784 B( 32-C , 35-H ) :   0.9764 


-------
TIMINGS
-------

Total SCF time: 0 days 0 hours 33 min 24 sec 

Total time                  ....    2004.208 sec
Sum of individual times     ....    2001.906 sec  ( 99.9%)

Fock matrix formation       ....    1991.169 sec  ( 99.3%)
  XC integration            ....      11.201 sec  (  0.6% of F)
    Basis function eval.    ....       1.918 sec  ( 17.1% of XC)
    Density eval.           ....       4.115 sec  ( 36.7% of XC)
    XC-Functional eval.     ....       0.145 sec  (  1.3% of XC)
    XC-Potential eval.      ....       3.707 sec  ( 33.1% of XC)
Diagonalization             ....       3.364 sec  (  0.2%)
Density matrix formation    ....       0.196 sec  (  0.0%)
Population analysis         ....       0.312 sec  (  0.0%)
Initial guess               ....       2.254 sec  (  0.1%)
Orbital Transformation      ....       0.000 sec  (  0.0%)
Orbital Orthonormalization  ....       0.000 sec  (  0.0%)
DIIS solution               ....       3.431 sec  (  0.2%)
Grid generation             ....       1.181 sec  (  0.1%)

-------------------------   --------------------
FINAL SINGLE POINT ENERGY     -2284.748405438585
-------------------------   --------------------


                            ***************************************
                            *     ORCA property calculations      *
                            ***************************************

                                    ---------------------
                                    Active property flags
                                    ---------------------
   (+) Dipole Moment


------------------------------------------------------------------------------
                       ORCA ELECTRIC PROPERTIES CALCULATION
------------------------------------------------------------------------------

Dipole Moment Calculation                       ... on
Quadrupole Moment Calculation                   ... off
Polarizability Calculation                      ... off
GBWName                                         ... TMB26_T1.gbw
Electron density file                           ... TMB26_T1.scfp
The origin for moment calculation is the CENTER OF MASS  = ( 0.485035, -0.082092 -0.032589)

-------------
DIPOLE MOMENT
-------------
                                X             Y             Z
Electronic contribution:    332.54220     -71.58785     -21.67363
Nuclear contribution   :   -337.50313      71.82916      22.27008
                        -----------------------------------------
Total Dipole Moment    :     -4.96093       0.24132       0.59645
                        -----------------------------------------
Magnitude (a.u.)       :      5.00248
Magnitude (Debye)      :     12.71529



--------------------
Rotational spectrum 
--------------------
 
Rotational constants in cm-1:     0.008801     0.003370     0.003018 
Rotational constants in MHz :   263.837003   101.042363    90.466575 

 Dipole components along the rotational axes: 
x,y,z [a.u.] :     4.969589     0.088144     0.565880 
x,y,z [Debye]:    12.631692     0.224045     1.438353 

 

Timings for individual modules:

Sum of individual times         ...     2009.212 sec (=  33.487 min)
GTO integral calculation        ...        4.554 sec (=   0.076 min)   0.2 %
SCF iterations                  ...     2004.658 sec (=  33.411 min)  99.8 %
                             ****ORCA TERMINATED NORMALLY****
TOTAL RUN TIME: 0 days 0 hours 33 minutes 29 seconds 918 msec
