
                                 *****************
                                 * O   R   C   A *
                                 *****************

           --- An Ab Initio, DFT and Semiempirical electronic structure package ---

                  #######################################################
                  #                        -***-                        #
                  #          Department of theory and spectroscopy      #
                  #               Directorship: Frank Neese             #
                  #        Max Planck Institute fuer Kohlenforschung    #
                  #                Kaiser Wilhelm Platz 1               #
                  #                 D-45470 Muelheim/Ruhr               #
                  #                      Germany                        #
                  #                                                     #
                  #                  All rights reserved                #
                  #                        -***-                        #
                  #######################################################


                         Program Version 4.2.0 -  RELEASE  -


 With contributions from (in alphabetic order):
   Daniel Aravena         : Magnetic Suceptibility
   Michael Atanasov       : Ab Initio Ligand Field Theory (pilot matlab implementation)
   Alexander A. Auer      : GIAO ZORA, VPT2
   Ute Becker             : Parallelization
   Giovanni Bistoni       : ED, misc. LED, open-shell LED, HFLED
   Martin Brehm           : Molecular dynamics
   Dmytro Bykov           : SCF Hessian
   Vijay G. Chilkuri      : MRCI spin determinant printing, contributions to CSF-ICE
   Dipayan Datta          : RHF DLPNO-CCSD density
   Achintya Kumar Dutta   : EOM-CC, STEOM-CC
   Dmitry Ganyushin       : Spin-Orbit,Spin-Spin,Magnetic field MRCI
   Miquel Garcia          : C-PCM Hessian, Gaussian charge scheme
   Yang Guo               : DLPNO-NEVPT2, CIM, IAO-localization
   Andreas Hansen         : Spin unrestricted coupled pair/coupled cluster methods
   Benjamin Helmich-Paris : CASSCF linear response (MC-RPA)
   Lee Huntington         : MR-EOM, pCC
   Robert Izsak           : Overlap fitted RIJCOSX, COSX-SCS-MP3, EOM
   Christian Kollmar      : KDIIS, OOCD, Brueckner-CCSD(T), CCSD density
   Simone Kossmann        : Meta GGA functionals, TD-DFT gradient, OOMP2, MP2 Hessian
   Martin Krupicka        : AUTO-CI
   Lucas Lang             : DCDCAS
   Dagmar Lenk            : GEPOL surface, SMD
   Dimitrios Liakos       : Extrapolation schemes; Compound Job, initial MDCI parallelization
   Dimitrios Manganas     : Further ROCIS development; embedding schemes
   Dimitrios Pantazis     : SARC Basis sets
   Taras Petrenko         : DFT Hessian,TD-DFT gradient, ASA, ECA, R-Raman, ABS, FL, XAS/XES, NRVS
   Peter Pinski           : DLPNO-MP2, DLPNO-MP2 Gradient
   Christoph Reimann      : Effective Core Potentials
   Marius Retegan         : Local ZFS, SOC
   Christoph Riplinger    : Optimizer, TS searches, QM/MM, DLPNO-CCSD(T), (RO)-DLPNO pert. Triples
   Tobias Risthaus        : Range-separated hybrids, TD-DFT gradient, RPA, STAB
   Michael Roemelt        : Original ROCIS implementation
   Masaaki Saitow         : Open-shell DLPNO-CCSD energy and density
   Barbara Sandhoefer     : DKH picture change effects
   Avijit Sen             : IP-ROCIS
   Kantharuban Sivalingam : CASSCF convergence, NEVPT2, FIC-MRCI
   Bernardo de Souza      : ESD, SOC TD-DFT
   Georgi Stoychev        : AutoAux, RI-MP2 NMR
   Willem Van den Heuvel  : Paramagnetic NMR
   Boris Wezisla          : Elementary symmetry handling
   Frank Wennmohs         : Technical directorship


 We gratefully acknowledge several colleagues who have allowed us to
 interface, adapt or use parts of their codes:
   Stefan Grimme, W. Hujo, H. Kruse,             : VdW corrections, initial TS optimization,
                  C. Bannwarth                     DFT functionals, gCP, sTDA/sTD-DF
   Ed Valeev, F. Pavosevic, A. Kumar             : LibInt (2-el integral package), F12 methods
   Garnet Chan, S. Sharma, J. Yang, R. Olivares  : DMRG
   Ulf Ekstrom                                   : XCFun DFT Library
   Mihaly Kallay                                 : mrcc  (arbitrary order and MRCC methods)
   Andreas Klamt, Michael Diedenhofen            : otool_cosmo (COSMO solvation model)
   Jiri Pittner, Ondrej Demel                    : Mk-CCSD
   Frank Weinhold                                : gennbo (NPA and NBO analysis)
   Christopher J. Cramer and Donald G. Truhlar   : smd solvation model
   Lars Goerigk                                  : TD-DFT with DH, B97 family of functionals
   V. Asgeirsson, H. Jonsson                     : NEB implementation
   FAccTs GmbH                                   : IRC, NEB, NEB-TS, Multilevel, MM, QM/MM, CI optimization
   S Lehtola, MJT Oliveira, MAL Marques          : LibXC Library


 Your calculation uses the libint2 library for the computation of 2-el integrals
 For citations please refer to: http://libint.valeyev.net

 Your ORCA version has been built with support for libXC version: 4.2.3
 For citations please refer to: https://tddft.org/programs/libxc/

 This ORCA versions uses:
   CBLAS   interface :  Fast vector & matrix operations
   LAPACKE interface :  Fast linear algebra routines
   SCALAPACK package :  Parallel linear algebra routines


Your calculation utilizes the DFT-NL dispersion correction.
Cite in your paper:
Vydrov, O. A.; Van Voorhis, T. J. Chem. Phys. 2010, 133, 244103
Hujo, W.; Grimme, S. J. Chem. Theory Comput. 2011, 7, 3866 
   

----- Orbital basis set information -----
Your calculation utilizes the basis: def2-TZVPPD
   F. Weigend and R. Ahlrichs, Phys. Chem. Chem. Phys. 7, 3297 (2005).
   D. Rappoport and F. Furche, J. Chem. Phys. 133 134105 (2010).

----- AuxJK basis set information -----
Your calculation utilizes the auxiliary basis: def2/JK
   H-Ba, Hf-Rn: F. Weigend, J. Comput. Chem. 29, 167 (2008).

cite the ECPs for Re [Def2-ECP] as follows:
Ce-Yb(ecp-28): M. Dolg, H. Stoll, H.Preuss, J. Chem. Phys., 1989, 90, 1730-1734.
Y-Cd(ecp-28), Hf-Hg(ecp-46): D. Andrae,U. Haeussermann, M. Dolg, H. Stoll, H. Preuss, Theor. Chim. Acta, 1990, 77, 123-141.
In-Sb(ecp-28), Tl-Bi(ecp-46): B. Metz, H. Stoll, M. Dolg, J. Chem. Phys., 2000, 113, 2563-2569.
Te-Xe(ecp-28), Po-Rn(ecp-46): K. A. Peterson, D. Figgen, E. Goll, H. Stoll, M. Dolg, J. Chem. Phys., 2003, 119, 11113-11123.
Rb(ecp-28), Cs(ecp-46): T. Leininger, A. Nicklass, W. Kuechle, H. Stoll, M. Dolg, A. Bergner, Chem. Phys. Lett., 1996, 255, 274-280.
Sr(ecp-28), Ba(ecp-46): M. Kaupp, P. V. Schleyer, H. Stoll and H. Preuss, J. Chem. Phys., 1991, 94, 1360-1366.
La(ecp-46): M. Dolg, H. Stoll, A. Savin, H. Preuss, Theor. Chim. Acta, 1989, 75, 173-194.
Lu(ecp-28): X. Cao, M. Dolg, J. Chem. Phys., 2001, 115, 7348-7355.

ECP parameters for Re [Def2-ECP] have been obtained from:
TURBOMOLE (7.0.2)

================================================================================
                                        WARNINGS
                       Please study these warnings very carefully!
================================================================================


INFO   : the flag for use of LIBINT has been found!

================================================================================
                                       INPUT FILE
================================================================================
NAME = TMB20_I1.in
|  1> #
|  2> # TMB20_I1 wB97X-V/Def2-TZVPPD
|  3> #
|  4> ! wb97x-v def2-tzvppd def2/jk grid4 nofinalgrid
|  5> 
|  6> *xyz 0 1
|  7> Re       0.721260    0.301703   -0.012347 
|  8> C        1.851141    0.452958   -1.678261 
|  9> C        1.971728    0.634914    1.425372 
| 10> C        0.763580    2.214165   -0.101283 
| 11> Br       1.710512   -2.064741    0.019177 
| 12> O        0.816608    3.358474   -0.166463 
| 13> O        2.493283    0.513036   -2.612271 
| 14> O        2.652573    0.808904    2.320449 
| 15> C       -1.780395   -0.133590    1.665167 
| 16> C       -0.470905   -0.371203    1.638632 
| 17> C       -2.365069    0.652857    0.526821 
| 18> C       -3.493010   -0.159458   -0.075600 
| 19> O       -3.300943   -1.161632   -0.733339 
| 20> O       -4.693453    0.297769    0.229376 
| 21> C       -1.280010    0.876972   -0.512116 
| 22> O       -0.953000   -0.240509   -1.297416 
| 23> H       -1.566319   -0.977006   -1.049921 
| 24> C       -5.797043   -0.483161   -0.244906 
| 25> H       -6.688437    0.024549    0.111717 
| 26> H       -5.787691   -0.527184   -1.333247 
| 27> H       -5.742358   -1.494851    0.155119 
| 28> H       -0.050439   -0.962173    2.449658 
| 29> H       -2.758296    1.619346    0.851818 
| 30> H       -2.454065   -0.501260    2.435709 
| 31> H       -1.435420    1.741704   -1.151672 
| 32> *
| 33> 
| 34> %maxcore 5000
| 35> 
| 36> %pal
| 37> nprocs = 24
| 38> end
| 39> 
| 40> 
| 41>                          ****END OF INPUT****
================================================================================

                       ****************************
                       * Single Point Calculation *
                       ****************************

---------------------------------
CARTESIAN COORDINATES (ANGSTROEM)
---------------------------------
  Re     0.721260    0.301703   -0.012347
  C      1.851141    0.452958   -1.678261
  C      1.971728    0.634914    1.425372
  C      0.763580    2.214165   -0.101283
  Br     1.710512   -2.064741    0.019177
  O      0.816608    3.358474   -0.166463
  O      2.493283    0.513036   -2.612271
  O      2.652573    0.808904    2.320449
  C     -1.780395   -0.133590    1.665167
  C     -0.470905   -0.371203    1.638632
  C     -2.365069    0.652857    0.526821
  C     -3.493010   -0.159458   -0.075600
  O     -3.300943   -1.161632   -0.733339
  O     -4.693453    0.297769    0.229376
  C     -1.280010    0.876972   -0.512116
  O     -0.953000   -0.240509   -1.297416
  H     -1.566319   -0.977006   -1.049921
  C     -5.797043   -0.483161   -0.244906
  H     -6.688437    0.024549    0.111717
  H     -5.787691   -0.527184   -1.333247
  H     -5.742358   -1.494851    0.155119
  H     -0.050439   -0.962173    2.449658
  H     -2.758296    1.619346    0.851818
  H     -2.454065   -0.501260    2.435709
  H     -1.435420    1.741704   -1.151672

----------------------------
CARTESIAN COORDINATES (A.U.)
----------------------------
  NO LB      ZA    FRAG     MASS         X           Y           Z
   0 Re   15.0000*   0   186.207    1.362984    0.570136   -0.023332
   1 C     6.0000    0    12.011    3.498150    0.855967   -3.171454
   2 C     6.0000    0    12.011    3.726026    1.199814    2.693563
   3 C     6.0000    0    12.011    1.442957    4.184165   -0.191397
   4 Br   35.0000    0    79.900    3.232399   -3.901795    0.036239
   5 O     8.0000    0    15.999    1.543165    6.346596   -0.314569
   6 O     8.0000    0    15.999    4.711622    0.969498   -4.936477
   7 O     8.0000    0    15.999    5.012637    1.528607    4.385013
   8 C     6.0000    0    12.011   -3.364459   -0.252449    3.146710
   9 C     6.0000    0    12.011   -0.889881   -0.701472    3.096566
  10 C     6.0000    0    12.011   -4.469333    1.233721    0.995547
  11 C     6.0000    0    12.011   -6.600832   -0.301332   -0.142863
  12 O     8.0000    0    15.999   -6.237878   -2.195166   -1.385810
  13 O     8.0000    0    15.999   -8.869341    0.562702    0.433458
  14 C     6.0000    0    12.011   -2.418868    1.657237   -0.967759
  15 O     8.0000    0    15.999   -1.800909   -0.454496   -2.451761
  16 H     1.0000    0     1.008   -2.959914   -1.846274   -1.984063
  17 C     6.0000    0    12.011  -10.954824   -0.913042   -0.462805
  18 H     1.0000    0     1.008  -12.639314    0.046391    0.211115
  19 H     1.0000    0     1.008  -10.937151   -0.996233   -2.519472
  20 H     1.0000    0     1.008  -10.851484   -2.824859    0.293132
  21 H     1.0000    0     1.008   -0.095316   -1.818243    4.629183
  22 H     1.0000    0     1.008   -5.212424    3.060120    1.609703
  23 H     1.0000    0     1.008   -4.637511   -0.947244    4.602823
  24 H     1.0000    0     1.008   -2.712551    3.291344   -2.176345
* core charge reduced due to ECP

--------------------------------
INTERNAL COORDINATES (ANGSTROEM)
--------------------------------
 Re     0   0   0     0.000000000000     0.00000000     0.00000000
 C      1   0   0     2.018608085930     0.00000000     0.00000000
 C      1   2   0     1.934356666312   103.80654022     0.00000000
 C      1   2   3     1.914996474133    82.78873306    79.12564351
 Br     1   2   3     2.565086838143    82.14904570   277.89406674
 O      4   1   2     1.147389859056   178.49391541   327.51252020
 O      2   1   3     1.135046428279   178.68609495    85.33200211
 O      3   1   2     1.137974195689   176.12648842   189.59702686
 C      1   2   3     3.043322354774   157.77851098   179.94088692
 C      9   1   2     1.331137898226    37.42944185   142.11684556
 C      9   1   2     1.502056651995    80.05745056   320.38587205
 C     11   9   1     1.514931556192   108.08544047   123.96679349
 O     12  11   9     1.214027615372   122.70308766   288.28179310
 O     12  11   9     1.320276594640   113.54196190   105.72491438
 C     11   9   1     1.518871507625   108.51615153     4.92357813
 O     15  11   9     1.404419956943   115.55716524    75.06443266
 H     16  15  11     0.989869588277   107.93539870     3.93651329
 C     14  12  11     1.432726759897   115.79356577   183.80260110
 H     18  14  12     1.086062922424   105.58700129   178.86376631
 H     18  14  12     1.089271140127   110.25308027   298.51319643
 H     18  14  12     1.089278250012   110.24300066    59.16322117
 H     10   9   1     1.088025905359   117.53306695   183.42949817
 H     11   9   1     1.092863903082   112.19249287   244.09671328
 H      9   1   2     1.087541940140   161.45769375   131.12866136
 H     15  11   9     1.086713199082   114.69643541   204.22702384

---------------------------
INTERNAL COORDINATES (A.U.)
---------------------------
 Re     0   0   0     0.000000000000     0.00000000     0.00000000
 C      1   0   0     3.814616454127     0.00000000     0.00000000
 C      1   2   0     3.655404344655   103.80654022     0.00000000
 C      1   2   3     3.618818883535    82.78873306    79.12564351
 Br     1   2   3     4.847311633817    82.14904570   277.89406674
 O      4   1   2     2.168252602455   178.49391541   327.51252020
 O      2   1   3     2.144926898732   178.68609495    85.33200211
 O      3   1   2     2.150459577321   176.12648842   189.59702686
 C      1   2   3     5.751045787764   157.77851098   179.94088692
 C      9   1   2     2.515486074131    37.42944185   142.11684556
 C      9   1   2     2.838475709904    80.05745056   320.38587205
 C     11   9   1     2.862805752838   108.08544047   123.96679349
 O     12  11   9     2.294179712071   122.70308766   288.28179310
 O     12  11   9     2.494961184896   113.54196190   105.72491438
 C     11   9   1     2.870251182027   108.51615153     4.92357813
 O     15  11   9     2.653969095637   115.55716524    75.06443266
 H     16  15  11     1.870582430140   107.93539870     3.93651329
 C     14  12  11     2.707461200945   115.79356577   183.80260110
 H     18  14  12     2.052361487588   105.58700129   178.86376631
 H     18  14  12     2.058424140425   110.25308027   298.51319643
 H     18  14  12     2.058437576160   110.24300066    59.16322117
 H     10   9   1     2.056070987740   117.53306695   183.42949817
 H     11   9   1     2.065213478473   112.19249287   244.09671328
 H      9   1   2     2.055156426018   161.45769375   131.12866136
 H     15  11   9     2.053590332383   114.69643541   204.22702384

---------------------
BASIS SET INFORMATION
---------------------
There are 5 groups of distinct atoms

 Group   1 Type Re  : 8s8p6d2f1g contracted to 6s5p3d2f1g pattern {311111/41111/411/11/1}
 Group   2 Type C   : 12s6p3d1f contracted to 6s3p3d1f pattern {621111/411/111/1}
 Group   3 Type Br  : 18s14p9d1f contracted to 7s6p5d1f pattern {8421111/641111/51111/1}
 Group   4 Type O   : 12s7p3d1f contracted to 6s4p3d1f pattern {621111/4111/111/1}
 Group   5 Type H   : 5s3p1d contracted to 3s3p1d pattern {311/111/1}

Atom   0Re   basis set group =>   1
Atom   1C    basis set group =>   2
Atom   2C    basis set group =>   2
Atom   3C    basis set group =>   2
Atom   4Br   basis set group =>   3
Atom   5O    basis set group =>   4
Atom   6O    basis set group =>   4
Atom   7O    basis set group =>   4
Atom   8C    basis set group =>   2
Atom   9C    basis set group =>   2
Atom  10C    basis set group =>   2
Atom  11C    basis set group =>   2
Atom  12O    basis set group =>   4
Atom  13O    basis set group =>   4
Atom  14C    basis set group =>   2
Atom  15O    basis set group =>   4
Atom  16H    basis set group =>   5
Atom  17C    basis set group =>   2
Atom  18H    basis set group =>   5
Atom  19H    basis set group =>   5
Atom  20H    basis set group =>   5
Atom  21H    basis set group =>   5
Atom  22H    basis set group =>   5
Atom  23H    basis set group =>   5
Atom  24H    basis set group =>   5
----------------------------------
AUXILIARY/JK BASIS SET INFORMATION
----------------------------------
There are 5 groups of distinct atoms

 Group   1 Type Re  : 13s12p11d9f5g3h2i contracted to 11s9p9d7f4g3h2i pattern {31111111111/411111111/311111111/3111111/2111/111/11}
 Group   2 Type C   : 14s10p6d2f1g contracted to 10s8p5d1f1g pattern {5111111111/31111111/21111/2/1}
 Group   3 Type Br  : 20s14p13d10f7g3h contracted to 17s13p12d9f6g3h pattern {41111111111111111/2111111111111/211111111111/211111111/211111/111}
 Group   4 Type O   : 14s10p6d2f1g contracted to 10s8p4d2f1g pattern {5111111111/31111111/3111/11/1}
 Group   5 Type H   : 4s2p2d contracted to 2s2p2d pattern {31/11/11}

Atom   0Re   basis set group =>   1
Atom   1C    basis set group =>   2
Atom   2C    basis set group =>   2
Atom   3C    basis set group =>   2
Atom   4Br   basis set group =>   3
Atom   5O    basis set group =>   4
Atom   6O    basis set group =>   4
Atom   7O    basis set group =>   4
Atom   8C    basis set group =>   2
Atom   9C    basis set group =>   2
Atom  10C    basis set group =>   2
Atom  11C    basis set group =>   2
Atom  12O    basis set group =>   4
Atom  13O    basis set group =>   4
Atom  14C    basis set group =>   2
Atom  15O    basis set group =>   4
Atom  16H    basis set group =>   5
Atom  17C    basis set group =>   2
Atom  18H    basis set group =>   5
Atom  19H    basis set group =>   5
Atom  20H    basis set group =>   5
Atom  21H    basis set group =>   5
Atom  22H    basis set group =>   5
Atom  23H    basis set group =>   5
Atom  24H    basis set group =>   5
-------------------------
ECP PARAMETER INFORMATION
-------------------------

 Group 1, Type Re ECP Def2-ECP (replacing 60 core electrons, lmax=3)

Atom   0Re   ECP group =>   1



           ************************************************************
           *        Program running with 24 parallel MPI-processes    *
           *              working on a common directory               *
           ************************************************************
------------------------------------------------------------------------------
                           ORCA GTO INTEGRAL CALCULATION
------------------------------------------------------------------------------

                         BASIS SET STATISTICS AND STARTUP INFO

 # of primitive gaussian shells          ...  475
 # of primitive gaussian functions       ... 1147
 # of contracted shells                  ...  293
 # of contracted basis functions         ...  825
 Highest angular momentum                ...    4
 Maximum contraction depth               ...    8
 Integral package used                   ... LIBINT
 Integral threshhold            Thresh   ...  1.000e-10
 Primitive cut-off              TCut     ...  1.000e-11


------------------------------ INTEGRAL EVALUATION ----------------------------


 * One electron integrals 

   ECP integrals                         ... done
 Pre-screening matrix                    ... done
 Shell pair data                         ... done (   0.010 sec)



           ************************************************************
           *        Program running with 24 parallel MPI-processes    *
           *              working on a common directory               *
           ************************************************************
-------------------------------------------------------------------------------
                                 ORCA SCF
-------------------------------------------------------------------------------

------------
SCF SETTINGS
------------
Hamiltonian:
 Density Functional     Method          .... DFT(GTOs)
 Exchange Functional    Exchange        .... WB97X-V
 Correlation Functional Correlation     .... WB97X-V
 Gradients option       PostSCFGGA      .... off
 Hybrid DFT is turned on
   Fraction HF Exchange ScalHFX         ....  0.167000
   Scaling of DF-GGA-X  ScalDFX         ....  0.000000
   Scaling of DF-GGA-C  ScalDFC         ....  1.000000
   Scaling of DF-LDA-C  ScalLDAC        ....  1.000000
   Perturbative correction              ....  0.000000
   Density functional embedding theory  .... OFF
 Long-range corrected/Screened/Range-Separated Hybrid DFT is turned on
   Amount of maximum screened exact exchange              ....  0.833000
   Range separation parameter mu (erf(mu*r12)/r12)        ....  0.300000
   NL short-range parameter             ....  6.000000
   NL long-range parameter              ....  0.010000


General Settings:
 Integral files         IntName         .... TMB20_I1
 Hartree-Fock type      HFTyp           .... RHF
 Total Charge           Charge          ....    0
 Multiplicity           Mult            ....    1
 Number of Electrons    NEL             ....  160
 Basis Dimension        Dim             ....  825
 Nuclear Repulsion      ENuc            ....   1785.3687109308 Eh

Convergence Acceleration:
 DIIS                   CNVDIIS         .... on
   Start iteration      DIISMaxIt       ....    12
   Startup error        DIISStart       ....  0.200000
   # of expansion vecs  DIISMaxEq       ....     5
   Bias factor          DIISBfac        ....   1.050
   Max. coefficient     DIISMaxC        ....  10.000
 Newton-Raphson         CNVNR           .... off
 SOSCF                  CNVSOSCF        .... off
 Level Shifting         CNVShift        .... on
   Level shift para.    LevelShift      ....    0.2500
   Turn off err/grad.   ShiftErr        ....    0.0010
 Zerner damping         CNVZerner       .... off
 Static damping         CNVDamp         .... on
   Fraction old density DampFac         ....    0.7000
   Max. Damping (<1)    DampMax         ....    0.9800
   Min. Damping (>=0)   DampMin         ....    0.0000
   Turn off err/grad.   DampErr         ....    0.1000
 Fernandez-Rico         CNVRico         .... off

SCF Procedure:
 Maximum # iterations   MaxIter         ....   125
 SCF integral mode      SCFMode         .... Direct
   Integral package                     .... LIBINT
 Reset frequency        DirectResetFreq ....    20
 Integral Threshold     Thresh          ....  1.000e-10 Eh
 Primitive CutOff       TCut            ....  1.000e-11 Eh

Convergence Tolerance:
 Convergence Check Mode ConvCheckMode   .... Total+1el-Energy
 Convergence forced     ConvForced      .... 0
 Energy Change          TolE            ....  1.000e-06 Eh
 1-El. energy change                    ....  1.000e-03 Eh
 DIIS Error             TolErr          ....  1.000e-06


Diagonalization of the overlap matrix:
Smallest eigenvalue                        ... 7.418e-07
Time for diagonalization                   ...    0.114 sec
Threshold for overlap eigenvalues          ... 1.000e-08
Number of eigenvalues below threshold      ... 0
Time for construction of square roots      ...    0.085 sec
Total time needed                          ...    0.202 sec

-------------------
DFT GRID GENERATION
-------------------

General Integration Accuracy     IntAcc      ...  4.670
Radial Grid Type                 RadialGrid  ... Gauss-Chebyshev
Angular Grid (max. acc.)         AngularGrid ... Lebedev-302
Angular grid pruning method      GridPruning ... 3 (G Style)
Weight generation scheme         WeightScheme... Becke
Basis function cutoff            BFCut       ...    1.0000e-10
Integration weight cutoff        WCut        ...    1.0000e-14
Grids for H and He will be reduced by one unit

# of grid points (after initial pruning)     ... 141600 (   0.0 sec)
# of grid points (after weights+screening)   ... 127291 (   0.1 sec)
nearest neighbour list constructed           ...    0.0 sec
Grid point re-assignment to atoms done       ...    0.0 sec
Grid point division into batches done        ...    0.5 sec
Reduced shell lists constructed in    0.6 sec

Total number of grid points                  ...   127291
Total number of batches                      ...     2003
Average number of points per batch           ...       63
Average number of grid points per atom       ...     5092
Average number of shells per batch           ...   189.67 (64.73%)
Average number of basis functions per batch  ...   553.22 (67.06%)
Average number of large shells per batch     ...   147.91 (77.98%)
Average number of large basis fcns per batch ...   431.65 (78.02%)
Maximum spatial batch extension              ...   1.91,  1.88,  1.64 au
Average spatial batch extension              ...   0.04,  0.04,  0.04 au

Time for grid setup =    0.757 sec

------------------------------
INITIAL GUESS: MODEL POTENTIAL
------------------------------
Loading Hartree-Fock densities                     ... done
  calling /sw/apps/orca/orca_4_2_0_linux_x86-64_openmpi314/orca TMB20_I1_atom75.inp > TMB20_I1_atom75.out in order to generate an atomic fitting density for atom 0 (Re with ECP) on-the-fly... 
    atom 0 (Re), assumed electronic state with S=6: 1s2 2s2 2p6 3s2 3p6 4s2 3d10 4p6 5s2 4d10 5p6 6s2 4f14 5d5           ... done
Calculating cut-offs                               ... done
Setting up the integral package                    ... done
Initializing the effective Hamiltonian             ... done
Starting the Coulomb interaction                   ... done (   0.1 sec)
Reading the grid                                   ... done
Mapping shells                                     ... done
Starting the XC term evaluation                    ... done (   0.4 sec)
  promolecular density results
     # of electrons  =    219.998605157
     EX              =   -402.027441054
     EC              =    -12.854259844
     EX+EC           =   -414.881700898
Transforming the Hamiltonian                       ... done (   0.1 sec)
Diagonalizing the Hamiltonian                      ... done (   0.1 sec)
Back transforming the eigenvectors                 ... done (   0.0 sec)
Now organizing SCF variables                       ... done
                      ------------------
                      INITIAL GUESS DONE (   3.0 sec)
                      ------------------
--------------
SCF ITERATIONS
--------------
ITER       Energy         Delta-E        Max-DP      RMS-DP      [F,P]     Damp
               ***  Starting incremental Fock matrix formation  ***
  0  -3451.4928984016   0.000000000000 0.94355328  0.00299725  0.5028398 0.7000
  1  -3451.7464399808  -0.253541579222 0.79711893  0.00225983  0.2566316 0.7000
                               ***Turning on DIIS***
  2  -3451.8559880296  -0.109548048815 0.62515639  0.00167244  0.1700609 0.7000
  3  -3451.9270119068  -0.071023877128 0.49251757  0.00130341  0.1204932 0.7000
  4  -3451.9776329905  -0.050621083709 1.17208032  0.00321942  0.0832229 0.0000
  5  -3452.0981384860  -0.120505495495 0.02432214  0.00021189  0.0080732 0.0000
  6  -3452.0988499228  -0.000711436851 0.01516607  0.00009580  0.0031412 0.0000
  7  -3452.0990622559  -0.000212333031 0.02778600  0.00009228  0.0019244 0.0000
  8  -3452.0991420369  -0.000079780999 0.01211068  0.00005516  0.0014404 0.0000
  9  -3452.0991730791  -0.000031042211 0.04373234  0.00013699  0.0003605 0.0000
 10  -3452.0991814671  -0.000008388036 0.00376598  0.00002117  0.0002133 0.0000
                 **** Energy Check signals convergence ****

               *****************************************************
               *                     SUCCESS                       *
               *           SCF CONVERGED AFTER  11 CYCLES          *
               *****************************************************


Setting up the DFT-NL grid :

General Integration Accuracy     IntAcc      ...  4.340
Radial Grid Type                 RadialGrid  ... Gauss-Chebyshev
Angular Grid (max. acc.)         AngularGrid ... Lebedev-110
Angular grid pruning method      GridPruning ... 3 (G Style)
Weight generation scheme         WeightScheme... Becke
Basis function cutoff            BFCut       ...    1.0000e-10
Integration weight cutoff        WCut        ...    1.0000e-14
Grids for H and He will be reduced by one unit

# of grid points (after initial pruning)     ...  37972 (   0.0 sec)
# of grid points (after weights+screening)   ...  34805 (   0.0 sec)
nearest neighbour list constructed           ...    0.0 sec
Grid point re-assignment to atoms done       ...    0.0 sec
Grid point division into batches done        ...    0.0 sec
Reduced shell lists constructed in    0.1 sec

Total number of grid points                  ...    34805
Total number of batches                      ...      556
Average number of points per batch           ...       62
Average number of grid points per atom       ...     1392
Average number of shells per batch           ...   189.20 (64.57%)
Average number of basis functions per batch  ...   552.40 (66.96%)
Average number of large shells per batch     ...   149.80 (79.18%)
Average number of large basis fcns per batch ...   439.24 (79.51%)
Maximum spatial batch extension              ...   2.18,  2.68,  2.35 au
Average spatial batch extension              ...   0.07,  0.07,  0.07 au

Final grid set up in    0.1 sec

-------------------------------------------------------------------------------
                         DFT-NL dispersion correction                          
-------------------------------------------------------------------------------

SC Energy -3452.099182161 
NL    Energy 0.607635174 
SC+NL Energy -3451.491546987 
NL done in    0.3 sec
-------------------------------------------------------------------------------

----------------
TOTAL SCF ENERGY
----------------

Total Energy       :        -3451.49154699 Eh          -93919.85979 eV

Components:
Nuclear Repulsion  :         1785.36871093 Eh           48582.35250 eV
Electronic Energy  :        -5236.86025792 Eh         -142502.21229 eV
One Electron Energy:        -8361.84388921 Eh         -227537.34000 eV
Two Electron Energy:         3124.98363129 Eh           85035.12771 eV

Virial components:
Potential Energy   :        -6845.30293121 Eh         -186270.16255 eV
Kinetic Energy     :         3393.81138422 Eh           92350.30276 eV
Virial Ratio       :            2.01699569


DFT components:
N(Alpha)           :       80.000058191208 electrons
N(Beta)            :       80.000058191208 electrons
N(Total)           :      160.000116382415 electrons
E(X)               :     -141.812766592269 Eh       
E(C)               :       -7.649852553045 Eh       
NL Energy, E(C,NL) :        0.607635174118 Eh       
E(XC)              :     -148.854983971196 Eh       
DFET-embed. en.    :        0.000000000000 Eh       

---------------
SCF CONVERGENCE
---------------

  Last Energy change         ...   -6.9381e-07  Tolerance :   1.0000e-06
  Last MAX-Density change    ...    1.7787e-02  Tolerance :   1.0000e-05
  Last RMS-Density change    ...    5.2235e-05  Tolerance :   1.0000e-06
  Last DIIS Error            ...    9.4407e-05  Tolerance :   1.0000e-06

             **** THE GBW FILE WAS UPDATED (TMB20_I1.gbw) ****
             **** DENSITY FILE WAS UPDATED (TMB20_I1.scfp) ****
             **** ENERGY FILE WAS UPDATED (TMB20_I1.en.tmp) ****
             **** THE GBW FILE WAS UPDATED (TMB20_I1.gbw) ****
             **** DENSITY FILE WAS UPDATED (TMB20_I1.scfp) ****
----------------
ORBITAL ENERGIES
----------------

  NO   OCC          E(Eh)            E(eV) 
   0   2.0000    -482.608320    -13132.4400 
   1   2.0000     -62.482231     -1700.2279 
   2   2.0000     -56.287126     -1531.6506 
   3   2.0000     -56.285280     -1531.6003 
   4   2.0000     -56.284938     -1531.5910 
   5   2.0000     -19.321669      -525.7694 
   6   2.0000     -19.313945      -525.5592 
   7   2.0000     -19.303628      -525.2784 
   8   2.0000     -19.303122      -525.2646 
   9   2.0000     -19.302438      -525.2460 
  10   2.0000     -19.243459      -523.6411 
  11   2.0000     -10.441929      -284.1393 
  12   2.0000     -10.420565      -283.5580 
  13   2.0000     -10.420405      -283.5536 
  14   2.0000     -10.419438      -283.5273 
  15   2.0000     -10.383097      -282.5384 
  16   2.0000     -10.352858      -281.7156 
  17   2.0000     -10.324230      -280.9366 
  18   2.0000     -10.278580      -279.6944 
  19   2.0000     -10.262488      -279.2565 
  20   2.0000      -8.750526      -238.1139 
  21   2.0000      -6.577335      -178.9784 
  22   2.0000      -6.571522      -178.8202 
  23   2.0000      -6.570487      -178.7920 
  24   2.0000      -3.364783       -91.5604 
  25   2.0000      -2.699528       -73.4579 
  26   2.0000      -2.698158       -73.4206 
  27   2.0000      -2.697381       -73.3995 
  28   2.0000      -2.692770       -73.2740 
  29   2.0000      -2.692742       -73.2732 
  30   2.0000      -1.927037       -52.4373 
  31   2.0000      -1.922733       -52.3202 
  32   2.0000      -1.910958       -51.9998 
  33   2.0000      -1.299034       -35.3485 
  34   2.0000      -1.292239       -35.1636 
  35   2.0000      -1.289852       -35.0987 
  36   2.0000      -1.281902       -34.8823 
  37   2.0000      -1.243931       -33.8491 
  38   2.0000      -1.191687       -32.4275 
  39   2.0000      -0.984613       -26.7927 
  40   2.0000      -0.900063       -24.4920 
  41   2.0000      -0.864029       -23.5114 
  42   2.0000      -0.851857       -23.1802 
  43   2.0000      -0.815028       -22.1780 
  44   2.0000      -0.741253       -20.1705 
  45   2.0000      -0.731882       -19.9155 
  46   2.0000      -0.713642       -19.4192 
  47   2.0000      -0.707012       -19.2388 
  48   2.0000      -0.702643       -19.1199 
  49   2.0000      -0.671595       -18.2750 
  50   2.0000      -0.661730       -18.0066 
  51   2.0000      -0.649448       -17.6724 
  52   2.0000      -0.638427       -17.3725 
  53   2.0000      -0.630970       -17.1696 
  54   2.0000      -0.623139       -16.9565 
  55   2.0000      -0.618244       -16.8233 
  56   2.0000      -0.607952       -16.5432 
  57   2.0000      -0.604022       -16.4363 
  58   2.0000      -0.602947       -16.4070 
  59   2.0000      -0.595453       -16.2031 
  60   2.0000      -0.593634       -16.1536 
  61   2.0000      -0.578388       -15.7387 
  62   2.0000      -0.574427       -15.6310 
  63   2.0000      -0.571996       -15.5648 
  64   2.0000      -0.555405       -15.1133 
  65   2.0000      -0.544367       -14.8130 
  66   2.0000      -0.537562       -14.6278 
  67   2.0000      -0.507499       -13.8097 
  68   2.0000      -0.490809       -13.3556 
  69   2.0000      -0.488357       -13.2889 
  70   2.0000      -0.454116       -12.3571 
  71   2.0000      -0.446908       -12.1610 
  72   2.0000      -0.426861       -11.6155 
  73   2.0000      -0.412052       -11.2125 
  74   2.0000      -0.404810       -11.0154 
  75   2.0000      -0.388037       -10.5590 
  76   2.0000      -0.370100       -10.0709 
  77   2.0000      -0.353330        -9.6146 
  78   2.0000      -0.339820        -9.2470 
  79   2.0000      -0.326822        -8.8933 
  80   0.0000      -0.013061        -0.3554 
  81   0.0000       0.023511         0.6398 
  82   0.0000       0.035472         0.9652 
  83   0.0000       0.048720         1.3257 
  84   0.0000       0.054772         1.4904 
  85   0.0000       0.055333         1.5057 
  86   0.0000       0.058100         1.5810 
  87   0.0000       0.064195         1.7468 
  88   0.0000       0.065610         1.7853 
  89   0.0000       0.070256         1.9118 
  90   0.0000       0.073965         2.0127 
  91   0.0000       0.074891         2.0379 
  92   0.0000       0.077938         2.1208 
  93   0.0000       0.082586         2.2473 
  94   0.0000       0.087365         2.3773 
  95   0.0000       0.088230         2.4009 
  96   0.0000       0.089766         2.4427 
  97   0.0000       0.099023         2.6946 
  98   0.0000       0.102778         2.7967 
  99   0.0000       0.108690         2.9576 
 100   0.0000       0.110303         3.0015 
 101   0.0000       0.112229         3.0539 
 102   0.0000       0.114136         3.1058 
 103   0.0000       0.116593         3.1727 
 104   0.0000       0.121405         3.3036 
 105   0.0000       0.125627         3.4185 
 106   0.0000       0.125925         3.4266 
 107   0.0000       0.132557         3.6071 
 108   0.0000       0.134493         3.6597 
 109   0.0000       0.139852         3.8056 
 110   0.0000       0.143967         3.9175 
 111   0.0000       0.146452         3.9852 
 112   0.0000       0.154840         4.2134 
 113   0.0000       0.163144         4.4394 
 114   0.0000       0.165348         4.4993 
 115   0.0000       0.170003         4.6260 
 116   0.0000       0.173580         4.7233 
 117   0.0000       0.176493         4.8026 
 118   0.0000       0.177980         4.8431 
 119   0.0000       0.187673         5.1068 
 120   0.0000       0.194012         5.2793 
 121   0.0000       0.196790         5.3549 
 122   0.0000       0.199530         5.4295 
 123   0.0000       0.204073         5.5531 
 124   0.0000       0.207512         5.6467 
 125   0.0000       0.210800         5.7362 
 126   0.0000       0.212286         5.7766 
 127   0.0000       0.221101         6.0165 
 128   0.0000       0.221234         6.0201 
 129   0.0000       0.232114         6.3161 
 130   0.0000       0.235771         6.4157 
 131   0.0000       0.240018         6.5312 
 132   0.0000       0.245467         6.6795 
 133   0.0000       0.250452         6.8151 
 134   0.0000       0.253967         6.9108 
 135   0.0000       0.258326         7.0294 
 136   0.0000       0.262415         7.1407 
 137   0.0000       0.265156         7.2153 
 138   0.0000       0.269658         7.3378 
 139   0.0000       0.275539         7.4978 
 140   0.0000       0.277498         7.5511 
 141   0.0000       0.283229         7.7071 
 142   0.0000       0.287211         7.8154 
 143   0.0000       0.289440         7.8761 
 144   0.0000       0.290167         7.8958 
 145   0.0000       0.293111         7.9760 
 146   0.0000       0.298501         8.1226 
 147   0.0000       0.298620         8.1259 
 148   0.0000       0.302916         8.2428 
 149   0.0000       0.305965         8.3257 
 150   0.0000       0.308743         8.4013 
 151   0.0000       0.312427         8.5016 
 152   0.0000       0.316928         8.6240 
 153   0.0000       0.321508         8.7487 
 154   0.0000       0.324615         8.8332 
 155   0.0000       0.325648         8.8613 
 156   0.0000       0.330002         8.9798 
 157   0.0000       0.332481         9.0473 
 158   0.0000       0.339227         9.2308 
 159   0.0000       0.342437         9.3182 
 160   0.0000       0.346166         9.4197 
 161   0.0000       0.352874         9.6022 
 162   0.0000       0.353119         9.6089 
 163   0.0000       0.356430         9.6990 
 164   0.0000       0.359633         9.7861 
 165   0.0000       0.360598         9.8124 
 166   0.0000       0.363485         9.8909 
 167   0.0000       0.368684        10.0324 
 168   0.0000       0.372023        10.1233 
 169   0.0000       0.375609        10.2208 
 170   0.0000       0.379051        10.3145 
 171   0.0000       0.382512        10.4087 
 172   0.0000       0.384517        10.4633 
 173   0.0000       0.391631        10.6568 
 174   0.0000       0.392948        10.6927 
 175   0.0000       0.395796        10.7702 
 176   0.0000       0.397502        10.8166 
 177   0.0000       0.401992        10.9388 
 178   0.0000       0.404238        10.9999 
 179   0.0000       0.414617        11.2823 
 180   0.0000       0.415822        11.3151 
 181   0.0000       0.423425        11.5220 
 182   0.0000       0.426798        11.6138 
 183   0.0000       0.430124        11.7043 
 184   0.0000       0.432973        11.7818 
 185   0.0000       0.435728        11.8568 
 186   0.0000       0.437363        11.9013 
 187   0.0000       0.441931        12.0255 
 188   0.0000       0.444136        12.0855 
 189   0.0000       0.446115        12.1394 
 190   0.0000       0.454723        12.3736 
 191   0.0000       0.456370        12.4185 
 192   0.0000       0.463454        12.6112 
 193   0.0000       0.469626        12.7792 
 194   0.0000       0.475071        12.9273 
 195   0.0000       0.475451        12.9377 
 196   0.0000       0.478620        13.0239 
 197   0.0000       0.481901        13.1132 
 198   0.0000       0.486286        13.2325 
 199   0.0000       0.496172        13.5015 
 200   0.0000       0.498347        13.5607 
 201   0.0000       0.499785        13.5998 
 202   0.0000       0.502027        13.6609 
 203   0.0000       0.507383        13.8066 
 204   0.0000       0.511714        13.9244 
 205   0.0000       0.515140        14.0177 
 206   0.0000       0.519945        14.1484 
 207   0.0000       0.532335        14.4856 
 208   0.0000       0.533796        14.5253 
 209   0.0000       0.537787        14.6339 
 210   0.0000       0.539250        14.6737 
 211   0.0000       0.546172        14.8621 
 212   0.0000       0.551013        14.9938 
 213   0.0000       0.553794        15.0695 
 214   0.0000       0.555442        15.1144 
 215   0.0000       0.559971        15.2376 
 216   0.0000       0.565070        15.3763 
 217   0.0000       0.567162        15.4333 
 218   0.0000       0.572648        15.5825 
 219   0.0000       0.578785        15.7495 
 220   0.0000       0.584783        15.9128 
 221   0.0000       0.589272        16.0349 
 222   0.0000       0.593571        16.1519 
 223   0.0000       0.596990        16.2449 
 224   0.0000       0.599739        16.3197 
 225   0.0000       0.600426        16.3384 
 226   0.0000       0.606561        16.5054 
 227   0.0000       0.610513        16.6129 
 228   0.0000       0.613028        16.6813 
 229   0.0000       0.618468        16.8294 
 230   0.0000       0.622311        16.9340 
 231   0.0000       0.629539        17.1306 
 232   0.0000       0.631868        17.1940 
 233   0.0000       0.641304        17.4508 
 234   0.0000       0.643327        17.5058 
 235   0.0000       0.643887        17.5211 
 236   0.0000       0.648325        17.6418 
 237   0.0000       0.654278        17.8038 
 238   0.0000       0.658545        17.9199 
 239   0.0000       0.661524        18.0010 
 240   0.0000       0.665237        18.1020 
 241   0.0000       0.670701        18.2507 
 242   0.0000       0.673020        18.3138 
 243   0.0000       0.674607        18.3570 
 244   0.0000       0.683379        18.5957 
 245   0.0000       0.688448        18.7336 
 246   0.0000       0.694662        18.9027 
 247   0.0000       0.696187        18.9442 
 248   0.0000       0.698681        19.0121 
 249   0.0000       0.702125        19.1058 
 250   0.0000       0.704941        19.1824 
 251   0.0000       0.706695        19.2302 
 252   0.0000       0.712076        19.3766 
 253   0.0000       0.718743        19.5580 
 254   0.0000       0.725392        19.7389 
 255   0.0000       0.726178        19.7603 
 256   0.0000       0.730344        19.8737 
 257   0.0000       0.733589        19.9620 
 258   0.0000       0.739319        20.1179 
 259   0.0000       0.742214        20.1967 
 260   0.0000       0.744534        20.2598 
 261   0.0000       0.750117        20.4117 
 262   0.0000       0.752421        20.4744 
 263   0.0000       0.758487        20.6395 
 264   0.0000       0.760928        20.7059 
 265   0.0000       0.767696        20.8901 
 266   0.0000       0.772647        21.0248 
 267   0.0000       0.779674        21.2160 
 268   0.0000       0.780490        21.2382 
 269   0.0000       0.781594        21.2682 
 270   0.0000       0.784978        21.3603 
 271   0.0000       0.789008        21.4700 
 272   0.0000       0.797765        21.7083 
 273   0.0000       0.801890        21.8205 
 274   0.0000       0.803422        21.8622 
 275   0.0000       0.807608        21.9761 
 276   0.0000       0.815298        22.1854 
 277   0.0000       0.820830        22.3359 
 278   0.0000       0.822525        22.3820 
 279   0.0000       0.825633        22.4666 
 280   0.0000       0.827400        22.5147 
 281   0.0000       0.832097        22.6425 
 282   0.0000       0.835400        22.7324 
 283   0.0000       0.838373        22.8133 
 284   0.0000       0.844777        22.9876 
 285   0.0000       0.846573        23.0364 
 286   0.0000       0.852201        23.1896 
 287   0.0000       0.862030        23.4570 
 288   0.0000       0.863909        23.5081 
 289   0.0000       0.868087        23.6218 
 290   0.0000       0.869949        23.6725 
 291   0.0000       0.875539        23.8246 
 292   0.0000       0.879437        23.9307 
 293   0.0000       0.883507        24.0415 
 294   0.0000       0.888070        24.1656 
 295   0.0000       0.899118        24.4662 
 296   0.0000       0.902533        24.5592 
 297   0.0000       0.903581        24.5877 
 298   0.0000       0.909428        24.7468 
 299   0.0000       0.920481        25.0476 
 300   0.0000       0.924366        25.1533 
 301   0.0000       0.931749        25.3542 
 302   0.0000       0.935831        25.4653 
 303   0.0000       0.943488        25.6736 
 304   0.0000       0.945683        25.7333 
 305   0.0000       0.948604        25.8128 
 306   0.0000       0.959329        26.1047 
 307   0.0000       0.963605        26.2210 
 308   0.0000       0.966203        26.2917 
 309   0.0000       0.972125        26.4529 
 310   0.0000       0.977629        26.6026 
 311   0.0000       0.986989        26.8573 
 312   0.0000       0.990287        26.9471 
 313   0.0000       0.997643        27.1473 
 314   0.0000       1.007270        27.4092 
 315   0.0000       1.008246        27.4358 
 316   0.0000       1.017341        27.6833 
 317   0.0000       1.028324        27.9821 
 318   0.0000       1.033587        28.1253 
 319   0.0000       1.045203        28.4414 
 320   0.0000       1.047075        28.4924 
 321   0.0000       1.058155        28.7939 
 322   0.0000       1.062916        28.9234 
 323   0.0000       1.073584        29.2137 
 324   0.0000       1.075387        29.2628 
 325   0.0000       1.083227        29.4761 
 326   0.0000       1.087587        29.5948 
 327   0.0000       1.095596        29.8127 
 328   0.0000       1.098695        29.8970 
 329   0.0000       1.108420        30.1616 
 330   0.0000       1.115000        30.3407 
 331   0.0000       1.122399        30.5420 
 332   0.0000       1.126266        30.6473 
 333   0.0000       1.132167        30.8078 
 334   0.0000       1.135308        30.8933 
 335   0.0000       1.137305        30.9476 
 336   0.0000       1.150017        31.2936 
 337   0.0000       1.153741        31.3949 
 338   0.0000       1.162471        31.6324 
 339   0.0000       1.167296        31.7637 
 340   0.0000       1.170214        31.8431 
 341   0.0000       1.175120        31.9766 
 342   0.0000       1.194889        32.5146 
 343   0.0000       1.201890        32.7051 
 344   0.0000       1.207014        32.8445 
 345   0.0000       1.223696        33.2985 
 346   0.0000       1.228907        33.4403 
 347   0.0000       1.236884        33.6573 
 348   0.0000       1.242812        33.8186 
 349   0.0000       1.249517        34.0011 
 350   0.0000       1.256306        34.1858 
 351   0.0000       1.261508        34.3274 
 352   0.0000       1.267315        34.4854 
 353   0.0000       1.270960        34.5846 
 354   0.0000       1.281405        34.8688 
 355   0.0000       1.284878        34.9633 
 356   0.0000       1.295164        35.2432 
 357   0.0000       1.299142        35.3515 
 358   0.0000       1.306024        35.5387 
 359   0.0000       1.321062        35.9479 
 360   0.0000       1.329370        36.1740 
 361   0.0000       1.338339        36.4180 
 362   0.0000       1.341864        36.5140 
 363   0.0000       1.350273        36.7428 
 364   0.0000       1.357600        36.9422 
 365   0.0000       1.361578        37.0504 
 366   0.0000       1.370149        37.2836 
 367   0.0000       1.382912        37.6309 
 368   0.0000       1.388467        37.7821 
 369   0.0000       1.398536        38.0561 
 370   0.0000       1.404024        38.2054 
 371   0.0000       1.408623        38.3306 
 372   0.0000       1.421311        38.6758 
 373   0.0000       1.426321        38.8122 
 374   0.0000       1.434377        39.0314 
 375   0.0000       1.435563        39.0637 
 376   0.0000       1.444381        39.3036 
 377   0.0000       1.455927        39.6178 
 378   0.0000       1.460590        39.7447 
 379   0.0000       1.472238        40.0616 
 380   0.0000       1.476531        40.1785 
 381   0.0000       1.482606        40.3438 
 382   0.0000       1.485931        40.4342 
 383   0.0000       1.498470        40.7754 
 384   0.0000       1.509504        41.0757 
 385   0.0000       1.516941        41.2781 
 386   0.0000       1.526463        41.5372 
 387   0.0000       1.538171        41.8558 
 388   0.0000       1.539505        41.8921 
 389   0.0000       1.556124        42.3443 
 390   0.0000       1.560218        42.4557 
 391   0.0000       1.566653        42.6308 
 392   0.0000       1.576272        42.8925 
 393   0.0000       1.586973        43.1837 
 394   0.0000       1.597324        43.4654 
 395   0.0000       1.605331        43.6833 
 396   0.0000       1.621444        44.1217 
 397   0.0000       1.627832        44.2956 
 398   0.0000       1.634699        44.4824 
 399   0.0000       1.647575        44.8328 
 400   0.0000       1.651655        44.9438 
 401   0.0000       1.667056        45.3629 
 402   0.0000       1.675606        45.5956 
 403   0.0000       1.680563        45.7304 
 404   0.0000       1.681363        45.7522 
 405   0.0000       1.697304        46.1860 
 406   0.0000       1.699286        46.2399 
 407   0.0000       1.703672        46.3593 
 408   0.0000       1.717521        46.7361 
 409   0.0000       1.723456        46.8976 
 410   0.0000       1.724740        46.9326 
 411   0.0000       1.736262        47.2461 
 412   0.0000       1.743753        47.4499 
 413   0.0000       1.757272        47.8178 
 414   0.0000       1.763742        47.9938 
 415   0.0000       1.776284        48.3351 
 416   0.0000       1.792912        48.7876 
 417   0.0000       1.806828        49.1663 
 418   0.0000       1.813430        49.3459 
 419   0.0000       1.821778        49.5731 
 420   0.0000       1.839202        50.0472 
 421   0.0000       1.842070        50.1253 
 422   0.0000       1.849561        50.3291 
 423   0.0000       1.862115        50.6707 
 424   0.0000       1.865863        50.7727 
 425   0.0000       1.872000        50.9397 
 426   0.0000       1.879155        51.1344 
 427   0.0000       1.887707        51.3671 
 428   0.0000       1.892516        51.4980 
 429   0.0000       1.896731        51.6127 
 430   0.0000       1.902599        51.7723 
 431   0.0000       1.907102        51.8949 
 432   0.0000       1.915827        52.1323 
 433   0.0000       1.928663        52.4816 
 434   0.0000       1.930387        52.5285 
 435   0.0000       1.936826        52.7037 
 436   0.0000       1.944352        52.9085 
 437   0.0000       1.946467        52.9661 
 438   0.0000       1.951234        53.0958 
 439   0.0000       1.961366        53.3715 
 440   0.0000       1.965564        53.4857 
 441   0.0000       1.975161        53.7469 
 442   0.0000       1.987035        54.0700 
 443   0.0000       1.994426        54.2711 
 444   0.0000       2.003284        54.5121 
 445   0.0000       2.009520        54.6818 
 446   0.0000       2.013370        54.7866 
 447   0.0000       2.019413        54.9510 
 448   0.0000       2.029827        55.2344 
 449   0.0000       2.037446        55.4417 
 450   0.0000       2.049989        55.7830 
 451   0.0000       2.053987        55.8918 
 452   0.0000       2.061810        56.1047 
 453   0.0000       2.085671        56.7540 
 454   0.0000       2.095463        57.0205 
 455   0.0000       2.113818        57.5199 
 456   0.0000       2.127534        57.8931 
 457   0.0000       2.132155        58.0189 
 458   0.0000       2.141658        58.2775 
 459   0.0000       2.167868        58.9907 
 460   0.0000       2.171776        59.0970 
 461   0.0000       2.174458        59.1700 
 462   0.0000       2.179037        59.2946 
 463   0.0000       2.205163        60.0055 
 464   0.0000       2.224086        60.5205 
 465   0.0000       2.230235        60.6878 
 466   0.0000       2.242586        61.0239 
 467   0.0000       2.248196        61.1765 
 468   0.0000       2.273560        61.8667 
 469   0.0000       2.281999        62.0963 
 470   0.0000       2.284641        62.1682 
 471   0.0000       2.298765        62.5526 
 472   0.0000       2.299409        62.5701 
 473   0.0000       2.314928        62.9924 
 474   0.0000       2.327180        63.3258 
 475   0.0000       2.343782        63.7775 
 476   0.0000       2.343977        63.7829 
 477   0.0000       2.358640        64.1819 
 478   0.0000       2.366914        64.4070 
 479   0.0000       2.394975        65.1706 
 480   0.0000       2.407003        65.4979 
 481   0.0000       2.416129        65.7462 
 482   0.0000       2.426334        66.0239 
 483   0.0000       2.439697        66.3875 
 484   0.0000       2.442765        66.4710 
 485   0.0000       2.456294        66.8392 
 486   0.0000       2.469774        67.2060 
 487   0.0000       2.481648        67.5291 
 488   0.0000       2.501184        68.0607 
 489   0.0000       2.502614        68.0996 
 490   0.0000       2.510194        68.3058 
 491   0.0000       2.525727        68.7285 
 492   0.0000       2.542088        69.1737 
 493   0.0000       2.557984        69.6063 
 494   0.0000       2.559072        69.6359 
 495   0.0000       2.582086        70.2621 
 496   0.0000       2.586459        70.3811 
 497   0.0000       2.600371        70.7597 
 498   0.0000       2.602963        70.8302 
 499   0.0000       2.615578        71.1735 
 500   0.0000       2.642960        71.9186 
 501   0.0000       2.670730        72.6743 
 502   0.0000       2.694896        73.3319 
 503   0.0000       2.705950        73.6327 
 504   0.0000       2.717149        73.9374 
 505   0.0000       2.721263        74.0493 
 506   0.0000       2.735974        74.4496 
 507   0.0000       2.746889        74.7467 
 508   0.0000       2.751071        74.8604 
 509   0.0000       2.782520        75.7162 
 510   0.0000       2.785337        75.7929 
 511   0.0000       2.801390        76.2297 
 512   0.0000       2.807912        76.4072 
 513   0.0000       2.824808        76.8669 
 514   0.0000       2.837752        77.2192 
 515   0.0000       2.841267        77.3148 
 516   0.0000       2.848952        77.5239 
 517   0.0000       2.853336        77.6432 
 518   0.0000       2.870040        78.0978 
 519   0.0000       2.875174        78.2375 
 520   0.0000       2.888658        78.6044 
 521   0.0000       2.896089        78.8066 
 522   0.0000       2.911305        79.2206 
 523   0.0000       2.921845        79.5074 
 524   0.0000       2.937824        79.9423 
 525   0.0000       2.942309        80.0643 
 526   0.0000       2.947282        80.1996 
 527   0.0000       2.961438        80.5848 
 528   0.0000       2.973781        80.9207 
 529   0.0000       2.991777        81.4104 
 530   0.0000       2.999401        81.6179 
 531   0.0000       2.999941        81.6326 
 532   0.0000       3.015119        82.0456 
 533   0.0000       3.021580        82.2214 
 534   0.0000       3.026149        82.3457 
 535   0.0000       3.036725        82.6335 
 536   0.0000       3.046694        82.9047 
 537   0.0000       3.057073        83.1872 
 538   0.0000       3.061966        83.3203 
 539   0.0000       3.074771        83.6688 
 540   0.0000       3.087858        84.0249 
 541   0.0000       3.091445        84.1225 
 542   0.0000       3.099016        84.3285 
 543   0.0000       3.107455        84.5581 
 544   0.0000       3.112249        84.6886 
 545   0.0000       3.123203        84.9867 
 546   0.0000       3.137823        85.3845 
 547   0.0000       3.147616        85.6510 
 548   0.0000       3.159071        85.9627 
 549   0.0000       3.164055        86.0983 
 550   0.0000       3.174446        86.3811 
 551   0.0000       3.187745        86.7430 
 552   0.0000       3.191607        86.8480 
 553   0.0000       3.201874        87.1274 
 554   0.0000       3.205504        87.2262 
 555   0.0000       3.214477        87.4704 
 556   0.0000       3.220125        87.6241 
 557   0.0000       3.224801        87.7513 
 558   0.0000       3.230799        87.9145 
 559   0.0000       3.239620        88.1545 
 560   0.0000       3.247859        88.3787 
 561   0.0000       3.259624        88.6989 
 562   0.0000       3.272142        89.0395 
 563   0.0000       3.289703        89.5174 
 564   0.0000       3.299331        89.7793 
 565   0.0000       3.309997        90.0696 
 566   0.0000       3.311913        90.1217 
 567   0.0000       3.315163        90.2102 
 568   0.0000       3.337173        90.8091 
 569   0.0000       3.345615        91.0388 
 570   0.0000       3.351571        91.2009 
 571   0.0000       3.359930        91.4284 
 572   0.0000       3.370753        91.7228 
 573   0.0000       3.378009        91.9203 
 574   0.0000       3.385349        92.1200 
 575   0.0000       3.395795        92.4043 
 576   0.0000       3.399822        92.5139 
 577   0.0000       3.417647        92.9989 
 578   0.0000       3.418629        93.0256 
 579   0.0000       3.432113        93.3925 
 580   0.0000       3.444201        93.7215 
 581   0.0000       3.450326        93.8881 
 582   0.0000       3.454776        94.0092 
 583   0.0000       3.460087        94.1537 
 584   0.0000       3.473817        94.5274 
 585   0.0000       3.477318        94.6226 
 586   0.0000       3.487036        94.8871 
 587   0.0000       3.496960        95.1571 
 588   0.0000       3.511242        95.5458 
 589   0.0000       3.517483        95.7156 
 590   0.0000       3.524494        95.9064 
 591   0.0000       3.527579        95.9903 
 592   0.0000       3.542174        96.3875 
 593   0.0000       3.550065        96.6022 
 594   0.0000       3.557756        96.8115 
 595   0.0000       3.560697        96.8915 
 596   0.0000       3.574588        97.2695 
 597   0.0000       3.576897        97.3323 
 598   0.0000       3.584055        97.5271 
 599   0.0000       3.609579        98.2216 
 600   0.0000       3.613428        98.3264 
 601   0.0000       3.620761        98.5259 
 602   0.0000       3.623043        98.5880 
 603   0.0000       3.633298        98.8671 
 604   0.0000       3.643151        99.1352 
 605   0.0000       3.650066        99.3234 
 606   0.0000       3.658542        99.5540 
 607   0.0000       3.662751        99.6685 
 608   0.0000       3.674349        99.9841 
 609   0.0000       3.681040       100.1662 
 610   0.0000       3.692129       100.4679 
 611   0.0000       3.705063       100.8199 
 612   0.0000       3.705637       100.8355 
 613   0.0000       3.714508       101.0769 
 614   0.0000       3.732537       101.5675 
 615   0.0000       3.745301       101.9148 
 616   0.0000       3.751681       102.0884 
 617   0.0000       3.759534       102.3021 
 618   0.0000       3.771829       102.6367 
 619   0.0000       3.779575       102.8475 
 620   0.0000       3.804191       103.5173 
 621   0.0000       3.812662       103.7478 
 622   0.0000       3.834221       104.3344 
 623   0.0000       3.861347       105.0726 
 624   0.0000       3.863916       105.1425 
 625   0.0000       3.875982       105.4708 
 626   0.0000       3.883428       105.6734 
 627   0.0000       3.896173       106.0203 
 628   0.0000       3.907606       106.3314 
 629   0.0000       3.917773       106.6080 
 630   0.0000       3.935845       107.0998 
 631   0.0000       3.961784       107.8056 
 632   0.0000       3.980044       108.3025 
 633   0.0000       3.989611       108.5628 
 634   0.0000       4.000501       108.8592 
 635   0.0000       4.006184       109.0138 
 636   0.0000       4.021674       109.4353 
 637   0.0000       4.025041       109.5269 
 638   0.0000       4.044563       110.0582 
 639   0.0000       4.057346       110.4060 
 640   0.0000       4.063192       110.5651 
 641   0.0000       4.084828       111.1538 
 642   0.0000       4.093957       111.4022 
 643   0.0000       4.111304       111.8743 
 644   0.0000       4.117094       112.0318 
 645   0.0000       4.143173       112.7415 
 646   0.0000       4.163298       113.2891 
 647   0.0000       4.173772       113.5741 
 648   0.0000       4.175527       113.6219 
 649   0.0000       4.178045       113.6904 
 650   0.0000       4.193096       114.0999 
 651   0.0000       4.200965       114.3141 
 652   0.0000       4.217691       114.7692 
 653   0.0000       4.218805       114.7995 
 654   0.0000       4.235258       115.2472 
 655   0.0000       4.248545       115.6088 
 656   0.0000       4.258666       115.8842 
 657   0.0000       4.279028       116.4383 
 658   0.0000       4.299337       116.9909 
 659   0.0000       4.306235       117.1786 
 660   0.0000       4.337107       118.0187 
 661   0.0000       4.349826       118.3648 
 662   0.0000       4.360054       118.6431 
 663   0.0000       4.367146       118.8361 
 664   0.0000       4.379300       119.1668 
 665   0.0000       4.392639       119.5298 
 666   0.0000       4.406964       119.9196 
 667   0.0000       4.412435       120.0685 
 668   0.0000       4.428188       120.4971 
 669   0.0000       4.431425       120.5852 
 670   0.0000       4.443976       120.9267 
 671   0.0000       4.461062       121.3917 
 672   0.0000       4.471711       121.6814 
 673   0.0000       4.487517       122.1116 
 674   0.0000       4.500703       122.4704 
 675   0.0000       4.516232       122.8929 
 676   0.0000       4.524366       123.1143 
 677   0.0000       4.536563       123.4462 
 678   0.0000       4.547261       123.7373 
 679   0.0000       4.557430       124.0140 
 680   0.0000       4.586859       124.8148 
 681   0.0000       4.598031       125.1188 
 682   0.0000       4.624109       125.8284 
 683   0.0000       4.625984       125.8794 
 684   0.0000       4.639816       126.2558 
 685   0.0000       4.664199       126.9193 
 686   0.0000       4.684675       127.4765 
 687   0.0000       4.698532       127.8535 
 688   0.0000       4.715664       128.3197 
 689   0.0000       4.722048       128.4935 
 690   0.0000       4.746943       129.1709 
 691   0.0000       4.764134       129.6387 
 692   0.0000       4.777099       129.9915 
 693   0.0000       4.797877       130.5569 
 694   0.0000       4.840467       131.7158 
 695   0.0000       4.896293       133.2349 
 696   0.0000       4.910927       133.6331 
 697   0.0000       4.929013       134.1253 
 698   0.0000       4.960998       134.9956 
 699   0.0000       4.975624       135.3936 
 700   0.0000       5.035305       137.0176 
 701   0.0000       5.049362       137.4001 
 702   0.0000       5.056011       137.5811 
 703   0.0000       5.078041       138.1805 
 704   0.0000       5.084034       138.3436 
 705   0.0000       5.122823       139.3991 
 706   0.0000       5.132154       139.6530 
 707   0.0000       5.158675       140.3747 
 708   0.0000       5.171133       140.7137 
 709   0.0000       5.181218       140.9881 
 710   0.0000       5.181658       141.0001 
 711   0.0000       5.186369       141.1283 
 712   0.0000       5.193035       141.3097 
 713   0.0000       5.198942       141.4704 
 714   0.0000       5.204622       141.6250 
 715   0.0000       5.207526       141.7040 
 716   0.0000       5.215781       141.9286 
 717   0.0000       5.231407       142.3538 
 718   0.0000       5.253553       142.9565 
 719   0.0000       5.274744       143.5331 
 720   0.0000       5.286784       143.8607 
 721   0.0000       5.319963       144.7635 
 722   0.0000       5.327767       144.9759 
 723   0.0000       5.346152       145.4762 
 724   0.0000       5.358075       145.8006 
 725   0.0000       5.372979       146.2062 
 726   0.0000       5.396660       146.8506 
 727   0.0000       5.402655       147.0137 
 728   0.0000       5.442416       148.0957 
 729   0.0000       5.469941       148.8447 
 730   0.0000       5.496857       149.5771 
 731   0.0000       5.540113       150.7541 
 732   0.0000       5.556265       151.1936 
 733   0.0000       5.595461       152.2602 
 734   0.0000       5.604563       152.5079 
 735   0.0000       5.613957       152.7635 
 736   0.0000       5.624058       153.0384 
 737   0.0000       5.626770       153.1122 
 738   0.0000       5.641341       153.5087 
 739   0.0000       5.651677       153.7900 
 740   0.0000       5.655926       153.9056 
 741   0.0000       5.673558       154.3854 
 742   0.0000       5.685039       154.6978 
 743   0.0000       5.693998       154.9416 
 744   0.0000       5.715263       155.5202 
 745   0.0000       5.724135       155.7616 
 746   0.0000       5.727475       155.8525 
 747   0.0000       5.760051       156.7390 
 748   0.0000       5.790874       157.5777 
 749   0.0000       5.839691       158.9061 
 750   0.0000       5.890095       160.2776 
 751   0.0000       5.959997       162.1798 
 752   0.0000       6.022977       163.8935 
 753   0.0000       6.057476       164.8323 
 754   0.0000       6.152429       167.4161 
 755   0.0000       6.183247       168.2547 
 756   0.0000       6.351500       172.8331 
 757   0.0000       6.369053       173.3107 
 758   0.0000       6.372794       173.4125 
 759   0.0000       6.489566       176.5901 
 760   0.0000       6.502716       176.9479 
 761   0.0000       6.511098       177.1760 
 762   0.0000       6.519310       177.3994 
 763   0.0000       6.530396       177.7011 
 764   0.0000       6.532022       177.7454 
 765   0.0000       6.537521       177.8950 
 766   0.0000       6.544990       178.0982 
 767   0.0000       6.552655       178.3068 
 768   0.0000       6.557537       178.4396 
 769   0.0000       6.575856       178.9381 
 770   0.0000       6.595288       179.4669 
 771   0.0000       6.602486       179.6628 
 772   0.0000       6.633558       180.5083 
 773   0.0000       6.662533       181.2967 
 774   0.0000       6.706161       182.4839 
 775   0.0000       6.718869       182.8297 
 776   0.0000       6.737714       183.3425 
 777   0.0000       6.769783       184.2152 
 778   0.0000       6.788688       184.7296 
 779   0.0000       6.878395       187.1706 
 780   0.0000       6.899485       187.7445 
 781   0.0000       6.920662       188.3208 
 782   0.0000       6.968061       189.6106 
 783   0.0000       6.977552       189.8688 
 784   0.0000       6.984046       190.0456 
 785   0.0000       6.986316       190.1073 
 786   0.0000       6.989921       190.2054 
 787   0.0000       6.995884       190.3677 
 788   0.0000       7.010375       190.7620 
 789   0.0000       7.034215       191.4107 
 790   0.0000       7.086774       192.8409 
 791   0.0000       7.091169       192.9605 
 792   0.0000       7.117077       193.6655 
 793   0.0000       7.211786       196.2427 
 794   0.0000       7.297685       198.5801 
 795   0.0000       7.310582       198.9311 
 796   0.0000       7.322674       199.2601 
 797   0.0000       7.331186       199.4917 
 798   0.0000       7.399645       201.3546 
 799   0.0000       7.427732       202.1189 
 800   0.0000       7.531457       204.9414 
 801   0.0000       7.575243       206.1329 
 802   0.0000       7.685875       209.1433 
 803   0.0000       7.870133       214.1572 
 804   0.0000       8.194115       222.9732 
 805   0.0000      23.181730       630.8069 
 806   0.0000      23.362847       635.7354 
 807   0.0000      23.460206       638.3847 
 808   0.0000      23.471121       638.6817 
 809   0.0000      23.535201       640.4254 
 810   0.0000      23.683559       644.4624 
 811   0.0000      23.736877       645.9133 
 812   0.0000      23.790906       647.3835 
 813   0.0000      23.890694       650.0988 
 814   0.0000      44.292084      1205.2489 
 815   0.0000      44.371381      1207.4067 
 816   0.0000      44.411276      1208.4923 
 817   0.0000      44.434534      1209.1251 
 818   0.0000      44.581933      1213.1361 
 819   0.0000      44.692098      1216.1338 
 820   0.0000      49.782833      1354.6598 
 821   0.0000      50.606933      1377.0847 
 822   0.0000      51.038386      1388.8251 
 823   0.0000      68.617324      1867.1723 
 824   0.0000     513.009389     13959.6952 

                    ********************************
                    * MULLIKEN POPULATION ANALYSIS *
                    ********************************

-----------------------
MULLIKEN ATOMIC CHARGES
-----------------------
   0 Re:    0.367595
   1 C :    0.393335
   2 C :    0.627003
   3 C :   -0.039845
   4 Br:   -0.569048
   5 O :   -0.293387
   6 O :   -0.201667
   7 O :   -0.237037
   8 C :   -1.113590
   9 C :    0.351242
  10 C :    1.685848
  11 C :    0.202879
  12 O :   -0.541316
  13 O :   -0.194472
  14 C :   -0.372134
  15 O :   -0.327530
  16 H :    0.253702
  17 C :   -0.115660
  18 H :    0.048423
  19 H :    0.101511
  20 H :    0.112316
  21 H :   -0.103091
  22 H :   -0.026689
  23 H :   -0.114995
  24 H :    0.106608
Sum of atomic charges:    0.0000000

--------------------------------
MULLIKEN REDUCED ORBITAL CHARGES
--------------------------------
  0 Res       :     2.711375  s :     2.711375
      pz      :     2.355709  p :     6.269575
      px      :     2.107563
      py      :     1.806303
      dz2     :     1.159133  d :     5.465213
      dxz     :     0.814985
      dyz     :     1.372848
      dx2y2   :     0.996686
      dxy     :     1.121561
      f0      :     0.014193  f :     0.178553
      f+1     :     0.047554
      f-1     :     0.016775
      f+2     :     0.031099
      f-2     :     0.021678
      f+3     :     0.015263
      f-3     :     0.031991
      g0      :     0.000805  g :     0.007690
      g+1     :     0.001119
      g-1     :     0.000346
      g+2     :     0.001391
      g-2     :     0.000659
      g+3     :     0.000741
      g-3     :     0.000928
      g+4     :     0.001107
      g-4     :     0.000594
  1 C s       :     3.394214  s :     3.394214
      pz      :     0.800562  p :     2.076606
      px      :     0.673239
      py      :     0.602805
      dz2     :     0.038290  d :     0.117591
      dxz     :    -0.000489
      dyz     :     0.045921
      dx2y2   :     0.010025
      dxy     :     0.023845
      f0      :     0.004571  f :     0.018254
      f+1     :     0.003767
      f-1     :     0.002339
      f+2     :     0.002810
      f-2     :     0.003521
      f+3     :     0.000564
      f-3     :     0.000681
  2 C s       :     3.166791  s :     3.166791
      pz      :     0.746918  p :     2.047497
      px      :     0.684746
      py      :     0.615833
      dz2     :     0.052660  d :     0.138544
      dxz     :    -0.005407
      dyz     :     0.040102
      dx2y2   :     0.016924
      dxy     :     0.034266
      f0      :     0.004359  f :     0.020164
      f+1     :     0.004179
      f-1     :     0.002038
      f+2     :     0.003515
      f-2     :     0.004095
      f+3     :     0.000941
      f-3     :     0.001038
  3 C s       :     3.505400  s :     3.505400
      pz      :     0.689587  p :     2.302143
      px      :     0.632687
      py      :     0.979870
      dz2     :     0.005799  d :     0.212236
      dxz     :     0.004285
      dyz     :     0.101908
      dx2y2   :     0.013744
      dxy     :     0.086500
      f0      :     0.002518  f :     0.020066
      f+1     :     0.000455
      f-1     :     0.002475
      f+2     :     0.004129
      f-2     :     0.000237
      f+3     :     0.006144
      f-3     :     0.004107
  4 Brs       :     8.108508  s :     8.108508
      pz      :     5.952928  p :    17.428956
      px      :     5.881392
      py      :     5.594636
      dz2     :     2.004170  d :    10.028653
      dxz     :     2.000757
      dyz     :     2.007874
      dx2y2   :     2.011253
      dxy     :     2.004599
      f0      :     0.000392  f :     0.002931
      f+1     :     0.000095
      f-1     :     0.000389
      f+2     :     0.000457
      f-2     :     0.000278
      f+3     :     0.000658
      f-3     :     0.000662
  5 O s       :     3.929399  s :     3.929399
      pz      :     1.516444  p :     4.319589
      px      :     1.487537
      py      :     1.315609
      dz2     :     0.002511  d :     0.042664
      dxz     :    -0.000064
      dyz     :     0.015974
      dx2y2   :     0.008631
      dxy     :     0.015612
      f0      :     0.000255  f :     0.001734
      f+1     :     0.000046
      f-1     :     0.000156
      f+2     :     0.000405
      f-2     :     0.000010
      f+3     :     0.000629
      f-3     :     0.000233
  6 O s       :     3.901103  s :     3.901103
      pz      :     1.366749  p :     4.251039
      px      :     1.420656
      py      :     1.463635
      dz2     :     0.015308  d :     0.047730
      dxz     :     0.009797
      dyz     :     0.011590
      dx2y2   :     0.005439
      dxy     :     0.005595
      f0      :     0.000509  f :     0.001795
      f+1     :     0.000254
      f-1     :     0.000261
      f+2     :     0.000249
      f-2     :     0.000393
      f+3     :     0.000057
      f-3     :     0.000072
  7 O s       :     3.915950  s :     3.915950
      pz      :     1.381976  p :     4.270178
      px      :     1.433622
      py      :     1.454580
      dz2     :     0.015685  d :     0.049125
      dxz     :     0.010618
      dyz     :     0.010833
      dx2y2   :     0.005828
      dxy     :     0.006161
      f0      :     0.000439  f :     0.001784
      f+1     :     0.000294
      f-1     :     0.000201
      f+2     :     0.000292
      f-2     :     0.000392
      f+3     :     0.000082
      f-3     :     0.000083
  8 C s       :     3.792355  s :     3.792355
      pz      :     1.060852  p :     3.105570
      px      :     1.012664
      py      :     1.032054
      dz2     :     0.036898  d :     0.208474
      dxz     :     0.053566
      dyz     :     0.039893
      dx2y2   :     0.053430
      dxy     :     0.024687
      f0      :     0.000985  f :     0.007191
      f+1     :     0.000655
      f-1     :     0.000921
      f+2     :     0.001700
      f-2     :     0.000835
      f+3     :     0.000776
      f-3     :     0.001320
  9 C s       :     2.914628  s :     2.914628
      pz      :     0.994672  p :     2.794432
      px      :     0.994351
      py      :     0.805409
      dz2     :    -0.019003  d :    -0.066056
      dxz     :     0.008697
      dyz     :    -0.030301
      dx2y2   :    -0.000793
      dxy     :    -0.024657
      f0      :     0.000710  f :     0.005755
      f+1     :     0.000606
      f-1     :     0.000557
      f+2     :     0.001213
      f-2     :     0.000562
      f+3     :     0.000776
      f-3     :     0.001331
 10 C s       :     1.918977  s :     1.918977
      pz      :     0.795309  p :     2.282453
      px      :     0.786114
      py      :     0.701031
      dz2     :     0.064745  d :     0.105120
      dxz     :     0.023432
      dyz     :     0.013578
      dx2y2   :     0.048656
      dxy     :    -0.045291
      f0      :     0.000888  f :     0.007601
      f+1     :     0.001398
      f-1     :     0.000712
      f+2     :     0.001474
      f-2     :     0.001405
      f+3     :     0.000876
      f-3     :     0.000848
 11 C s       :     3.421590  s :     3.421590
      pz      :     0.657953  p :     2.060724
      px      :     0.726267
      py      :     0.676504
      dz2     :     0.054864  d :     0.289022
      dxz     :     0.080755
      dyz     :     0.017027
      dx2y2   :     0.029780
      dxy     :     0.106595
      f0      :     0.001838  f :     0.025786
      f+1     :     0.002262
      f-1     :     0.003857
      f+2     :     0.003641
      f-2     :     0.004057
      f+3     :     0.006092
      f-3     :     0.004040
 12 O s       :     3.929230  s :     3.929230
      pz      :     1.420846  p :     4.579781
      px      :     1.803577
      py      :     1.355358
      dz2     :     0.010151  d :     0.030509
      dxz     :    -0.000889
      dyz     :     0.011922
      dx2y2   :     0.009485
      dxy     :    -0.000161
      f0      :     0.000126  f :     0.001797
      f+1     :     0.000046
      f-1     :     0.000502
      f+2     :     0.000308
      f-2     :     0.000295
      f+3     :     0.000257
      f-3     :     0.000263
 13 O s       :     3.801865  s :     3.801865
      pz      :     1.660649  p :     4.370351
      px      :     1.132420
      py      :     1.577282
      dz2     :     0.000475  d :     0.020185
      dxz     :     0.009559
      dyz     :     0.003377
      dx2y2   :    -0.001891
      dxy     :     0.008665
      f0      :     0.000245  f :     0.002071
      f+1     :     0.000342
      f-1     :     0.000123
      f+2     :     0.000221
      f-2     :     0.000291
      f+3     :     0.000412
      f-3     :     0.000437
 14 C s       :     3.365751  s :     3.365751
      pz      :     0.937296  p :     2.755168
      px      :     0.888469
      py      :     0.929403
      dz2     :     0.052823  d :     0.238325
      dxz     :     0.013032
      dyz     :     0.030157
      dx2y2   :     0.048326
      dxy     :     0.093987
      f0      :     0.001376  f :     0.012890
      f+1     :     0.001238
      f-1     :     0.002748
      f+2     :     0.002123
      f-2     :     0.002110
      f+3     :     0.001751
      f-3     :     0.001546
 15 O s       :     3.820944  s :     3.820944
      pz      :     1.654538  p :     4.495362
      px      :     1.562494
      py      :     1.278329
      dz2     :     0.002116  d :     0.010105
      dxz     :    -0.000716
      dyz     :     0.002623
      dx2y2   :    -0.000460
      dxy     :     0.006542
      f0      :     0.000132  f :     0.001119
      f+1     :     0.000082
      f-1     :     0.000244
      f+2     :     0.000232
      f-2     :     0.000179
      f+3     :     0.000135
      f-3     :     0.000115
 16 H s       :     0.615085  s :     0.615085
      pz      :     0.011669  p :     0.122024
      px      :     0.073192
      py      :     0.037164
      dz2     :     0.001184  d :     0.009189
      dxz     :     0.001187
      dyz     :     0.001613
      dx2y2   :     0.002426
      dxy     :     0.002779
 17 C s       :     3.092560  s :     3.092560
      pz      :     1.082329  p :     2.898741
      px      :     0.839689
      py      :     0.976724
      dz2     :     0.047829  d :     0.116306
      dxz     :     0.008013
[...]
      px      :     0.000082
      py      :     0.022578
      dz2     :     0.000570  d :     0.001894
      dxz     :     0.000270
      dyz     :     0.000379
      dx2y2   :     0.000356
      dxy     :     0.000318
 24 H s       :     0.863552  s :     0.863552
      pz      :     0.008375  p :     0.027560
      px      :    -0.007468
      py      :     0.026654
      dz2     :     0.000554  d :     0.002280
      dxz     :     0.000359
      dyz     :     0.000281
      dx2y2   :     0.000527
      dxy     :     0.000560


                     *******************************
                     * LOEWDIN POPULATION ANALYSIS *
                     *******************************

----------------------
LOEWDIN ATOMIC CHARGES
----------------------
   0 Re:    0.588580
   1 C :   -0.219303
   2 C :   -0.294624
   3 C :   -0.266854
   4 Br:    0.143901
   5 O :    0.150539
   6 O :    0.163293
   7 O :    0.172174
   8 C :   -0.043194
   9 C :   -0.096155
  10 C :   -0.113723
  11 C :   -0.427788
  12 O :    0.141158
  13 O :    0.050051
  14 C :   -0.158226
  15 O :    0.137381
  16 H :   -0.169998
  17 C :    0.178760
  18 H :    0.011774
  19 H :    0.014336
  20 H :    0.015842
  21 H :   -0.062825
  22 H :    0.054250
  23 H :    0.007286
  24 H :    0.023364

-------------------------------
LOEWDIN REDUCED ORBITAL CHARGES
-------------------------------
  0 Res       :     1.931033  s :     1.931033
      pz      :     2.154011  p :     6.482265
      px      :     2.141587
      py      :     2.186667
      dz2     :     1.152111  d :     5.530512
      dxz     :     0.987718
      dyz     :     1.270882
      dx2y2   :     1.070611
      dxy     :     1.049189
      f0      :     0.035461  f :     0.437501
      f+1     :     0.113722
      f-1     :     0.045979
      f+2     :     0.073915
      f-2     :     0.050868
      f+3     :     0.043034
      f-3     :     0.074523
      g0      :     0.002817  g :     0.030110
      g+1     :     0.004568
      g-1     :     0.001251
      g+2     :     0.005996
      g-2     :     0.002783
      g+3     :     0.002464
      g-3     :     0.003234
      g+4     :     0.004421
      g-4     :     0.002575
  1 C s       :     2.923715  s :     2.923715
      pz      :     0.936204  p :     2.307872
      px      :     0.759937
      py      :     0.611731
      dz2     :     0.249590  d :     0.898521
      dxz     :     0.216493
      dyz     :     0.214116
      dx2y2   :     0.116887
      dxy     :     0.101435
      f0      :     0.021100  f :     0.089196
      f+1     :     0.021138
      f-1     :     0.010816
      f+2     :     0.014220
      f-2     :     0.016221
      f+3     :     0.002652
      f-3     :     0.003048
  2 C s       :     2.874901  s :     2.874901
      pz      :     0.912163  p :     2.329407
      px      :     0.788033
      py      :     0.629211
      dz2     :     0.274393  d :     0.997361
      dxz     :     0.223664
      dyz     :     0.197629
      dx2y2   :     0.155818
      dxy     :     0.145858
      f0      :     0.019083  f :     0.092954
      f+1     :     0.021871
      f-1     :     0.009388
      f+2     :     0.016822
      f-2     :     0.017547
      f+3     :     0.004014
      f-3     :     0.004229
  3 C s       :     2.838863  s :     2.838863
      pz      :     0.652817  p :     2.331780
      px      :     0.619147
      py      :     1.059816
      dz2     :     0.092575  d :     1.004532
      dxz     :     0.043485
      dyz     :     0.326194
      dx2y2   :     0.237535
      dxy     :     0.304744
      f0      :     0.010583  f :     0.091680
      f+1     :     0.001816
      f-1     :     0.012902
      f+2     :     0.017673
      f-2     :     0.000853
      f+3     :     0.026501
      f-3     :     0.021353
  4 Brs       :     7.620003  s :     7.620003
      pz      :     5.798717  p :    17.055608
      px      :     5.755313
      py      :     5.501579
      dz2     :     2.014852  d :    10.176114
      dxz     :     2.016382
      dyz     :     2.062971
      dx2y2   :     2.045377
      dxy     :     2.036532
      f0      :     0.000665  f :     0.004373
      f+1     :     0.000128
      f-1     :     0.000507
      f+2     :     0.000703
      f-2     :     0.000452
      f+3     :     0.000912
      f-3     :     0.001006
  5 O s       :     3.368835  s :     3.368835
      pz      :     1.367643  p :     4.276592
      px      :     1.339839
      py      :     1.569111
      dz2     :     0.025877  d :     0.197408
      dxz     :     0.000663
      dyz     :     0.049399
      dx2y2   :     0.079031
      dxy     :     0.042439
      f0      :     0.000632  f :     0.006625
      f+1     :     0.000096
      f-1     :     0.001298
      f+2     :     0.001045
      f-2     :     0.000022
      f+3     :     0.001407
      f-3     :     0.002125
  6 O s       :     3.380684  s :     3.380684
      pz      :     1.515719  p :     4.260895
      px      :     1.411029
      py      :     1.334147
      dz2     :     0.054619  d :     0.188512
      dxz     :     0.077852
      dyz     :     0.026252
      dx2y2   :     0.017597
      dxy     :     0.012193
      f0      :     0.001139  f :     0.006616
      f+1     :     0.002538
      f-1     :     0.000535
      f+2     :     0.001267
      f-2     :     0.000816
      f+3     :     0.000174
      f-3     :     0.000147
  7 O s       :     3.370315  s :     3.370315
      pz      :     1.496833  p :     4.260174
      px      :     1.429691
      py      :     1.333650
      dz2     :     0.051478  d :     0.190606
      dxz     :     0.075282
      dyz     :     0.027434
      dx2y2   :     0.020494
      dxy     :     0.015916
      f0      :     0.001013  f :     0.006731
      f+1     :     0.002335
      f-1     :     0.000527
      f+2     :     0.001361
      f-2     :     0.001033
      f+3     :     0.000233
      f-3     :     0.000229
  8 C s       :     2.649132  s :     2.649132
      pz      :     0.832264  p :     2.616268
      px      :     0.972398
      py      :     0.811605
      dz2     :     0.110421  d :     0.733620
      dxz     :     0.252833
      dyz     :     0.081155
      dx2y2   :     0.136794
      dxy     :     0.152416
      f0      :     0.007735  f :     0.044174
      f+1     :     0.005556
      f-1     :     0.004916
      f+2     :     0.008839
      f-2     :     0.004381
      f+3     :     0.005993
      f-3     :     0.006754
  9 C s       :     2.723289  s :     2.723289
      pz      :     0.884903  p :     2.658337
      px      :     1.000833
      py      :     0.772600
      dz2     :     0.101635  d :     0.680457
      dxz     :     0.189722
      dyz     :     0.089746
      dx2y2   :     0.134199
      dxy     :     0.165155
      f0      :     0.004991  f :     0.034071
      f+1     :     0.004703
      f-1     :     0.002888
      f+2     :     0.006053
      f-2     :     0.002419
      f+3     :     0.005882
      f-3     :     0.007136
 10 C s       :     2.578345  s :     2.578345
      pz      :     0.864440  p :     2.582572
      px      :     0.837915
      py      :     0.880216
      dz2     :     0.187309  d :     0.898776
      dxz     :     0.203840
      dyz     :     0.170764
      dx2y2   :     0.172343
      dxy     :     0.164519
      f0      :     0.007926  f :     0.054031
      f+1     :     0.008890
      f-1     :     0.005908
      f+2     :     0.009170
      f-2     :     0.008418
      f+3     :     0.006858
      f-3     :     0.006863
 11 C s       :     2.608627  s :     2.608627
      pz      :     0.688413  p :     2.305324
      px      :     0.805979
      py      :     0.810931
      dz2     :     0.201570  d :     1.352388
      dxz     :     0.276572
      dyz     :     0.199946
      dx2y2   :     0.305794
      dxy     :     0.368506
      f0      :     0.013703  f :     0.161448
      f+1     :     0.014361
      f-1     :     0.018116
      f+2     :     0.023333
      f-2     :     0.025631
      f+3     :     0.037850
      f-3     :     0.028453
 12 O s       :     3.273701  s :     3.273701
      pz      :     1.351121  p :     4.303004
      px      :     1.532801
      py      :     1.419082
      dz2     :     0.037838  d :     0.275864
      dxz     :     0.034277
      dyz     :     0.065182
      dx2y2   :     0.077174
      dxy     :     0.061393
      f0      :     0.000527  f :     0.006274
      f+1     :     0.000131
      f-1     :     0.001053
      f+2     :     0.001443
      f-2     :     0.001214
      f+3     :     0.001036
      f-3     :     0.000870
 13 O s       :     3.171436  s :     3.171436
      pz      :     1.495934  p :     4.260191
      px      :     1.271412
      py      :     1.492845
      dz2     :     0.071847  d :     0.511304
      dxz     :     0.107054
      dyz     :     0.043573
      dx2y2   :     0.154143
      dxy     :     0.134687
      f0      :     0.000435  f :     0.007017
      f+1     :     0.001123
      f-1     :     0.000367
      f+2     :     0.000589
      f-2     :     0.001317
      f+3     :     0.001876
      f-3     :     0.001311
 14 C s       :     2.625245  s :     2.625245
      pz      :     0.835670  p :     2.453496
      px      :     0.825951
      py      :     0.791874
      dz2     :     0.169317  d :     0.999700
      dxz     :     0.194466
      dyz     :     0.241207
      dx2y2   :     0.197176
      dxy     :     0.197534
      f0      :     0.009531  f :     0.079786
      f+1     :     0.006782
      f-1     :     0.017332
      f+2     :     0.012440
      f-2     :     0.012632
      f+3     :     0.010824
      f-3     :     0.010246
 15 O s       :     3.144553  s :     3.144553
      pz      :     1.529521  p :     4.270577
      px      :     1.439920
      py      :     1.301136
      dz2     :     0.090353  d :     0.442132
      dxz     :     0.067419
      dyz     :     0.081523
      dx2y2   :     0.096831
      dxy     :     0.106007
      f0      :     0.000303  f :     0.005357
      f+1     :     0.000397
      f-1     :     0.001076
      f+2     :     0.000978
      f-2     :     0.001181
      f+3     :     0.000805
      f-3     :     0.000617
 16 H s       :     0.527269  s :     0.527269
      pz      :     0.135100  p :     0.548330
      px      :     0.248120
      py      :     0.165110
      dz2     :     0.010213  d :     0.094399
      dxz     :     0.012843
      dyz     :     0.018758
      dx2y2   :     0.028273
      dxy     :     0.024312
 17 C s       :     2.630821  s :     2.630821
      pz      :     0.913870  p :     2.553413
      px      :     0.768905
      py      :     0.870638
      dz2     :     0.135999  d :     0.576315
      dxz     :     0.094769
      dyz     :     0.066554
      dx2y2   :     0.140195
      dxy     :     0.138798
      f0      :     0.008355  f :     0.060692
      f+1     :     0.006620
      f-1     :     0.003372
      f+2     :     0.007824
      f-2     :     0.012613
      f+3     :     0.009817
      f-3     :     0.012091
 18 H s       :     0.703886  s :     0.703886
      pz      :     0.078101  p :     0.254911
      px      :     0.098380
      py      :     0.078430
      dz2     :     0.004627  d :     0.029429
      dxz     :     0.007093
      dyz     :     0.002404
      dx2y2   :     0.007517
      dxy     :     0.007788
 19 H s       :     0.692797  s :     0.692797
      pz      :     0.133894  p :     0.263522
      px      :     0.064488
      py      :     0.065140
      dz2     :     0.011507  d :     0.029344
      dxz     :     0.008126
      dyz     :     0.009524
      dx2y2   :     0.000039
      dxy     :     0.000148
 20 H s       :     0.691380  s :     0.691380
      pz      :     0.077659  p :     0.263412
      px      :     0.064415
      py      :     0.121339
      dz2     :     0.004914  d :     0.029365
      dxz     :     0.000765
      dyz     :     0.008777
      dx2y2   :     0.007501
      dxy     :     0.007408
 21 H s       :     0.719565  s :     0.719565
      pz      :     0.121362  p :     0.313374
      px      :     0.092261
      py      :     0.099751
      dz2     :     0.007913  d :     0.029886
      dxz     :     0.006188
      dyz     :     0.007473
      dx2y2   :     0.004158
      dxy     :     0.004154
 22 H s       :     0.659833  s :     0.659833
      pz      :     0.071899  p :     0.255307
      px      :     0.075944
      py      :     0.107464
      dz2     :     0.003629  d :     0.030610
      dxz     :     0.002411
      dyz     :     0.008260
      dx2y2   :     0.008123
      dxy     :     0.008187
 23 H s       :     0.699109  s :     0.699109
      pz      :     0.094486  p :     0.264527
      px      :     0.089287
      py      :     0.080754
      dz2     :     0.007251  d :     0.029078
      dxz     :     0.007526
      dyz     :     0.005470
      dx2y2   :     0.004208
      dxy     :     0.004622
 24 H s       :     0.682061  s :     0.682061
      pz      :     0.085289  p :     0.263904
      px      :     0.081682
      py      :     0.096933
      dz2     :     0.004906  d :     0.030671
      dxz     :     0.004065
      dyz     :     0.009404
      dx2y2   :     0.006368
      dxy     :     0.005928


                      *****************************
                      * MAYER POPULATION ANALYSIS *
                      *****************************

  NA   - Mulliken gross atomic population
  ZA   - Total nuclear charge
  QA   - Mulliken gross atomic charge
  VA   - Mayer's total valence
  BVA  - Mayer's bonded valence
  FA   - Mayer's free valence

  ATOM       NA         ZA         QA         VA         BVA        FA
  0 Re    14.6324    15.0000     0.3676     5.7339     5.7339     0.0000
  1 C      5.6067     6.0000     0.3933     3.1971     3.1971    -0.0000
  2 C      5.3730     6.0000     0.6270     3.3714     3.3714    -0.0000
  3 C      6.0398     6.0000    -0.0398     3.7117     3.7117     0.0000
  4 Br    35.5690    35.0000    -0.5690     0.7318     0.7318    -0.0000
  5 O      8.2934     8.0000    -0.2934     2.3132     2.3132    -0.0000
  6 O      8.2017     8.0000    -0.2017     2.4130     2.4130     0.0000
  7 O      8.2370     8.0000    -0.2370     2.4048     2.4048    -0.0000
  8 C      7.1136     6.0000    -1.1136     4.3627     4.3627     0.0000
  9 C      5.6488     6.0000     0.3512     3.4233     3.4233     0.0000
 10 C      4.3142     6.0000     1.6858     1.3940     1.3940    -0.0000
 11 C      5.7971     6.0000     0.2029     3.7077     3.7077     0.0000
 12 O      8.5413     8.0000    -0.5413     1.7748     1.7748     0.0000
 13 O      8.1945     8.0000    -0.1945     1.8989     1.8989    -0.0000
 14 C      6.3721     6.0000    -0.3721     4.2997     4.2997     0.0000
 15 O      8.3275     8.0000    -0.3275     1.9900     1.9900     0.0000
 16 H      0.7463     1.0000     0.2537     0.9963     0.9963     0.0000
 17 C      6.1157     6.0000    -0.1157     3.8397     3.8397     0.0000
 18 H      0.9516     1.0000     0.0484     1.0573     1.0573     0.0000
 19 H      0.8985     1.0000     0.1015     1.0600     1.0600     0.0000
 20 H      0.8877     1.0000     0.1123     1.0481     1.0481    -0.0000
 21 H      1.1031     1.0000    -0.1031     1.0682     1.0682     0.0000
 22 H      1.0267     1.0000    -0.0267     0.9409     0.9409    -0.0000
 23 H      1.1150     1.0000    -0.1150     1.0235     1.0235     0.0000
 24 H      0.8934     1.0000     0.1066     0.9763     0.9763    -0.0000

  Mayer bond orders larger than 0.100000
B(  0-Re,  1-C ) :   0.8698 B(  0-Re,  2-C ) :   1.1121 B(  0-Re,  3-C ) :   1.2709 
B(  0-Re,  4-Br) :   0.4852 B(  0-Re,  8-C ) :   0.1561 B(  0-Re,  9-C ) :   0.5643 
B(  0-Re, 14-C ) :   0.7099 B(  0-Re, 15-O ) :   0.3876 B(  1-C ,  6-O ) :   2.3075 
B(  2-C ,  7-O ) :   2.2633 B(  3-C ,  5-O ) :   2.1518 B(  3-C , 14-C ) :   0.2303 
B(  8-C ,  9-C ) :   1.9578 B(  8-C , 11-C ) :   0.4713 B(  8-C , 14-C ) :   0.5050 
B(  8-C , 23-H ) :   1.2541 B(  9-C , 21-H ) :   1.0487 B(  9-C , 23-H ) :  -0.1250 
B( 10-C , 11-C ) :   0.2106 B( 10-C , 14-C ) :   0.5446 B( 10-C , 22-H ) :   1.0001 
B( 10-C , 23-H ) :  -0.2436 B( 11-C , 12-O ) :   1.5501 B( 11-C , 13-O ) :   0.9461 
B( 11-C , 14-C ) :   0.4059 B( 12-O , 14-C ) :   0.1003 B( 13-O , 17-C ) :   0.8287 
B( 14-C , 15-O ) :   0.7302 B( 14-C , 24-H ) :   0.9807 B( 15-O , 16-H ) :   0.8715 
B( 17-C , 18-H ) :   1.0635 B( 17-C , 19-H ) :   0.9829 B( 17-C , 20-H ) :   0.9734 


-------
TIMINGS
-------

Total SCF time: 0 days 0 hours 11 min 41 sec 

Total time                  ....     701.493 sec
Sum of individual times     ....     700.232 sec  ( 99.8%)

Fock matrix formation       ....     693.189 sec  ( 98.8%)
  XC integration            ....       5.745 sec  (  0.8% of F)
    Basis function eval.    ....       0.954 sec  ( 16.6% of XC)
    Density eval.           ....       1.811 sec  ( 31.5% of XC)
    XC-Functional eval.     ....       0.093 sec  (  1.6% of XC)
    XC-Potential eval.      ....       2.120 sec  ( 36.9% of XC)
Diagonalization             ....       2.403 sec  (  0.3%)
Density matrix formation    ....       0.083 sec  (  0.0%)
Population analysis         ....       0.147 sec  (  0.0%)
Initial guess               ....       2.234 sec  (  0.3%)
Orbital Transformation      ....       0.000 sec  (  0.0%)
Orbital Orthonormalization  ....       0.000 sec  (  0.0%)
DIIS solution               ....       1.315 sec  (  0.2%)
Grid generation             ....       0.862 sec  (  0.1%)

-------------------------   --------------------
FINAL SINGLE POINT ENERGY     -3451.491546986790
-------------------------   --------------------


                            ***************************************
                            *     ORCA property calculations      *
                            ***************************************

                                    ---------------------
                                    Active property flags
                                    ---------------------
   (+) Dipole Moment


------------------------------------------------------------------------------
                       ORCA ELECTRIC PROPERTIES CALCULATION
------------------------------------------------------------------------------

Dipole Moment Calculation                       ... on
Quadrupole Moment Calculation                   ... off
Polarizability Calculation                      ... off
GBWName                                         ... TMB20_I1.gbw
Electron density file                           ... TMB20_I1.scfp
The origin for moment calculation is the CENTER OF MASS  = ( 0.273450, -0.033238 -0.010571)

-------------
DIPOLE MOMENT
-------------
                                X             Y             Z
Electronic contribution:    123.11902      30.03862      -3.28635
Nuclear contribution   :   -125.53088     -28.89018       3.09124
                        -----------------------------------------
Total Dipole Moment    :     -2.41186       1.14845      -0.19511
                        -----------------------------------------
Magnitude (a.u.)       :      2.67844
Magnitude (Debye)      :      6.80806



--------------------
Rotational spectrum 
--------------------
 
Rotational constants in cm-1:     0.016025     0.007116     0.006337 
Rotational constants in MHz :   480.407323   213.341783   189.987107 

 Dipole components along the rotational axes: 
x,y,z [a.u.] :    -2.439877     1.086053    -0.203818 
x,y,z [Debye]:    -6.201674     2.760527    -0.518063 

 

Timings for individual modules:

Sum of individual times         ...      705.684 sec (=  11.761 min)
GTO integral calculation        ...        3.796 sec (=   0.063 min)   0.5 %
SCF iterations                  ...      701.888 sec (=  11.698 min)  99.5 %
                             ****ORCA TERMINATED NORMALLY****
TOTAL RUN TIME: 0 days 0 hours 11 minutes 46 seconds 301 msec
