
                                 *****************
                                 * O   R   C   A *
                                 *****************

           --- An Ab Initio, DFT and Semiempirical electronic structure package ---

                  #######################################################
                  #                        -***-                        #
                  #          Department of theory and spectroscopy      #
                  #               Directorship: Frank Neese             #
                  #        Max Planck Institute fuer Kohlenforschung    #
                  #                Kaiser Wilhelm Platz 1               #
                  #                 D-45470 Muelheim/Ruhr               #
                  #                      Germany                        #
                  #                                                     #
                  #                  All rights reserved                #
                  #                        -***-                        #
                  #######################################################


                         Program Version 4.2.0 -  RELEASE  -


 With contributions from (in alphabetic order):
   Daniel Aravena         : Magnetic Suceptibility
   Michael Atanasov       : Ab Initio Ligand Field Theory (pilot matlab implementation)
   Alexander A. Auer      : GIAO ZORA, VPT2
   Ute Becker             : Parallelization
   Giovanni Bistoni       : ED, misc. LED, open-shell LED, HFLED
   Martin Brehm           : Molecular dynamics
   Dmytro Bykov           : SCF Hessian
   Vijay G. Chilkuri      : MRCI spin determinant printing, contributions to CSF-ICE
   Dipayan Datta          : RHF DLPNO-CCSD density
   Achintya Kumar Dutta   : EOM-CC, STEOM-CC
   Dmitry Ganyushin       : Spin-Orbit,Spin-Spin,Magnetic field MRCI
   Miquel Garcia          : C-PCM Hessian, Gaussian charge scheme
   Yang Guo               : DLPNO-NEVPT2, CIM, IAO-localization
   Andreas Hansen         : Spin unrestricted coupled pair/coupled cluster methods
   Benjamin Helmich-Paris : CASSCF linear response (MC-RPA)
   Lee Huntington         : MR-EOM, pCC
   Robert Izsak           : Overlap fitted RIJCOSX, COSX-SCS-MP3, EOM
   Christian Kollmar      : KDIIS, OOCD, Brueckner-CCSD(T), CCSD density
   Simone Kossmann        : Meta GGA functionals, TD-DFT gradient, OOMP2, MP2 Hessian
   Martin Krupicka        : AUTO-CI
   Lucas Lang             : DCDCAS
   Dagmar Lenk            : GEPOL surface, SMD
   Dimitrios Liakos       : Extrapolation schemes; Compound Job, initial MDCI parallelization
   Dimitrios Manganas     : Further ROCIS development; embedding schemes
   Dimitrios Pantazis     : SARC Basis sets
   Taras Petrenko         : DFT Hessian,TD-DFT gradient, ASA, ECA, R-Raman, ABS, FL, XAS/XES, NRVS
   Peter Pinski           : DLPNO-MP2, DLPNO-MP2 Gradient
   Christoph Reimann      : Effective Core Potentials
   Marius Retegan         : Local ZFS, SOC
   Christoph Riplinger    : Optimizer, TS searches, QM/MM, DLPNO-CCSD(T), (RO)-DLPNO pert. Triples
   Tobias Risthaus        : Range-separated hybrids, TD-DFT gradient, RPA, STAB
   Michael Roemelt        : Original ROCIS implementation
   Masaaki Saitow         : Open-shell DLPNO-CCSD energy and density
   Barbara Sandhoefer     : DKH picture change effects
   Avijit Sen             : IP-ROCIS
   Kantharuban Sivalingam : CASSCF convergence, NEVPT2, FIC-MRCI
   Bernardo de Souza      : ESD, SOC TD-DFT
   Georgi Stoychev        : AutoAux, RI-MP2 NMR
   Willem Van den Heuvel  : Paramagnetic NMR
   Boris Wezisla          : Elementary symmetry handling
   Frank Wennmohs         : Technical directorship


 We gratefully acknowledge several colleagues who have allowed us to
 interface, adapt or use parts of their codes:
   Stefan Grimme, W. Hujo, H. Kruse,             : VdW corrections, initial TS optimization,
                  C. Bannwarth                     DFT functionals, gCP, sTDA/sTD-DF
   Ed Valeev, F. Pavosevic, A. Kumar             : LibInt (2-el integral package), F12 methods
   Garnet Chan, S. Sharma, J. Yang, R. Olivares  : DMRG
   Ulf Ekstrom                                   : XCFun DFT Library
   Mihaly Kallay                                 : mrcc  (arbitrary order and MRCC methods)
   Andreas Klamt, Michael Diedenhofen            : otool_cosmo (COSMO solvation model)
   Jiri Pittner, Ondrej Demel                    : Mk-CCSD
   Frank Weinhold                                : gennbo (NPA and NBO analysis)
   Christopher J. Cramer and Donald G. Truhlar   : smd solvation model
   Lars Goerigk                                  : TD-DFT with DH, B97 family of functionals
   V. Asgeirsson, H. Jonsson                     : NEB implementation
   FAccTs GmbH                                   : IRC, NEB, NEB-TS, Multilevel, MM, QM/MM, CI optimization
   S Lehtola, MJT Oliveira, MAL Marques          : LibXC Library


 Your calculation uses the libint2 library for the computation of 2-el integrals
 For citations please refer to: http://libint.valeyev.net

 Your ORCA version has been built with support for libXC version: 4.2.3
 For citations please refer to: https://tddft.org/programs/libxc/

 This ORCA versions uses:
   CBLAS   interface :  Fast vector & matrix operations
   LAPACKE interface :  Fast linear algebra routines
   SCALAPACK package :  Parallel linear algebra routines


Your calculation utilizes the DFT-NL dispersion correction.
Cite in your paper:
Vydrov, O. A.; Van Voorhis, T. J. Chem. Phys. 2010, 133, 244103
Hujo, W.; Grimme, S. J. Chem. Theory Comput. 2011, 7, 3866 
   

----- Orbital basis set information -----
Your calculation utilizes the basis: def2-TZVPPD
   F. Weigend and R. Ahlrichs, Phys. Chem. Chem. Phys. 7, 3297 (2005).
   D. Rappoport and F. Furche, J. Chem. Phys. 133 134105 (2010).

----- AuxJK basis set information -----
Your calculation utilizes the auxiliary basis: def2/JK
   H-Ba, Hf-Rn: F. Weigend, J. Comput. Chem. 29, 167 (2008).

cite the ECPs for Ir [Def2-ECP] as follows:
Ce-Yb(ecp-28): M. Dolg, H. Stoll, H.Preuss, J. Chem. Phys., 1989, 90, 1730-1734.
Y-Cd(ecp-28), Hf-Hg(ecp-46): D. Andrae,U. Haeussermann, M. Dolg, H. Stoll, H. Preuss, Theor. Chim. Acta, 1990, 77, 123-141.
In-Sb(ecp-28), Tl-Bi(ecp-46): B. Metz, H. Stoll, M. Dolg, J. Chem. Phys., 2000, 113, 2563-2569.
Te-Xe(ecp-28), Po-Rn(ecp-46): K. A. Peterson, D. Figgen, E. Goll, H. Stoll, M. Dolg, J. Chem. Phys., 2003, 119, 11113-11123.
Rb(ecp-28), Cs(ecp-46): T. Leininger, A. Nicklass, W. Kuechle, H. Stoll, M. Dolg, A. Bergner, Chem. Phys. Lett., 1996, 255, 274-280.
Sr(ecp-28), Ba(ecp-46): M. Kaupp, P. V. Schleyer, H. Stoll and H. Preuss, J. Chem. Phys., 1991, 94, 1360-1366.
La(ecp-46): M. Dolg, H. Stoll, A. Savin, H. Preuss, Theor. Chim. Acta, 1989, 75, 173-194.
Lu(ecp-28): X. Cao, M. Dolg, J. Chem. Phys., 2001, 115, 7348-7355.

ECP parameters for Ir [Def2-ECP] have been obtained from:
TURBOMOLE (7.0.2)

================================================================================
                                        WARNINGS
                       Please study these warnings very carefully!
================================================================================


INFO   : the flag for use of LIBINT has been found!

================================================================================
                                       INPUT FILE
================================================================================
NAME = TMB31_T1.in
|  1> #
|  2> # TMB31_T1 wB97X-V/Def2-TZVPPD
|  3> #
|  4> ! wb97x-v def2-tzvppd def2/jk grid4 nofinalgrid
|  5> 
|  6> *xyz 1 1
|  7> Ir       0.050361    0.056236   -0.150076 
|  8> C        0.978842   -1.302743   -1.517387 
|  9> C       -1.864665    1.028637    0.563211 
| 10> C       -1.426558    0.128925    1.555248 
| 11> C       -1.389999   -1.187568    0.972706 
| 12> C       -1.852948   -1.076424   -0.368776 
| 13> C       -2.115280    0.291316   -0.640524 
| 14> H        0.395138   -1.326753   -2.435403 
| 15> H        2.003015   -1.039631   -1.784042 
| 16> H        0.978935   -2.299217   -1.075482 
| 17> H       -1.949414   -1.889112   -1.072248 
| 18> H       -2.488115    0.695321   -1.568578 
| 19> H       -1.982151    2.094988    0.682898 
| 20> H       -1.179131    0.379256    2.575311 
| 21> H       -1.144965   -2.105263    1.484015 
| 22> C        0.981659    2.033847   -0.552795 
| 23> H        0.609290    0.819803   -1.428069 
| 24> H        0.362656    2.677374   -1.174650 
| 25> H        1.003724    2.445002    0.454509 
| 26> H        1.994491    2.026607   -0.953376 
| 27> P        1.998129   -0.331589    0.938590 
| 28> H        2.205383    0.285042    2.190624 
| 29> H        2.302734   -1.672090    1.247762 
| 30> H        3.172367    0.056392    0.263634 
| 31> *
| 32> 
| 33> %maxcore 5000
| 34> 
| 35> %pal
| 36> nprocs = 24
| 37> end
| 38> 
| 39> 
| 40>                          ****END OF INPUT****
================================================================================

                       ****************************
                       * Single Point Calculation *
                       ****************************

---------------------------------
CARTESIAN COORDINATES (ANGSTROEM)
---------------------------------
  Ir     0.050361    0.056236   -0.150076
  C      0.978842   -1.302743   -1.517387
  C     -1.864665    1.028637    0.563211
  C     -1.426558    0.128925    1.555248
  C     -1.389999   -1.187568    0.972706
  C     -1.852948   -1.076424   -0.368776
  C     -2.115280    0.291316   -0.640524
  H      0.395138   -1.326753   -2.435403
  H      2.003015   -1.039631   -1.784042
  H      0.978935   -2.299217   -1.075482
  H     -1.949414   -1.889112   -1.072248
  H     -2.488115    0.695321   -1.568578
  H     -1.982151    2.094988    0.682898
  H     -1.179131    0.379256    2.575311
  H     -1.144965   -2.105263    1.484015
  C      0.981659    2.033847   -0.552795
  H      0.609290    0.819803   -1.428069
  H      0.362656    2.677374   -1.174650
  H      1.003724    2.445002    0.454509
  H      1.994491    2.026607   -0.953376
  P      1.998129   -0.331589    0.938590
  H      2.205383    0.285042    2.190624
  H      2.302734   -1.672090    1.247762
  H      3.172367    0.056392    0.263634

----------------------------
CARTESIAN COORDINATES (A.U.)
----------------------------
  NO LB      ZA    FRAG     MASS         X           Y           Z
   0 Ir   17.0000*   0   192.220    0.095168    0.106271   -0.283603
   1 C     6.0000    0    12.011    1.849743   -2.461827   -2.867446
   2 C     6.0000    0    12.011   -3.523706    1.943842    1.064315
   3 C     6.0000    0    12.011   -2.695804    0.243633    2.938993
   4 C     6.0000    0    12.011   -2.626717   -2.244178    1.838148
   5 C     6.0000    0    12.011   -3.501564   -2.034147   -0.696886
   6 C     6.0000    0    12.011   -3.997300    0.550507   -1.210415
   7 H     1.0000    0     1.008    0.746703   -2.507200   -4.602245
   8 H     1.0000    0     1.008    3.785150   -1.964618   -3.371351
   9 H     1.0000    0     1.008    1.849919   -4.344890   -2.032366
  10 H     1.0000    0     1.008   -3.683859   -3.569904   -2.026255
  11 H     1.0000    0     1.008   -4.701856    1.313966   -2.964183
  12 H     1.0000    0     1.008   -3.745723    3.958954    1.290490
  13 H     1.0000    0     1.008   -2.228235    0.716690    4.866632
  14 H     1.0000    0     1.008   -2.163670   -3.978371    2.804382
  15 C     6.0000    0    12.011    1.855067    3.843414   -1.044631
  16 H     1.0000    0     1.008    1.151391    1.549203   -2.698659
  17 H     1.0000    0     1.008    0.685321    5.059504   -2.219767
  18 H     1.0000    0     1.008    1.896763    4.620384    0.858898
  19 H     1.0000    0     1.008    3.769042    3.829732   -1.801620
  20 P    15.0000    0    30.974    3.775917   -0.626612    1.773678
  21 H     1.0000    0     1.008    4.167570    0.538651    4.139679
  22 H     1.0000    0     1.008    4.351537   -3.159792    2.357928
  23 H     1.0000    0     1.008    5.994905    0.106565    0.498196
* core charge reduced due to ECP

--------------------------------
INTERNAL COORDINATES (ANGSTROEM)
--------------------------------
 Ir     0   0   0     0.000000000000     0.00000000     0.00000000
 C      1   0   0     2.139729015675     0.00000000     0.00000000
 C      1   2   0     2.263109946478   147.29684165     0.00000000
 C      3   1   2     1.409097880121    71.60618925   109.95483900
 C      4   3   1     1.440085261814   107.86687635   299.51713212
 C      5   4   3     1.423463635525   107.55290156   358.13589628
 C      6   5   4     1.418935432403   108.41371098     2.61785804
 H      2   1   3     1.088136120149   108.68430622    28.89272371
 H      2   1   3     1.090533423375   114.23846180   149.07972475
 H      2   1   3     1.090064434036   108.75811861   270.61756156
 H      6   5   4     1.079185030143   125.77369162   180.32651451
 H      7   6   5     1.078661301877   126.13625043   180.71690752
 H      3   1   2     1.079459306026   123.47003648   231.36290723
 H      4   3   1     1.079080281471   126.06378854   120.50322017
 H      5   4   3     1.078722701931   126.28049873   183.31563958
 C      1   2   3     2.222710918020   105.51514942   240.74066631
 H     16   1   2     1.542292475885    45.67694378    34.08344470
 H     16   1   2     1.088115506168   113.04101722    99.90861638
 H     16   1   2     1.088207997887   100.19195419   215.15867565
 H     16   1   2     1.089195214544   116.76534690   332.51219958
 P      1   2   3     2.264818330905    79.93455623   160.91820452
 H     21   1   2     1.410949023825   118.55720729   181.75620396
 H     21   1   2     1.409011874545   117.02035915   303.05502782
 H     21   1   2     1.408875345423   116.06190261    61.93680212

---------------------------
INTERNAL COORDINATES (A.U.)
---------------------------
 Ir     0   0   0     0.000000000000     0.00000000     0.00000000
 C      1   0   0     4.043501840431     0.00000000     0.00000000
 C      1   2   0     4.276658009796   147.29684165     0.00000000
 C      3   1   2     2.662809089318    71.60618925   109.95483900
 C      4   3   1     2.721366754325   107.86687635   299.51713212
 C      5   4   3     2.689956432737   107.55290156   358.13589628
 C      6   5   4     2.681399368958   108.41371098     2.61785804
 H      2   1   3     2.056279263508   108.68430622    28.89272371
 H      2   1   3     2.060809510066   114.23846180   149.07972475
 H      2   1   3     2.059923248656   108.75811861   270.61756156
 H      6   5   4     2.039364154797   125.77369162   180.32651451
 H      7   6   5     2.038374451806   126.13625043   180.71690752
 H      3   1   2     2.039882461102   123.47003648   231.36290723
 H      4   3   1     2.039166208494   126.06378854   120.50322017
 H      5   4   3     2.038490481094   126.28049873   183.31563958
 C      1   2   3     4.200314909935   105.51514942   240.74066631
 H     16   1   2     2.914510397831    45.67694378    34.08344470
 H     16   1   2     2.056240308730   113.04101722    99.90861638
 H     16   1   2     2.056415092750   100.19195419   215.15867565
 H     16   1   2     2.058280661865   116.76534690   332.51219958
 P      1   2   3     4.279886388496    79.93455623   160.91820452
 H     21   1   2     2.666307243953   118.55720729   181.75620396
 H     21   1   2     2.662646562334   117.02035915   303.05502782
 H     21   1   2     2.662388559683   116.06190261    61.93680212

---------------------
BASIS SET INFORMATION
---------------------
There are 4 groups of distinct atoms

 Group   1 Type Ir  : 8s8p6d2f1g contracted to 6s5p3d2f1g pattern {311111/41111/411/11/1}
 Group   2 Type C   : 12s6p3d1f contracted to 6s3p3d1f pattern {621111/411/111/1}
 Group   3 Type H   : 5s3p1d contracted to 3s3p1d pattern {311/111/1}
 Group   4 Type P   : 15s9p4d1f contracted to 6s5p4d1f pattern {732111/51111/1111/1}

Atom   0Ir   basis set group =>   1
Atom   1C    basis set group =>   2
Atom   2C    basis set group =>   2
Atom   3C    basis set group =>   2
Atom   4C    basis set group =>   2
Atom   5C    basis set group =>   2
Atom   6C    basis set group =>   2
Atom   7H    basis set group =>   3
Atom   8H    basis set group =>   3
Atom   9H    basis set group =>   3
Atom  10H    basis set group =>   3
Atom  11H    basis set group =>   3
Atom  12H    basis set group =>   3
Atom  13H    basis set group =>   3
Atom  14H    basis set group =>   3
Atom  15C    basis set group =>   2
Atom  16H    basis set group =>   3
Atom  17H    basis set group =>   3
Atom  18H    basis set group =>   3
Atom  19H    basis set group =>   3
Atom  20P    basis set group =>   4
Atom  21H    basis set group =>   3
Atom  22H    basis set group =>   3
Atom  23H    basis set group =>   3
----------------------------------
AUXILIARY/JK BASIS SET INFORMATION
----------------------------------
There are 4 groups of distinct atoms

 Group   1 Type Ir  : 13s12p11d9f5g3h2i contracted to 11s9p9d7f4g3h2i pattern {31111111111/411111111/311111111/3111111/2111/111/11}
 Group   2 Type C   : 14s10p6d2f1g contracted to 10s8p5d1f1g pattern {5111111111/31111111/21111/2/1}
 Group   3 Type H   : 4s2p2d contracted to 2s2p2d pattern {31/11/11}
 Group   4 Type P   : 16s12p10d4f1g contracted to 13s11p9d4f1g pattern {4111111111111/21111111111/211111111/1111/1}

Atom   0Ir   basis set group =>   1
Atom   1C    basis set group =>   2
Atom   2C    basis set group =>   2
Atom   3C    basis set group =>   2
Atom   4C    basis set group =>   2
Atom   5C    basis set group =>   2
Atom   6C    basis set group =>   2
Atom   7H    basis set group =>   3
Atom   8H    basis set group =>   3
Atom   9H    basis set group =>   3
Atom  10H    basis set group =>   3
Atom  11H    basis set group =>   3
Atom  12H    basis set group =>   3
Atom  13H    basis set group =>   3
Atom  14H    basis set group =>   3
Atom  15C    basis set group =>   2
Atom  16H    basis set group =>   3
Atom  17H    basis set group =>   3
Atom  18H    basis set group =>   3
Atom  19H    basis set group =>   3
Atom  20P    basis set group =>   4
Atom  21H    basis set group =>   3
Atom  22H    basis set group =>   3
Atom  23H    basis set group =>   3
-------------------------
ECP PARAMETER INFORMATION
-------------------------

 Group 1, Type Ir ECP Def2-ECP (replacing 60 core electrons, lmax=3)

Atom   0Ir   ECP group =>   1



           ************************************************************
           *        Program running with 24 parallel MPI-processes    *
           *              working on a common directory               *
           ************************************************************
------------------------------------------------------------------------------
                           ORCA GTO INTEGRAL CALCULATION
------------------------------------------------------------------------------

                         BASIS SET STATISTICS AND STARTUP INFO

 # of primitive gaussian shells          ...  343
 # of primitive gaussian functions       ...  803
 # of contracted shells                  ...  229
 # of contracted basis functions         ...  621
 Highest angular momentum                ...    4
 Maximum contraction depth               ...    7
 Integral package used                   ... LIBINT
 Integral threshhold            Thresh   ...  1.000e-10
 Primitive cut-off              TCut     ...  1.000e-11


------------------------------ INTEGRAL EVALUATION ----------------------------


 * One electron integrals 

   ECP integrals                         ... done
 Pre-screening matrix                    ... done
 Shell pair data                         ... done (   0.006 sec)



           ************************************************************
           *        Program running with 24 parallel MPI-processes    *
           *              working on a common directory               *
           ************************************************************
-------------------------------------------------------------------------------
                                 ORCA SCF
-------------------------------------------------------------------------------

------------
SCF SETTINGS
------------
Hamiltonian:
 Density Functional     Method          .... DFT(GTOs)
 Exchange Functional    Exchange        .... WB97X-V
 Correlation Functional Correlation     .... WB97X-V
 Gradients option       PostSCFGGA      .... off
 Hybrid DFT is turned on
   Fraction HF Exchange ScalHFX         ....  0.167000
   Scaling of DF-GGA-X  ScalDFX         ....  0.000000
   Scaling of DF-GGA-C  ScalDFC         ....  1.000000
   Scaling of DF-LDA-C  ScalLDAC        ....  1.000000
   Perturbative correction              ....  0.000000
   Density functional embedding theory  .... OFF
 Long-range corrected/Screened/Range-Separated Hybrid DFT is turned on
   Amount of maximum screened exact exchange              ....  0.833000
   Range separation parameter mu (erf(mu*r12)/r12)        ....  0.300000
   NL short-range parameter             ....  6.000000
   NL long-range parameter              ....  0.010000


General Settings:
 Integral files         IntName         .... TMB31_T1
 Hartree-Fock type      HFTyp           .... RHF
 Total Charge           Charge          ....    1
 Multiplicity           Mult            ....    1
 Number of Electrons    NEL             ....   88
 Basis Dimension        Dim             ....  621
 Nuclear Repulsion      ENuc            ....    712.9282020928 Eh

Convergence Acceleration:
 DIIS                   CNVDIIS         .... on
   Start iteration      DIISMaxIt       ....    12
   Startup error        DIISStart       ....  0.200000
   # of expansion vecs  DIISMaxEq       ....     5
   Bias factor          DIISBfac        ....   1.050
   Max. coefficient     DIISMaxC        ....  10.000
 Newton-Raphson         CNVNR           .... off
 SOSCF                  CNVSOSCF        .... off
 Level Shifting         CNVShift        .... on
   Level shift para.    LevelShift      ....    0.2500
   Turn off err/grad.   ShiftErr        ....    0.0010
 Zerner damping         CNVZerner       .... off
 Static damping         CNVDamp         .... on
   Fraction old density DampFac         ....    0.7000
   Max. Damping (<1)    DampMax         ....    0.9800
   Min. Damping (>=0)   DampMin         ....    0.0000
   Turn off err/grad.   DampErr         ....    0.1000
 Fernandez-Rico         CNVRico         .... off

SCF Procedure:
 Maximum # iterations   MaxIter         ....   125
 SCF integral mode      SCFMode         .... Direct
   Integral package                     .... LIBINT
 Reset frequency        DirectResetFreq ....    20
 Integral Threshold     Thresh          ....  1.000e-10 Eh
 Primitive CutOff       TCut            ....  1.000e-11 Eh

Convergence Tolerance:
 Convergence Check Mode ConvCheckMode   .... Total+1el-Energy
 Convergence forced     ConvForced      .... 0
 Energy Change          TolE            ....  1.000e-06 Eh
 1-El. energy change                    ....  1.000e-03 Eh
 DIIS Error             TolErr          ....  1.000e-06


Diagonalization of the overlap matrix:
Smallest eigenvalue                        ... 9.569e-07
Time for diagonalization                   ...    0.056 sec
Threshold for overlap eigenvalues          ... 1.000e-08
Number of eigenvalues below threshold      ... 0
Time for construction of square roots      ...    0.061 sec
Total time needed                          ...    0.118 sec

-------------------
DFT GRID GENERATION
-------------------

General Integration Accuracy     IntAcc      ...  4.670
Radial Grid Type                 RadialGrid  ... Gauss-Chebyshev
Angular Grid (max. acc.)         AngularGrid ... Lebedev-302
Angular grid pruning method      GridPruning ... 3 (G Style)
Weight generation scheme         WeightScheme... Becke
Basis function cutoff            BFCut       ...    1.0000e-10
Integration weight cutoff        WCut        ...    1.0000e-14
Grids for H and He will be reduced by one unit

# of grid points (after initial pruning)     ... 112892 (   0.0 sec)
# of grid points (after weights+screening)   ...  99836 (   0.1 sec)
nearest neighbour list constructed           ...    0.0 sec
Grid point re-assignment to atoms done       ...    0.0 sec
Grid point division into batches done        ...    0.4 sec
Reduced shell lists constructed in    0.5 sec

Total number of grid points                  ...    99836
Total number of batches                      ...     1573
Average number of points per batch           ...       63
Average number of grid points per atom       ...     4160
Average number of shells per batch           ...   182.21 (79.57%)
Average number of basis functions per batch  ...   513.91 (82.76%)
Average number of large shells per batch     ...   151.07 (82.91%)
Average number of large basis fcns per batch ...   420.87 (81.89%)
Maximum spatial batch extension              ...   1.80,  1.97,  1.92 au
Average spatial batch extension              ...   0.05,  0.05,  0.05 au

Time for grid setup =    0.552 sec

------------------------------
INITIAL GUESS: MODEL POTENTIAL
------------------------------
Loading Hartree-Fock densities                     ... done
  calling /sw/apps/orca/orca_4_2_0_linux_x86-64_openmpi314/orca TMB31_T1_atom77.inp > TMB31_T1_atom77.out in order to generate an atomic fitting density for atom 0 (Ir with ECP) on-the-fly... 
    atom 0 (Ir), assumed electronic state with S=4: 1s2 2s2 2p6 3s2 3p6 4s2 3d10 4p6 5s2 4d10 5p6 6s2 4f14 5d7           ... done
Calculating cut-offs                               ... done
Setting up the integral package                    ... done
Initializing the effective Hamiltonian             ... done
Starting the Coulomb interaction                   ... done (   0.1 sec)
Reading the grid                                   ... done
Mapping shells                                     ... done
Starting the XC term evaluation                    ... done (   0.2 sec)
  promolecular density results
     # of electrons  =    148.995325330
     EX              =   -322.364229372
     EC              =     -9.105256863
     EX+EC           =   -331.469486235
Transforming the Hamiltonian                       ... done (   0.0 sec)
Diagonalizing the Hamiltonian                      ... done (   0.1 sec)
Back transforming the eigenvectors                 ... done (   0.0 sec)
Now organizing SCF variables                       ... done
                      ------------------
                      INITIAL GUESS DONE (   2.6 sec)
                      ------------------
--------------
SCF ITERATIONS
--------------
ITER       Energy         Delta-E        Max-DP      RMS-DP      [F,P]     Damp
               ***  Starting incremental Fock matrix formation  ***
  0   -717.2096910779   0.00000000000052.14503139  0.30508623  0.9430279 0.7000
  1   -719.1156371087  -1.90594603076815.81524875  0.09103292  0.2834371 0.7000
                               ***Turning on DIIS***
  2   -719.7541125828  -0.63847547414011.33535095  0.06548730  0.1517376 0.7000
  3   -720.2633848752  -0.509272292422 7.96642262  0.04602204  0.1014291 0.7000
  4   -720.6305132396  -0.36712836438418.64065311  0.10748805  0.0714056 0.0000
  5   -721.5248529921  -0.894339752512 0.14889106  0.00088193  0.0152850 0.0000
  6   -721.5298099405  -0.004956948346 0.02857480  0.00024961  0.0037853 0.0000
  7   -721.5305203930  -0.000710452575 0.01286748  0.00011101  0.0018785 0.0000
  8   -721.5307020067  -0.000181613629 0.00464080  0.00006209  0.0014469 0.0000
  9   -721.5307660681  -0.000064061405 0.00496985  0.00005335  0.0005741 0.0000
 10   -721.5307877019  -0.000021633852 0.00288371  0.00001782  0.0005082 0.0000
 11   -721.5307900752  -0.000002373268 0.00492070  0.00002356  0.0003838 0.0000
 12   -721.5307907725  -0.000000697343 0.00412280  0.00002123  0.0001656 0.0000
                 **** Energy Check signals convergence ****

               *****************************************************
               *                     SUCCESS                       *
               *           SCF CONVERGED AFTER  13 CYCLES          *
               *****************************************************


Setting up the DFT-NL grid :

General Integration Accuracy     IntAcc      ...  4.340
Radial Grid Type                 RadialGrid  ... Gauss-Chebyshev
Angular Grid (max. acc.)         AngularGrid ... Lebedev-110
Angular grid pruning method      GridPruning ... 3 (G Style)
Weight generation scheme         WeightScheme... Becke
Basis function cutoff            BFCut       ...    1.0000e-10
Integration weight cutoff        WCut        ...    1.0000e-14
Grids for H and He will be reduced by one unit

# of grid points (after initial pruning)     ...  28838 (   0.0 sec)
# of grid points (after weights+screening)   ...  25923 (   0.0 sec)
nearest neighbour list constructed           ...    0.0 sec
Grid point re-assignment to atoms done       ...    0.0 sec
Grid point division into batches done        ...    0.0 sec
Reduced shell lists constructed in    0.0 sec

Total number of grid points                  ...    25923
Total number of batches                      ...      416
Average number of points per batch           ...       62
Average number of grid points per atom       ...     1080
Average number of shells per batch           ...   180.16 (78.67%)
Average number of basis functions per batch  ...   507.74 (81.76%)
Average number of large shells per batch     ...   151.42 (84.05%)
Average number of large basis fcns per batch ...   424.16 (83.54%)
Maximum spatial batch extension              ...   2.30,  2.42,  2.44 au
Average spatial batch extension              ...   0.08,  0.08,  0.07 au

Final grid set up in    0.1 sec

-------------------------------------------------------------------------------
                         DFT-NL dispersion correction                          
-------------------------------------------------------------------------------

SC Energy -721.530790991 
NL    Energy 0.318533585 
SC+NL Energy -721.212257406 
NL done in    0.2 sec
-------------------------------------------------------------------------------

----------------
TOTAL SCF ENERGY
----------------

Total Energy       :         -721.21225741 Eh          -19625.18325 eV

Components:
Nuclear Repulsion  :          712.92820209 Eh           19399.76264 eV
Electronic Energy  :        -1434.14045950 Eh          -39024.94589 eV
One Electron Energy:        -2425.10741686 Eh          -65990.52771 eV
Two Electron Energy:          990.96695736 Eh           26965.58181 eV

Virial components:
Potential Energy   :        -1371.49209121 Eh          -37320.19712 eV
Kinetic Energy     :          650.27983380 Eh           17695.01387 eV
Virial Ratio       :            2.10907985


DFT components:
N(Alpha)           :       44.000118497846 electrons
N(Beta)            :       44.000118497846 electrons
N(Total)           :       88.000236995691 electrons
E(X)               :      -49.907104593386 Eh       
E(C)               :       -3.786024831239 Eh       
NL Energy, E(C,NL) :        0.318533585047 Eh       
E(XC)              :      -53.374595839578 Eh       
DFET-embed. en.    :        0.000000000000 Eh       

---------------
SCF CONVERGENCE
---------------

  Last Energy change         ...   -2.1883e-07  Tolerance :   1.0000e-06
  Last MAX-Density change    ...    6.3294e-03  Tolerance :   1.0000e-05
  Last RMS-Density change    ...    3.7497e-05  Tolerance :   1.0000e-06
  Last DIIS Error            ...    5.0487e-05  Tolerance :   1.0000e-06

             **** THE GBW FILE WAS UPDATED (TMB31_T1.gbw) ****
             **** DENSITY FILE WAS UPDATED (TMB31_T1.scfp) ****
             **** ENERGY FILE WAS UPDATED (TMB31_T1.en.tmp) ****
             **** THE GBW FILE WAS UPDATED (TMB31_T1.gbw) ****
             **** DENSITY FILE WAS UPDATED (TMB31_T1.scfp) ****
----------------
ORBITAL ENERGIES
----------------

  NO   OCC          E(Eh)            E(eV) 
   0   2.0000     -77.275922     -2102.7847 
   1   2.0000     -10.464024      -284.7406 
   2   2.0000     -10.462619      -284.7023 
   3   2.0000     -10.461771      -284.6793 
   4   2.0000     -10.460243      -284.6377 
   5   2.0000     -10.458426      -284.5883 
   6   2.0000     -10.444754      -284.2162 
   7   2.0000     -10.409686      -283.2619 
   8   2.0000      -6.857422      -186.5999 
   9   2.0000      -5.010656      -136.3469 
  10   2.0000      -5.010564      -136.3444 
  11   2.0000      -5.007936      -136.2729 
  12   2.0000      -4.008408      -109.0743 
  13   2.0000      -2.357940       -64.1628 
  14   2.0000      -2.342879       -63.7530 
  15   2.0000      -2.335250       -63.5454 
  16   2.0000      -1.207632       -32.8613 
  17   2.0000      -1.027487       -27.9593 
  18   2.0000      -1.022275       -27.8175 
  19   2.0000      -0.992995       -27.0208 
  20   2.0000      -0.966171       -26.2909 
  21   2.0000      -0.942751       -25.6536 
  22   2.0000      -0.839892       -22.8546 
  23   2.0000      -0.838606       -22.8196 
  24   2.0000      -0.826519       -22.4907 
  25   2.0000      -0.740407       -20.1475 
  26   2.0000      -0.715874       -19.4799 
  27   2.0000      -0.704813       -19.1789 
  28   2.0000      -0.701136       -19.0789 
  29   2.0000      -0.691109       -18.8060 
  30   2.0000      -0.683712       -18.6047 
  31   2.0000      -0.661993       -18.0137 
  32   2.0000      -0.660802       -17.9813 
  33   2.0000      -0.658411       -17.9163 
  34   2.0000      -0.647185       -17.6108 
  35   2.0000      -0.644429       -17.5358 
  36   2.0000      -0.635220       -17.2852 
  37   2.0000      -0.625488       -17.0204 
  38   2.0000      -0.597407       -16.2563 
  39   2.0000      -0.560393       -15.2491 
  40   2.0000      -0.545243       -14.8368 
  41   2.0000      -0.527811       -14.3625 
  42   2.0000      -0.512051       -13.9336 
  43   2.0000      -0.487889       -13.2761 
  44   0.0000      -0.111941        -3.0461 
  45   0.0000      -0.090411        -2.4602 
  46   0.0000      -0.076515        -2.0821 
  47   0.0000      -0.067641        -1.8406 
  48   0.0000      -0.057393        -1.5617 
  49   0.0000      -0.053709        -1.4615 
  50   0.0000      -0.050436        -1.3724 
  51   0.0000      -0.047773        -1.3000 
  52   0.0000      -0.037030        -1.0076 
  53   0.0000      -0.024702        -0.6722 
  54   0.0000      -0.018638        -0.5072 
  55   0.0000      -0.016977        -0.4620 
  56   0.0000      -0.008672        -0.2360 
  57   0.0000      -0.005504        -0.1498 
  58   0.0000      -0.000304        -0.0083 
  59   0.0000       0.005679         0.1545 
  60   0.0000       0.011434         0.3111 
  61   0.0000       0.020929         0.5695 
  62   0.0000       0.024557         0.6682 
  63   0.0000       0.027610         0.7513 
  64   0.0000       0.034449         0.9374 
  65   0.0000       0.040552         1.1035 
  66   0.0000       0.044965         1.2236 
  67   0.0000       0.046295         1.2598 
  68   0.0000       0.047275         1.2864 
  69   0.0000       0.064347         1.7510 
  70   0.0000       0.065889         1.7929 
  71   0.0000       0.071314         1.9405 
  72   0.0000       0.077963         2.1215 
  73   0.0000       0.084801         2.3075 
  74   0.0000       0.086224         2.3463 
  75   0.0000       0.092980         2.5301 
  76   0.0000       0.094711         2.5772 
  77   0.0000       0.101111         2.7514 
  78   0.0000       0.106893         2.9087 
  79   0.0000       0.115500         3.1429 
  80   0.0000       0.119884         3.2622 
  81   0.0000       0.126580         3.4444 
  82   0.0000       0.133136         3.6228 
  83   0.0000       0.136673         3.7191 
  84   0.0000       0.143892         3.9155 
  85   0.0000       0.147235         4.0065 
  86   0.0000       0.150598         4.0980 
  87   0.0000       0.156050         4.2463 
  88   0.0000       0.159872         4.3503 
  89   0.0000       0.164880         4.4866 
  90   0.0000       0.185080         5.0363 
  91   0.0000       0.185902         5.0586 
  92   0.0000       0.189639         5.1603 
  93   0.0000       0.193023         5.2524 
  94   0.0000       0.201431         5.4812 
  95   0.0000       0.203884         5.5480 
  96   0.0000       0.207046         5.6340 
  97   0.0000       0.209099         5.6899 
  98   0.0000       0.211934         5.7670 
  99   0.0000       0.213954         5.8220 
 100   0.0000       0.218284         5.9398 
 101   0.0000       0.220516         6.0005 
 102   0.0000       0.226794         6.1714 
 103   0.0000       0.231424         6.2974 
 104   0.0000       0.236121         6.4252 
 105   0.0000       0.243646         6.6300 
 106   0.0000       0.245373         6.6769 
 107   0.0000       0.246293         6.7020 
 108   0.0000       0.249907         6.8003 
 109   0.0000       0.252247         6.8640 
 110   0.0000       0.255517         6.9530 
 111   0.0000       0.266063         7.2399 
 112   0.0000       0.271664         7.3923 
 113   0.0000       0.274142         7.4598 
 114   0.0000       0.275286         7.4909 
 115   0.0000       0.276210         7.5161 
 116   0.0000       0.282304         7.6819 
 117   0.0000       0.285186         7.7603 
 118   0.0000       0.289747         7.8844 
 119   0.0000       0.291664         7.9366 
 120   0.0000       0.293065         7.9747 
 121   0.0000       0.295235         8.0338 
 122   0.0000       0.297119         8.0850 
 123   0.0000       0.302734         8.2378 
 124   0.0000       0.312130         8.4935 
 125   0.0000       0.315025         8.5723 
 126   0.0000       0.318766         8.6741 
 127   0.0000       0.322679         8.7805 
 128   0.0000       0.328316         8.9339 
 129   0.0000       0.332318         9.0428 
 130   0.0000       0.335678         9.1343 
 131   0.0000       0.344779         9.3819 
 132   0.0000       0.347124         9.4457 
 133   0.0000       0.352787         9.5998 
 134   0.0000       0.362933         9.8759 
 135   0.0000       0.368160        10.0181 
 136   0.0000       0.372829        10.1452 
 137   0.0000       0.376113        10.2346 
 138   0.0000       0.383100        10.4247 
 139   0.0000       0.387893        10.5551 
 140   0.0000       0.389998        10.6124 
 141   0.0000       0.394975        10.7478 
 142   0.0000       0.396608        10.7923 
 143   0.0000       0.397546        10.8178 
 144   0.0000       0.401025        10.9124 
 145   0.0000       0.403212        10.9720 
 146   0.0000       0.411137        11.1876 
 147   0.0000       0.414190        11.2707 
 148   0.0000       0.420235        11.4352 
 149   0.0000       0.427894        11.6436 
 150   0.0000       0.435243        11.8436 
 151   0.0000       0.437598        11.9076 
 152   0.0000       0.442319        12.0361 
 153   0.0000       0.445288        12.1169 
 154   0.0000       0.456599        12.4247 
 155   0.0000       0.465108        12.6562 
 156   0.0000       0.469037        12.7631 
 157   0.0000       0.471318        12.8252 
 158   0.0000       0.474487        12.9115 
 159   0.0000       0.479900        13.0587 
 160   0.0000       0.482834        13.1386 
 161   0.0000       0.493206        13.4208 
 162   0.0000       0.500218        13.6116 
 163   0.0000       0.501802        13.6547 
 164   0.0000       0.508199        13.8288 
 165   0.0000       0.511332        13.9140 
 166   0.0000       0.521299        14.1853 
 167   0.0000       0.523221        14.2376 
 168   0.0000       0.528479        14.3806 
 169   0.0000       0.530117        14.4252 
 170   0.0000       0.534172        14.5356 
 171   0.0000       0.541493        14.7348 
 172   0.0000       0.551619        15.0103 
 173   0.0000       0.554669        15.0933 
 174   0.0000       0.556672        15.1478 
 175   0.0000       0.561735        15.2856 
 176   0.0000       0.571559        15.5529 
 177   0.0000       0.581404        15.8208 
 178   0.0000       0.585815        15.9408 
 179   0.0000       0.593024        16.1370 
 180   0.0000       0.596872        16.2417 
 181   0.0000       0.602710        16.4006 
 182   0.0000       0.606857        16.5134 
 183   0.0000       0.613996        16.7077 
 184   0.0000       0.615562        16.7503 
 185   0.0000       0.619730        16.8637 
 186   0.0000       0.622644        16.9430 
 187   0.0000       0.628869        17.1124 
 188   0.0000       0.635229        17.2855 
 189   0.0000       0.643325        17.5058 
 190   0.0000       0.651345        17.7240 
 191   0.0000       0.654322        17.8050 
 192   0.0000       0.657552        17.8929 
 193   0.0000       0.664508        18.0822 
 194   0.0000       0.674453        18.3528 
 195   0.0000       0.675630        18.3848 
 196   0.0000       0.681137        18.5347 
 197   0.0000       0.681688        18.5497 
 198   0.0000       0.685535        18.6544 
 199   0.0000       0.692340        18.8395 
 200   0.0000       0.697462        18.9789 
 201   0.0000       0.700095        19.0506 
 202   0.0000       0.703624        19.1466 
 203   0.0000       0.713036        19.4027 
 204   0.0000       0.717704        19.5297 
 205   0.0000       0.719930        19.5903 
 206   0.0000       0.721203        19.6249 
 207   0.0000       0.724912        19.7259 
 208   0.0000       0.728978        19.8365 
 209   0.0000       0.730061        19.8660 
 210   0.0000       0.740250        20.1432 
 211   0.0000       0.744919        20.2703 
 212   0.0000       0.753578        20.5059 
 213   0.0000       0.763849        20.7854 
 214   0.0000       0.776520        21.1302 
 215   0.0000       0.785858        21.3843 
 216   0.0000       0.792344        21.5608 
 217   0.0000       0.809479        22.0270 
 218   0.0000       0.816673        22.2228 
 219   0.0000       0.822131        22.3713 
 220   0.0000       0.838032        22.8040 
 221   0.0000       0.847514        23.0620 
 222   0.0000       0.852242        23.1907 
 223   0.0000       0.872690        23.7471 
 224   0.0000       0.882057        24.0020 
 225   0.0000       0.891985        24.2721 
 226   0.0000       0.903016        24.5723 
 227   0.0000       0.906258        24.6605 
 228   0.0000       0.913505        24.8577 
 229   0.0000       0.930211        25.3123 
 230   0.0000       0.936372        25.4800 
 231   0.0000       0.945969        25.7411 
 232   0.0000       0.950811        25.8729 
 233   0.0000       0.961359        26.1599 
 234   0.0000       0.970289        26.4029 
 235   0.0000       0.984063        26.7777 
 236   0.0000       1.004789        27.3417 
 237   0.0000       1.014775        27.6134 
 238   0.0000       1.016473        27.6596 
 239   0.0000       1.028832        27.9959 
 240   0.0000       1.039353        28.2822 
 241   0.0000       1.049862        28.5682 
 242   0.0000       1.058895        28.8140 
 243   0.0000       1.068071        29.0637 
 244   0.0000       1.087856        29.6021 
 245   0.0000       1.094927        29.7945 
 246   0.0000       1.097686        29.8695 
 247   0.0000       1.110374        30.2148 
 248   0.0000       1.113680        30.3048 
 249   0.0000       1.130556        30.7640 
 250   0.0000       1.134429        30.8694 
 251   0.0000       1.149206        31.2715 
 252   0.0000       1.151141        31.3241 
 253   0.0000       1.171074        31.8665 
 254   0.0000       1.182658        32.1818 
 255   0.0000       1.188792        32.3487 
 256   0.0000       1.208103        32.8741 
 257   0.0000       1.211091        32.9555 
 258   0.0000       1.215533        33.0763 
 259   0.0000       1.223023        33.2801 
 260   0.0000       1.232671        33.5427 
 261   0.0000       1.232979        33.5511 
 262   0.0000       1.246535        33.9200 
 263   0.0000       1.254581        34.1389 
 264   0.0000       1.259643        34.2766 
 265   0.0000       1.263896        34.3924 
 266   0.0000       1.280584        34.8464 
 267   0.0000       1.292394        35.1678 
 268   0.0000       1.300200        35.3802 
 269   0.0000       1.310917        35.6719 
 270   0.0000       1.323892        36.0249 
 271   0.0000       1.337890        36.4058 
 272   0.0000       1.343959        36.5710 
 273   0.0000       1.357060        36.9275 
 274   0.0000       1.361437        37.0466 
 275   0.0000       1.371228        37.3130 
 276   0.0000       1.373147        37.3652 
 277   0.0000       1.383053        37.6348 
 278   0.0000       1.393657        37.9233 
 279   0.0000       1.397809        38.0363 
 280   0.0000       1.413475        38.4626 
 281   0.0000       1.421297        38.6755 
 282   0.0000       1.427145        38.8346 
 283   0.0000       1.433400        39.0048 
 284   0.0000       1.441393        39.2223 
 285   0.0000       1.443123        39.2694 
 286   0.0000       1.445654        39.3382 
 287   0.0000       1.450572        39.4721 
 288   0.0000       1.464403        39.8484 
 289   0.0000       1.469698        39.9925 
 290   0.0000       1.480766        40.2937 
 291   0.0000       1.483985        40.3813 
 292   0.0000       1.495723        40.7007 
 293   0.0000       1.511509        41.1303 
 294   0.0000       1.520104        41.3641 
 295   0.0000       1.534489        41.7556 
 296   0.0000       1.559397        42.4333 
 297   0.0000       1.566866        42.6366 
 298   0.0000       1.573528        42.8179 
 299   0.0000       1.582513        43.0624 
 300   0.0000       1.589575        43.2545 
 301   0.0000       1.595076        43.4042 
 302   0.0000       1.611914        43.8624 
 303   0.0000       1.617515        44.0148 
 304   0.0000       1.632124        44.4124 
 305   0.0000       1.637390        44.5556 
 306   0.0000       1.645254        44.7696 
 307   0.0000       1.648553        44.8594 
 308   0.0000       1.665798        45.3287 
 309   0.0000       1.675641        45.5965 
 310   0.0000       1.683037        45.7978 
 311   0.0000       1.694932        46.1214 
 312   0.0000       1.705312        46.4039 
 313   0.0000       1.717328        46.7309 
 314   0.0000       1.724742        46.9326 
 315   0.0000       1.738122        47.2967 
 316   0.0000       1.746486        47.5243 
 317   0.0000       1.771454        48.2037 
 318   0.0000       1.786656        48.6174 
 319   0.0000       1.790293        48.7164 
 320   0.0000       1.796872        48.8954 
 321   0.0000       1.803044        49.0633 
 322   0.0000       1.827886        49.7393 
 323   0.0000       1.836473        49.9730 
 324   0.0000       1.844911        50.2026 
 325   0.0000       1.869761        50.8788 
 326   0.0000       1.880797        51.1791 
 327   0.0000       1.890204        51.4351 
 328   0.0000       1.891658        51.4746 
 329   0.0000       1.911978        52.0276 
 330   0.0000       1.923236        52.3339 
 331   0.0000       1.928690        52.4823 
 332   0.0000       1.938873        52.7594 
 333   0.0000       1.949256        53.0419 
 334   0.0000       1.958677        53.2983 
 335   0.0000       1.976709        53.7890 
 336   0.0000       1.992606        54.2216 
 337   0.0000       1.996003        54.3140 
 338   0.0000       2.035946        55.4009 
 339   0.0000       2.047829        55.7243 
 340   0.0000       2.050164        55.7878 
 341   0.0000       2.068533        56.2876 
 342   0.0000       2.071721        56.3744 
 343   0.0000       2.106821        57.3295 
 344   0.0000       2.128729        57.9257 
 345   0.0000       2.152181        58.5638 
 346   0.0000       2.168831        59.0169 
 347   0.0000       2.182584        59.3911 
 348   0.0000       2.191967        59.6464 
 349   0.0000       2.220737        60.4293 
 350   0.0000       2.250292        61.2336 
 351   0.0000       2.269121        61.7459 
 352   0.0000       2.319248        63.1099 
 353   0.0000       2.343324        63.7651 
 354   0.0000       2.422620        65.9228 
 355   0.0000       2.435256        66.2667 
 356   0.0000       2.468482        67.1708 
 357   0.0000       2.474867        67.3446 
 358   0.0000       2.486306        67.6558 
 359   0.0000       2.512015        68.3554 
 360   0.0000       2.526513        68.7499 
 361   0.0000       2.540624        69.1339 
 362   0.0000       2.573911        70.0397 
 363   0.0000       2.584222        70.3202 
 364   0.0000       2.591156        70.5089 
 365   0.0000       2.614307        71.1389 
 366   0.0000       2.660342        72.3916 
 367   0.0000       2.680200        72.9320 
 368   0.0000       2.710995        73.7699 
 369   0.0000       2.744973        74.6945 
 370   0.0000       2.750866        74.8549 
 371   0.0000       2.760505        75.1172 
 372   0.0000       2.766210        75.2724 
 373   0.0000       2.767693        75.3128 
 374   0.0000       2.774998        75.5115 
 375   0.0000       2.790362        75.9296 
 376   0.0000       2.796459        76.0955 
 377   0.0000       2.807518        76.3965 
 378   0.0000       2.814206        76.5784 
 379   0.0000       2.835967        77.1706 
 380   0.0000       2.844950        77.4150 
 381   0.0000       2.849602        77.5416 
 382   0.0000       2.858484        77.7833 
 383   0.0000       2.877356        78.2968 
 384   0.0000       2.885065        78.5066 
 385   0.0000       2.887407        78.5703 
 386   0.0000       2.920423        79.4687 
 387   0.0000       2.930097        79.7320 
 388   0.0000       2.939248        79.9810 
 389   0.0000       2.949980        80.2730 
 390   0.0000       2.974753        80.9471 
 391   0.0000       2.980265        81.0971 
 392   0.0000       2.994653        81.4887 
 393   0.0000       3.008343        81.8612 
 394   0.0000       3.010958        81.9323 
 395   0.0000       3.026952        82.3675 
 396   0.0000       3.039334        82.7045 
 397   0.0000       3.051476        83.0349 
 398   0.0000       3.059165        83.2441 
 399   0.0000       3.067316        83.4659 
 400   0.0000       3.070193        83.5442 
 401   0.0000       3.081478        83.8513 
 402   0.0000       3.089494        84.0694 
 403   0.0000       3.097538        84.2883 
 404   0.0000       3.116765        84.8115 
 405   0.0000       3.122343        84.9633 
 406   0.0000       3.143101        85.5281 
 407   0.0000       3.148618        85.6783 
 408   0.0000       3.161233        86.0215 
 409   0.0000       3.169293        86.2409 
 410   0.0000       3.174714        86.3884 
 411   0.0000       3.181110        86.5624 
 412   0.0000       3.199763        87.0700 
 413   0.0000       3.213468        87.4429 
 414   0.0000       3.232142        87.9511 
 415   0.0000       3.235385        88.0393 
 416   0.0000       3.244253        88.2806 
 417   0.0000       3.263880        88.8147 
 418   0.0000       3.272050        89.0370 
 419   0.0000       3.272471        89.0485 
 420   0.0000       3.284670        89.3804 
 421   0.0000       3.292919        89.6049 
 422   0.0000       3.296479        89.7018 
 423   0.0000       3.318672        90.3056 
 424   0.0000       3.321343        90.3783 
 425   0.0000       3.340113        90.8891 
 426   0.0000       3.345108        91.0250 
 427   0.0000       3.347557        91.0917 
 428   0.0000       3.364737        91.5592 
 429   0.0000       3.373557        91.7991 
 430   0.0000       3.385578        92.1263 
 431   0.0000       3.390241        92.2532 
 432   0.0000       3.395922        92.4077 
 433   0.0000       3.405508        92.6686 
 434   0.0000       3.407832        92.7318 
 435   0.0000       3.414944        92.9253 
 436   0.0000       3.423774        93.1656 
 437   0.0000       3.437533        93.5400 
 438   0.0000       3.444109        93.7190 
 439   0.0000       3.459521        94.1384 
 440   0.0000       3.468571        94.3846 
 441   0.0000       3.484660        94.8224 
 442   0.0000       3.492117        95.0253 
 443   0.0000       3.504486        95.3619 
 444   0.0000       3.506481        95.4162 
 445   0.0000       3.520320        95.7928 
 446   0.0000       3.537543        96.2614 
 447   0.0000       3.545632        96.4815 
 448   0.0000       3.548559        96.5612 
 449   0.0000       3.561148        96.9038 
 450   0.0000       3.568236        97.0966 
 451   0.0000       3.574387        97.2640 
 452   0.0000       3.595006        97.8251 
 453   0.0000       3.600136        97.9647 
 454   0.0000       3.614744        98.3622 
 455   0.0000       3.619835        98.5007 
 456   0.0000       3.638016        98.9954 
 457   0.0000       3.639830        99.0448 
 458   0.0000       3.644206        99.1639 
 459   0.0000       3.656210        99.4905 
 460   0.0000       3.665208        99.7354 
 461   0.0000       3.677717       100.0758 
 462   0.0000       3.690231       100.4163 
 463   0.0000       3.694886       100.5429 
 464   0.0000       3.705064       100.8199 
 465   0.0000       3.717886       101.1688 
 466   0.0000       3.724111       101.3382 
 467   0.0000       3.743559       101.8674 
 468   0.0000       3.757427       102.2448 
 469   0.0000       3.761170       102.3466 
 470   0.0000       3.784560       102.9831 
 471   0.0000       3.803692       103.5037 
 472   0.0000       3.811118       103.7058 
 473   0.0000       3.826887       104.1349 
 474   0.0000       3.842186       104.5512 
 475   0.0000       3.846467       104.6677 
 476   0.0000       3.859871       105.0324 
 477   0.0000       3.862833       105.1130 
 478   0.0000       3.879067       105.5548 
 479   0.0000       3.886057       105.7450 
 480   0.0000       3.893697       105.9529 
 481   0.0000       3.898365       106.0799 
 482   0.0000       3.909852       106.3925 
 483   0.0000       3.920910       106.6934 
 484   0.0000       3.932160       106.9995 
 485   0.0000       3.962652       107.8292 
 486   0.0000       3.975134       108.1689 
 487   0.0000       3.985582       108.4532 
 488   0.0000       3.993767       108.6759 
 489   0.0000       4.000388       108.8561 
 490   0.0000       4.001334       108.8818 
 491   0.0000       4.021283       109.4247 
 492   0.0000       4.028990       109.6344 
 493   0.0000       4.032960       109.7424 
 494   0.0000       4.063776       110.5810 
 495   0.0000       4.068307       110.7043 
 496   0.0000       4.082354       111.0865 
 497   0.0000       4.085511       111.1724 
 498   0.0000       4.103121       111.6516 
 499   0.0000       4.106188       111.7350 
 500   0.0000       4.112265       111.9004 
 501   0.0000       4.121045       112.1393 
 502   0.0000       4.128652       112.3463 
 503   0.0000       4.141388       112.6929 
 504   0.0000       4.150625       112.9442 
 505   0.0000       4.177654       113.6797 
 506   0.0000       4.189484       114.0017 
 507   0.0000       4.193741       114.1175 
 508   0.0000       4.199451       114.2729 
 509   0.0000       4.201247       114.3217 
 510   0.0000       4.215169       114.7006 
 511   0.0000       4.223406       114.9247 
 512   0.0000       4.228128       115.0532 
 513   0.0000       4.233098       115.1884 
 514   0.0000       4.242191       115.4359 
 515   0.0000       4.248253       115.6009 
 516   0.0000       4.258786       115.8874 
 517   0.0000       4.260354       115.9301 
 518   0.0000       4.268007       116.1384 
 519   0.0000       4.277460       116.3956 
 520   0.0000       4.285075       116.6028 
 521   0.0000       4.293781       116.8397 
 522   0.0000       4.312919       117.3605 
 523   0.0000       4.320053       117.5546 
 524   0.0000       4.336942       118.0142 
 525   0.0000       4.356767       118.5537 
 526   0.0000       4.367929       118.8574 
 527   0.0000       4.375358       119.0595 
 528   0.0000       4.386774       119.3702 
 529   0.0000       4.403872       119.8354 
 530   0.0000       4.412825       120.0791 
 531   0.0000       4.425162       120.4148 
 532   0.0000       4.439953       120.8173 
 533   0.0000       4.469951       121.6336 
 534   0.0000       4.484231       122.0221 
 535   0.0000       4.492426       122.2451 
 536   0.0000       4.504576       122.5757 
 537   0.0000       4.526298       123.1668 
 538   0.0000       4.528138       123.2169 
 539   0.0000       4.539276       123.5200 
 540   0.0000       4.555556       123.9630 
 541   0.0000       4.580947       124.6539 
 542   0.0000       4.612965       125.5251 
 543   0.0000       4.624311       125.8339 
 544   0.0000       4.635378       126.1350 
 545   0.0000       4.668728       127.0425 
 546   0.0000       4.690881       127.6454 
 547   0.0000       4.704126       128.0058 
 548   0.0000       4.737753       128.9208 
 549   0.0000       4.762382       129.5910 
 550   0.0000       4.781675       130.1160 
 551   0.0000       4.788112       130.2911 
 552   0.0000       4.807414       130.8164 
 553   0.0000       4.814065       130.9974 
 554   0.0000       4.818072       131.1064 
 555   0.0000       4.831375       131.4684 
 556   0.0000       4.838158       131.6530 
 557   0.0000       4.927593       134.0866 
 558   0.0000       4.942884       134.5027 
 559   0.0000       4.964594       135.0935 
 560   0.0000       4.981305       135.5482 
 561   0.0000       5.011763       136.3770 
 562   0.0000       5.032995       136.9548 
 563   0.0000       5.067581       137.8959 
 564   0.0000       5.098750       138.7441 
 565   0.0000       5.108213       139.0015 
 566   0.0000       5.157163       140.3335 
 567   0.0000       5.181502       140.9958 
 568   0.0000       5.206866       141.6860 
 569   0.0000       5.224739       142.1724 
 570   0.0000       5.236875       142.5026 
 571   0.0000       5.240800       142.6094 
 572   0.0000       5.258159       143.0818 
 573   0.0000       5.279464       143.6615 
 574   0.0000       5.281766       143.7242 
 575   0.0000       5.302932       144.3001 
 576   0.0000       5.309571       144.4808 
 577   0.0000       5.320614       144.7813 
 578   0.0000       5.351997       145.6352 
 579   0.0000       5.356438       145.7561 
 580   0.0000       5.361241       145.8868 
 581   0.0000       5.380960       146.4234 
 582   0.0000       5.404289       147.0582 
 583   0.0000       5.429086       147.7329 
 584   0.0000       5.440760       148.0506 
 585   0.0000       5.476534       149.0241 
 586   0.0000       5.484719       149.2468 
 587   0.0000       5.548816       150.9910 
 588   0.0000       5.596200       152.2803 
 589   0.0000       5.647478       153.6757 
 590   0.0000       5.691778       154.8812 
 591   0.0000       5.698692       155.0693 
 592   0.0000       5.738006       156.1391 
 593   0.0000       5.744542       156.3169 
 594   0.0000       5.796798       157.7389 
 595   0.0000       5.892481       160.3426 
 596   0.0000       5.919723       161.0839 
 597   0.0000       5.929857       161.3596 
 598   0.0000       5.949311       161.8890 
 599   0.0000       5.961751       162.2275 
 600   0.0000       5.969744       162.4450 
 601   0.0000       6.072563       165.2428 
 602   0.0000       6.518046       177.3651 
 603   0.0000       6.637544       180.6168 
 604   0.0000       6.678916       181.7425 
 605   0.0000       7.986981       217.3368 
 606   0.0000       8.012125       218.0210 
 607   0.0000       8.085113       220.0071 
 608   0.0000      16.440081       447.3573 
 609   0.0000      23.184430       630.8804 
 610   0.0000      23.364690       635.7855 
 611   0.0000      23.396005       636.6377 
 612   0.0000      23.749085       646.2455 
 613   0.0000      23.753342       646.3613 
 614   0.0000      23.793915       647.4653 
 615   0.0000      23.833073       648.5309 
 616   0.0000      40.135394      1092.1396 
 617   0.0000      40.933097      1113.8462 
 618   0.0000      43.120749      1173.3752 
 619   0.0000      59.732612      1625.4070 
 620   0.0000     363.680607      9896.2524 

                    ********************************
                    * MULLIKEN POPULATION ANALYSIS *
                    ********************************

-----------------------
MULLIKEN ATOMIC CHARGES
-----------------------
   0 Ir:    0.535653
   1 C :   -0.595516
   2 C :   -0.041785
   3 C :    0.067977
   4 C :    0.310191
   5 C :   -0.212377
   6 C :    0.163995
   7 H :    0.134631
   8 H :    0.190540
   9 H :    0.130838
  10 H :    0.030115
  11 H :   -0.029390
  12 H :    0.032080
  13 H :    0.009457
  14 H :    0.031933
  15 C :   -0.479667
  16 H :    0.045849
  17 H :    0.120909
  18 H :    0.142858
  19 H :    0.175842
  20 P :    0.038800
  21 H :    0.061320
  22 H :    0.069066
  23 H :    0.066680
Sum of atomic charges:    1.0000000

--------------------------------
MULLIKEN REDUCED ORBITAL CHARGES
--------------------------------
  0 Irs       :     2.347897  s :     2.347897
      pz      :     2.251879  p :     6.708427
      px      :     2.194958
      py      :     2.261589
      dz2     :     1.641568  d :     7.327764
      dxz     :     1.288263
      dyz     :     1.530673
      dx2y2   :     1.568642
      dxy     :     1.298617
      f0      :     0.006642  f :     0.077838
      f+1     :     0.012479
      f-1     :     0.006642
      f+2     :     0.012270
      f-2     :     0.013493
      f+3     :     0.012756
      f-3     :     0.013557
      g0      :     0.000202  g :     0.002421
      g+1     :     0.000212
      g-1     :     0.000171
      g+2     :     0.000252
      g-2     :     0.000327
      g+3     :     0.000302
      g-3     :     0.000295
      g+4     :     0.000297
      g-4     :     0.000364
  1 C s       :     3.077553  s :     3.077553
      pz      :     1.132312  p :     3.440597
      px      :     1.199897
      py      :     1.108388
      dz2     :     0.003778  d :     0.074537
      dxz     :     0.015962
      dyz     :     0.011878
      dx2y2   :     0.046350
      dxy     :    -0.003431
      f0      :     0.000358  f :     0.002829
      f+1     :     0.000495
      f-1     :     0.000360
      f+2     :     0.000557
      f-2     :     0.000407
      f+3     :     0.000272
      f-3     :     0.000380
  2 C s       :     3.175472  s :     3.175472
      pz      :     0.854966  p :     2.785843
      px      :     0.979833
      py      :     0.951044
      dz2     :     0.029649  d :     0.072113
      dxz     :     0.017573
      dyz     :    -0.008300
      dx2y2   :     0.019683
      dxy     :     0.013509
      f0      :     0.001421  f :     0.008356
      f+1     :     0.000817
      f-1     :     0.001300
      f+2     :     0.001505
      f-2     :     0.001291
      f+3     :     0.000800
      f-3     :     0.001221
  3 C s       :     3.162589  s :     3.162589
      pz      :     0.926301  p :     2.740089
      px      :     0.959795
      py      :     0.853992
      dz2     :     0.005258  d :     0.020988
      dxz     :    -0.011887
      dyz     :     0.011874
      dx2y2   :     0.007774
      dxy     :     0.007969
      f0      :     0.001203  f :     0.008357
      f+1     :     0.001066
      f-1     :     0.001730
      f+2     :     0.001297
      f-2     :     0.001389
      f+3     :     0.000946
      f-3     :     0.000725
  4 C s       :     2.954438  s :     2.954438
      pz      :     0.853396  p :     2.718066
      px      :     0.981899
      py      :     0.882770
      dz2     :     0.008063  d :     0.008935
      dxz     :     0.005285
      dyz     :     0.014692
      dx2y2   :    -0.011347
      dxy     :    -0.007758
      f0      :     0.001023  f :     0.008370
      f+1     :     0.001089
      f-1     :     0.001967
      f+2     :     0.001056
      f-2     :     0.000999
      f+3     :     0.001357
      f-3     :     0.000879
  5 C s       :     3.264048  s :     3.264048
      pz      :     0.904721  p :     2.850410
      px      :     0.977530
      py      :     0.968160
      dz2     :    -0.007421  d :     0.089262
      dxz     :     0.021023
      dyz     :     0.037070
      dx2y2   :     0.025580
      dxy     :     0.013010
      f0      :     0.001664  f :     0.008656
      f+1     :     0.000879
      f-1     :     0.001614
      f+2     :     0.001336
      f-2     :     0.000750
      f+3     :     0.001448
      f-3     :     0.000966
  6 C s       :     3.053493  s :     3.053493
      pz      :     0.873473  p :     2.767102
      px      :     0.970452
      py      :     0.923178
      dz2     :    -0.015927  d :     0.007068
      dxz     :    -0.013111
      dyz     :    -0.011559
      dx2y2   :     0.024172
      dxy     :     0.023494
      f0      :     0.001724  f :     0.008341
      f+1     :     0.001020
      f-1     :     0.001222
      f+2     :     0.001514
      f-2     :     0.000899
      f+3     :     0.000842
      f-3     :     0.001120
  7 H s       :     0.805165  s :     0.805165
      pz      :     0.026806  p :     0.058376
      px      :     0.015435
      py      :     0.016135
      dz2     :     0.000498  d :     0.001828
      dxz     :     0.000330
      dyz     :     0.000587
      dx2y2   :     0.000229
      dxy     :     0.000184
  8 H s       :     0.747554  s :     0.747554
      pz      :     0.014404  p :     0.060167
      px      :     0.031743
      py      :     0.014020
      dz2     :     0.000151  d :     0.001738
      dxz     :     0.000551
      dyz     :     0.000112
      dx2y2   :     0.000317
      dxy     :     0.000606
  9 H s       :     0.805451  s :     0.805451
      pz      :     0.011643  p :     0.061910
      px      :     0.017368
      py      :     0.032899
      dz2     :     0.000302  d :     0.001801
      dxz     :     0.000151
      dyz     :     0.000543
      dx2y2   :     0.000188
      dxy     :     0.000617
 10 H s       :     0.922220  s :     0.922220
      pz      :     0.011878  p :     0.045752
      px      :     0.019417
      py      :     0.014457
      dz2     :     0.000674  d :     0.001913
      dxz     :     0.000288
      dyz     :     0.000212
      dx2y2   :     0.000325
      dxy     :     0.000413
 11 H s       :     0.990350  s :     0.990350
      pz      :     0.011203  p :     0.037139
      px      :     0.016148
      py      :     0.009789
      dz2     :     0.000583  d :     0.001901
      dxz     :     0.000422
      dyz     :     0.000490
      dx2y2   :     0.000227
      dxy     :     0.000178
 12 H s       :     0.925386  s :     0.925386
      pz      :     0.004290  p :     0.040644
      px      :     0.017354
      py      :     0.019000
      dz2     :     0.000095  d :     0.001890
      dxz     :     0.000031
      dyz     :     0.000867
      dx2y2   :     0.000243
      dxy     :     0.000654
 13 H s       :     0.942094  s :     0.942094
      pz      :     0.022053  p :     0.046554
      px      :     0.017831
      py      :     0.006671
      dz2     :     0.000423  d :     0.001895
      dxz     :     0.000583
      dyz     :     0.000727
      dx2y2   :     0.000087
      dxy     :     0.000076
 14 H s       :     0.930723  s :     0.930723
      pz      :     0.004972  p :     0.035439
      px      :     0.013478
      py      :     0.016990
      dz2     :     0.000464  d :     0.001904
      dxz     :     0.000216
      dyz     :     0.000392
      dx2y2   :     0.000364
      dxy     :     0.000468
 15 C s       :     3.024237  s :     3.024237
      pz      :     1.188161  p :     3.383688
      px      :     1.200188
      py      :     0.995339
      dz2     :     0.023896  d :     0.068681
      dxz     :     0.018862
      dyz     :     0.016368
      dx2y2   :     0.010697
      dxy     :    -0.001143
      f0      :     0.000566  f :     0.003061
      f+1     :     0.000099
      f-1     :     0.000447
      f+2     :     0.000475
      f-2     :     0.000489
      f+3     :     0.000550
      f-3     :     0.000436
 16 H s       :     0.916916  s :     0.916916
      pz      :    -0.025512  p :     0.032487
      px      :    -0.005068
      py      :     0.063067
      dz2     :     0.001012  d :     0.004748
      dxz     :     0.001077
      dyz     :     0.001492
      dx2y2   :     0.000550
      dxy     :     0.000616
 17 H s       :     0.814665  s :     0.814665
      pz      :     0.017916  p :     0.062631
      px      :     0.015229
      py      :     0.029486
      dz2     :     0.000565  d :     0.001795
      dxz     :     0.000278
      dyz     :     0.000191
      dx2y2   :     0.000517
      dxy     :     0.000245
 18 H s       :     0.808502  s :     0.808502
      pz      :     0.026564  p :     0.046966
      px      :     0.011203
      py      :     0.009199
      dz2     :     0.000510  d :     0.001674
      dxz     :     0.000618
      dyz     :     0.000328
      dx2y2   :     0.000109
      dxy     :     0.000108
 19 H s       :     0.755463  s :     0.755463
      pz      :     0.011683  p :     0.066952
      px      :     0.033432
      py      :     0.021837
      dz2     :     0.000302  d :     0.001743
      dxz     :     0.000487
      dyz     :     0.000093
      dx2y2   :     0.000221
      dxy     :     0.000640
 20 P s       :     5.553518  s :     5.553518
      pz      :     2.977891  p :     9.045997
      px      :     3.129224
      py      :     2.938882
      dz2     :     0.074764  d :     0.337832
      dxz     :     0.067263
      dyz     :     0.058368
      dx2y2   :     0.077844
      dxy     :     0.059592
      f0      :     0.002793  f :     0.023853
      f+1     :     0.003946
      f-1     :     0.003258
      f+2     :     0.003035
      f-2     :     0.003235
      f+3     :     0.002888
      f-3     :     0.004696
 21 H s       :     0.924707  s :     0.924707
      pz      :     0.007922  p :     0.012774
      px      :     0.000941
      py      :     0.003911
      dz2     :     0.000378  d :     0.001199
      dxz     :     0.000329
      dyz     :     0.000309
      dx2y2   :     0.000126
      dxy     :     0.000056
 22 H s       :     0.917990  s :     0.917990
      pz      :     0.001920  p :     0.011747
      px      :    -0.001219
      py      :     0.011046
      dz2     :     0.000099  d :     0.001197
      dxz     :     0.000039
      dyz     :     0.000386
      dx2y2   :     0.000329
      dxy     :     0.000344
 23 H s       :     0.922011  s :     0.922011
      pz      :     0.000177  p :     0.010074
      px      :     0.008868
      py      :     0.001029
      dz2     :     0.000247  d :     0.001235
      dxz     :     0.000319
      dyz     :     0.000129
      dx2y2   :     0.000301
      dxy     :     0.000239


                     *******************************
                     * LOEWDIN POPULATION ANALYSIS *
                     *******************************

----------------------
LOEWDIN ATOMIC CHARGES
----------------------
   0 Ir:    1.032139
   1 C :   -0.002637
   2 C :   -0.053269
   3 C :   -0.065407
   4 C :   -0.082319
   5 C :   -0.062707
   6 C :   -0.050760
   7 H :   -0.074428
   8 H :   -0.089088
   9 H :   -0.080512
  10 H :    0.029210
  11 H :    0.024374
  12 H :    0.027025
  13 H :    0.020062
  14 H :    0.020141
  15 C :    0.086364
  16 H :   -0.097392
  17 H :   -0.049173
  18 H :   -0.067198
  19 H :   -0.060738
  20 P :    0.923841
  21 H :   -0.115978
  22 H :   -0.108180
  23 H :   -0.103371

-------------------------------
LOEWDIN REDUCED ORBITAL CHARGES
-------------------------------
  0 Irs       :     1.996448  s :     1.996448
      pz      :     2.129267  p :     6.418273
      px      :     2.154803
      py      :     2.134202
      dz2     :     1.592623  d :     7.381537
      dxz     :     1.353648
      dyz     :     1.518572
      dx2y2   :     1.589571
      dxy     :     1.327123
      f0      :     0.014846  f :     0.166434
      f+1     :     0.025196
      f-1     :     0.014512
      f+2     :     0.028777
      f-2     :     0.027139
      f+3     :     0.027211
      f-3     :     0.028752
      g0      :     0.000469  g :     0.005169
      g+1     :     0.000429
      g-1     :     0.000327
      g+2     :     0.000612
      g-2     :     0.000604
      g+3     :     0.000679
      g-3     :     0.000652
      g+4     :     0.000637
      g-4     :     0.000761
  1 C s       :     2.694733  s :     2.694733
      pz      :     0.931938  p :     2.791778
      px      :     0.948795
      py      :     0.911045
      dz2     :     0.119603  d :     0.494074
      dxz     :     0.103182
      dyz     :     0.083243
      dx2y2   :     0.137261
      dxy     :     0.050785
      f0      :     0.003246  f :     0.022052
      f+1     :     0.004874
      f-1     :     0.002057
      f+2     :     0.003620
      f-2     :     0.001920
      f+3     :     0.002467
      f-3     :     0.003868
  2 C s       :     2.641196  s :     2.641196
      pz      :     0.901419  p :     2.579462
      px      :     0.736846
      py      :     0.941197
      dz2     :     0.215723  d :     0.782101
      dxz     :     0.157372
      dyz     :     0.175495
      dx2y2   :     0.142707
      dxy     :     0.090804
      f0      :     0.009034  f :     0.050511
      f+1     :     0.004517
      f-1     :     0.009856
      f+2     :     0.009645
      f-2     :     0.009160
      f+3     :     0.003091
      f-3     :     0.005209
  3 C s       :     2.642961  s :     2.642961
      pz      :     0.918688  p :     2.593608
      px      :     0.762770
      py      :     0.912149
      dz2     :     0.190132  d :     0.778514
      dxz     :     0.104762
      dyz     :     0.187078
      dx2y2   :     0.147705
      dxy     :     0.148838
      f0      :     0.006486  f :     0.050324
      f+1     :     0.004801
      f-1     :     0.012202
      f+2     :     0.008884
      f-2     :     0.009357
      f+3     :     0.004683
      f-3     :     0.003911
  4 C s       :     2.640524  s :     2.640524
      pz      :     0.900065  p :     2.603820
      px      :     0.780167
      py      :     0.923588
      dz2     :     0.169091  d :     0.787851
      dxz     :     0.138713
      dyz     :     0.232144
      dx2y2   :     0.125391
      dxy     :     0.122512
      f0      :     0.007373  f :     0.050124
      f+1     :     0.006726
      f-1     :     0.013238
      f+2     :     0.005486
      f-2     :     0.005730
      f+3     :     0.006581
      f-3     :     0.004990
  5 C s       :     2.639747  s :     2.639747
      pz      :     0.916474  p :     2.569794
      px      :     0.727725
      py      :     0.925595
      dz2     :     0.160294  d :     0.801041
      dxz     :     0.124320
      dyz     :     0.243886
      dx2y2   :     0.139583
      dxy     :     0.132958
      f0      :     0.010780  f :     0.052125
      f+1     :     0.006244
      f-1     :     0.010945
      f+2     :     0.006540
      f-2     :     0.003988
      f+3     :     0.007329
      f-3     :     0.006299
  6 C s       :     2.639330  s :     2.639330
      pz      :     0.923597  p :     2.596336
      px      :     0.755385
      py      :     0.917353
      dz2     :     0.164737  d :     0.765135
      dxz     :     0.107869
      dyz     :     0.208327
      dx2y2   :     0.147309
      dxy     :     0.136894
      f0      :     0.010871  f :     0.049958
      f+1     :     0.005250
      f-1     :     0.008746
      f+2     :     0.008458
      f-2     :     0.005407
      f+3     :     0.004693
      f-3     :     0.006534
  7 H s       :     0.721529  s :     0.721529
      pz      :     0.128598  p :     0.322165
      px      :     0.104456
      py      :     0.089111
      dz2     :     0.009731  d :     0.030734
      dxz     :     0.008117
      dyz     :     0.007332
      dx2y2   :     0.002937
      dxy     :     0.002618
  8 H s       :     0.721315  s :     0.721315
      pz      :     0.102838  p :     0.337271
      px      :     0.141849
      py      :     0.092584
      dz2     :     0.003146  d :     0.030503
      dxz     :     0.009464
      dyz     :     0.001362
      dx2y2   :     0.008309
      dxy     :     0.008222
  9 H s       :     0.722613  s :     0.722613
      pz      :     0.101784  p :     0.327294
      px      :     0.088129
      py      :     0.137381
      dz2     :     0.004662  d :     0.030605
      dxz     :     0.001780
      dyz     :     0.008543
      dx2y2   :     0.007227
      dxy     :     0.008392
 10 H s       :     0.690159  s :     0.690159
      pz      :     0.088451  p :     0.251484
      px      :     0.067062
      py      :     0.095972
      dz2     :     0.006652  d :     0.029147
      dxz     :     0.003416
      dyz     :     0.009159
      dx2y2   :     0.005179
      dxy     :     0.004741
 11 H s       :     0.696501  s :     0.696501
      pz      :     0.108223  p :     0.249811
      px      :     0.074924
      py      :     0.066664
      dz2     :     0.009568  d :     0.029315
      dxz     :     0.007257
      dyz     :     0.007817
      dx2y2   :     0.002452
      dxy     :     0.002221
 12 H s       :     0.694280  s :     0.694280
      pz      :     0.059956  p :     0.249613
      px      :     0.066647
      py      :     0.123011
      dz2     :     0.003185  d :     0.029082
      dxz     :     0.000239
      dyz     :     0.008646
      dx2y2   :     0.008977
      dxy     :     0.008034
 13 H s       :     0.698098  s :     0.698098
      pz      :     0.117445  p :     0.252717
      px      :     0.073475
      py      :     0.061797
      dz2     :     0.010770  d :     0.029123
      dxz     :     0.008238
      dyz     :     0.008387
      dx2y2   :     0.000868
      dxy     :     0.000861
 14 H s       :     0.697968  s :     0.697968
      pz      :     0.072439  p :     0.252474
      px      :     0.073395
      py      :     0.106640
      dz2     :     0.004765  d :     0.029418
      dxz     :     0.002578
      dyz     :     0.008530
      dx2y2   :     0.006737
      dxy     :     0.006808
 15 C s       :     2.674093  s :     2.674093
      pz      :     0.968278  p :     2.735634
      px      :     0.949482
      py      :     0.817874
      dz2     :     0.059056  d :     0.481683
      dxz     :     0.067320
      dyz     :     0.155735
      dx2y2   :     0.113318
      dxy     :     0.086254
      f0      :     0.004078  f :     0.022226
      f+1     :     0.000802
      f-1     :     0.003404
      f+2     :     0.004293
      f-2     :     0.004693
      f+3     :     0.003111
      f-3     :     0.001844
 16 H s       :     0.604394  s :     0.604394
      pz      :     0.121631  p :     0.453120
      px      :     0.114962
      py      :     0.216527
      dz2     :     0.008305  d :     0.039878
      dxz     :     0.008501
      dyz     :     0.013997
      dx2y2   :     0.004564
      dxy     :     0.004512
 17 H s       :     0.710707  s :     0.710707
      pz      :     0.103456  p :     0.308316
      px      :     0.101380
      py      :     0.103480
      dz2     :     0.006963  d :     0.030149
      dxz     :     0.005191
      dyz     :     0.005820
      dx2y2   :     0.006231
      dxy     :     0.005945
 18 H s       :     0.709838  s :     0.709838
      pz      :     0.133858  p :     0.326581
      px      :     0.086708
      py      :     0.106015
      dz2     :     0.009986  d :     0.030779
      dxz     :     0.008912
      dyz     :     0.008831
      dx2y2   :     0.001578
      dxy     :     0.001473
 19 H s       :     0.709958  s :     0.709958
      pz      :     0.095526  p :     0.320678
      px      :     0.137888
      py      :     0.087264
      dz2     :     0.004720  d :     0.030102
      dxz     :     0.009283
      dyz     :     0.001076
      dx2y2   :     0.007315
      dxy     :     0.007708
 20 P s       :     4.719904  s :     4.719904
      pz      :     2.831849  p :     8.559244
      px      :     2.909855
      py      :     2.817539
      dz2     :     0.166372  d :     0.735236
      dxz     :     0.137731
      dyz     :     0.134972
      dx2y2   :     0.173562
      dxy     :     0.122598
      f0      :     0.007339  f :     0.061775
      f+1     :     0.009959
      f-1     :     0.008261
      f+2     :     0.007946
      f-2     :     0.008493
      f+3     :     0.007751
      f-3     :     0.012026
 21 H s       :     0.842073  s :     0.842073
      pz      :     0.126550  p :     0.261969
      px      :     0.062305
      py      :     0.073114
      dz2     :     0.004257  d :     0.011935
      dxz     :     0.002791
      dyz     :     0.003541
      dx2y2   :     0.000793
      dxy     :     0.000553
 22 H s       :     0.832285  s :     0.832285
      pz      :     0.059353  p :     0.263855
      px      :     0.063548
      py      :     0.140954
      dz2     :     0.001382  d :     0.012040
      dxz     :     0.000330
      dyz     :     0.003164
      dx2y2   :     0.003835
      dxy     :     0.003329
 23 H s       :     0.821052  s :     0.821052
      pz      :     0.083765  p :     0.270119
      px      :     0.121032
      py      :     0.065321
      dz2     :     0.001918  d :     0.012200
      dxz     :     0.003652
      dyz     :     0.000997
      dx2y2   :     0.003404
      dxy     :     0.002229


                      *****************************
                      * MAYER POPULATION ANALYSIS *
                      *****************************

  NA   - Mulliken gross atomic population
  ZA   - Total nuclear charge
  QA   - Mulliken gross atomic charge
  VA   - Mayer's total valence
  BVA  - Mayer's bonded valence
  FA   - Mayer's free valence

  ATOM       NA         ZA         QA         VA         BVA        FA
  0 Ir    16.4643    17.0000     0.5357     4.8347     4.8347     0.0000
  1 C      6.5955     6.0000    -0.5955     3.8860     3.8860     0.0000
  2 C      6.0418     6.0000    -0.0418     3.8146     3.8146     0.0000
  3 C      5.9320     6.0000     0.0680     3.4420     3.4420     0.0000
  4 C      5.6898     6.0000     0.3102     3.1874     3.1874    -0.0000
  5 C      6.2124     6.0000    -0.2124     3.9241     3.9241     0.0000
  6 C      5.8360     6.0000     0.1640     3.3761     3.3761     0.0000
  7 H      0.8654     1.0000     0.1346     1.1389     1.1389     0.0000
  8 H      0.8095     1.0000     0.1905     1.1046     1.1046     0.0000
  9 H      0.8692     1.0000     0.1308     1.1547     1.1547    -0.0000
 10 H      0.9699     1.0000     0.0301     1.0423     1.0423     0.0000
 11 H      1.0294     1.0000    -0.0294     1.0460     1.0460     0.0000
 12 H      0.9679     1.0000     0.0321     1.0358     1.0358     0.0000
 13 H      0.9905     1.0000     0.0095     1.0614     1.0614     0.0000
 14 H      0.9681     1.0000     0.0319     1.0242     1.0242    -0.0000
 15 C      6.4797     6.0000    -0.4797     3.8889     3.8889     0.0000
 16 H      0.9542     1.0000     0.0458     1.0081     1.0081     0.0000
 17 H      0.8791     1.0000     0.1209     1.1519     1.1519    -0.0000
 18 H      0.8571     1.0000     0.1429     1.0811     1.0811     0.0000
 19 H      0.8242     1.0000     0.1758     1.1081     1.1081     0.0000
 20 P     14.9612    15.0000     0.0388     3.9664     3.9664    -0.0000
 21 H      0.9387     1.0000     0.0613     0.9632     0.9632     0.0000
 22 H      0.9309     1.0000     0.0691     0.9600     0.9600    -0.0000
 23 H      0.9333     1.0000     0.0667     0.9706     0.9706    -0.0000

  Mayer bond orders larger than 0.100000
B(  0-Ir,  1-C ) :   0.6094 B(  0-Ir,  2-C ) :   0.4300 B(  0-Ir,  3-C ) :   0.4230 
B(  0-Ir,  4-C ) :   0.4567 B(  0-Ir,  5-C ) :   0.4788 B(  0-Ir,  6-C ) :   0.4207 
B(  0-Ir, 15-C ) :   0.4381 B(  0-Ir, 16-H ) :   0.5608 B(  0-Ir, 20-P ) :   0.8653 
B(  1-C ,  5-C ) :   0.1230 B(  1-C ,  7-H ) :   0.9953 B(  1-C ,  8-H ) :   0.9490 
B(  1-C ,  9-H ) :   1.0111 B(  2-C ,  3-C ) :   1.3052 B(  2-C ,  4-C ) :  -0.1955 
B(  2-C ,  6-C ) :   1.1040 B(  2-C , 12-H ) :   0.9799 B(  2-C , 15-C ) :   0.1264 
B(  3-C ,  4-C ) :   1.0644 B(  3-C ,  5-C ) :  -0.1165 B(  3-C ,  6-C ) :  -0.1785 
B(  3-C , 13-H ) :   1.0058 B(  4-C ,  5-C ) :   1.1273 B(  4-C ,  6-C ) :  -0.2134 
B(  4-C , 14-H ) :   0.9473 B(  5-C ,  6-C ) :   1.2645 B(  5-C , 10-H ) :   0.9774 
B(  6-C , 11-H ) :   0.9668 B( 15-C , 16-H ) :   0.3140 B( 15-C , 17-H ) :   1.0041 
B( 15-C , 18-H ) :   0.9731 B( 15-C , 19-H ) :   0.9572 B( 20-P , 21-H ) :   0.9661 
B( 20-P , 22-H ) :   0.9638 B( 20-P , 23-H ) :   0.9797 

-------
TIMINGS
-------

Total SCF time: 0 days 0 hours 5 min 19 sec 

Total time                  ....     319.121 sec
Sum of individual times     ....     318.274 sec  ( 99.7%)

Fock matrix formation       ....     313.481 sec  ( 98.2%)
  XC integration            ....       4.208 sec  (  1.3% of F)
    Basis function eval.    ....       0.727 sec  ( 17.3% of XC)
    Density eval.           ....       1.267 sec  ( 30.1% of XC)
    XC-Functional eval.     ....       0.092 sec  (  2.2% of XC)
    XC-Potential eval.      ....       1.505 sec  ( 35.8% of XC)
Diagonalization             ....       1.278 sec  (  0.4%)
Density matrix formation    ....       0.050 sec  (  0.0%)
Population analysis         ....       0.071 sec  (  0.0%)
Initial guess               ....       2.039 sec  (  0.6%)
Orbital Transformation      ....       0.000 sec  (  0.0%)
Orbital Orthonormalization  ....       0.000 sec  (  0.0%)
DIIS solution               ....       0.730 sec  (  0.2%)
Grid generation             ....       0.624 sec  (  0.2%)

-------------------------   --------------------
FINAL SINGLE POINT ENERGY      -721.212257406320
-------------------------   --------------------


                            ***************************************
                            *     ORCA property calculations      *
                            ***************************************

                                    ---------------------
                                    Active property flags
                                    ---------------------
   (+) Dipole Moment


------------------------------------------------------------------------------
                       ORCA ELECTRIC PROPERTIES CALCULATION
------------------------------------------------------------------------------

Dipole Moment Calculation                       ... on
Quadrupole Moment Calculation                   ... off
Polarizability Calculation                      ... off
GBWName                                         ... TMB31_T1.gbw
Electron density file                           ... TMB31_T1.scfp
The origin for moment calculation is the CENTER OF MASS  = (-0.014281,  0.004026 -0.013184)

-------------
DIPOLE MOMENT
-------------
                                X             Y             Z
Electronic contribution:      4.83188       6.84851     -17.54048
Nuclear contribution   :     -4.43915      -6.73459      18.18954
                        -----------------------------------------
Total Dipole Moment    :      0.39273       0.11392       0.64906
                        -----------------------------------------
Magnitude (a.u.)       :      0.76714
Magnitude (Debye)      :      1.94991



--------------------
Rotational spectrum 
--------------------
 
Rotational constants in cm-1:     0.054508     0.031967     0.031168 
Rotational constants in MHz :  1634.105298   958.356108   934.407674 

 Dipole components along the rotational axes: 
x,y,z [a.u.] :     0.396355     0.026865     0.656263 
x,y,z [Debye]:     1.007454     0.068286     1.668088 

 

Timings for individual modules:

Sum of individual times         ...      322.869 sec (=   5.381 min)
GTO integral calculation        ...        3.305 sec (=   0.055 min)   1.0 %
SCF iterations                  ...      319.564 sec (=   5.326 min)  99.0 %
                             ****ORCA TERMINATED NORMALLY****
TOTAL RUN TIME: 0 days 0 hours 5 minutes 23 seconds 531 msec
