
                                 *****************
                                 * O   R   C   A *
                                 *****************

           --- An Ab Initio, DFT and Semiempirical electronic structure package ---

                  #######################################################
                  #                        -***-                        #
                  #          Department of theory and spectroscopy      #
                  #               Directorship: Frank Neese             #
                  #        Max Planck Institute fuer Kohlenforschung    #
                  #                Kaiser Wilhelm Platz 1               #
                  #                 D-45470 Muelheim/Ruhr               #
                  #                      Germany                        #
                  #                                                     #
                  #                  All rights reserved                #
                  #                        -***-                        #
                  #######################################################


                         Program Version 4.2.0 -  RELEASE  -


 With contributions from (in alphabetic order):
   Daniel Aravena         : Magnetic Suceptibility
   Michael Atanasov       : Ab Initio Ligand Field Theory (pilot matlab implementation)
   Alexander A. Auer      : GIAO ZORA, VPT2
   Ute Becker             : Parallelization
   Giovanni Bistoni       : ED, misc. LED, open-shell LED, HFLED
   Martin Brehm           : Molecular dynamics
   Dmytro Bykov           : SCF Hessian
   Vijay G. Chilkuri      : MRCI spin determinant printing, contributions to CSF-ICE
   Dipayan Datta          : RHF DLPNO-CCSD density
   Achintya Kumar Dutta   : EOM-CC, STEOM-CC
   Dmitry Ganyushin       : Spin-Orbit,Spin-Spin,Magnetic field MRCI
   Miquel Garcia          : C-PCM Hessian, Gaussian charge scheme
   Yang Guo               : DLPNO-NEVPT2, CIM, IAO-localization
   Andreas Hansen         : Spin unrestricted coupled pair/coupled cluster methods
   Benjamin Helmich-Paris : CASSCF linear response (MC-RPA)
   Lee Huntington         : MR-EOM, pCC
   Robert Izsak           : Overlap fitted RIJCOSX, COSX-SCS-MP3, EOM
   Christian Kollmar      : KDIIS, OOCD, Brueckner-CCSD(T), CCSD density
   Simone Kossmann        : Meta GGA functionals, TD-DFT gradient, OOMP2, MP2 Hessian
   Martin Krupicka        : AUTO-CI
   Lucas Lang             : DCDCAS
   Dagmar Lenk            : GEPOL surface, SMD
   Dimitrios Liakos       : Extrapolation schemes; Compound Job, initial MDCI parallelization
   Dimitrios Manganas     : Further ROCIS development; embedding schemes
   Dimitrios Pantazis     : SARC Basis sets
   Taras Petrenko         : DFT Hessian,TD-DFT gradient, ASA, ECA, R-Raman, ABS, FL, XAS/XES, NRVS
   Peter Pinski           : DLPNO-MP2, DLPNO-MP2 Gradient
   Christoph Reimann      : Effective Core Potentials
   Marius Retegan         : Local ZFS, SOC
   Christoph Riplinger    : Optimizer, TS searches, QM/MM, DLPNO-CCSD(T), (RO)-DLPNO pert. Triples
   Tobias Risthaus        : Range-separated hybrids, TD-DFT gradient, RPA, STAB
   Michael Roemelt        : Original ROCIS implementation
   Masaaki Saitow         : Open-shell DLPNO-CCSD energy and density
   Barbara Sandhoefer     : DKH picture change effects
   Avijit Sen             : IP-ROCIS
   Kantharuban Sivalingam : CASSCF convergence, NEVPT2, FIC-MRCI
   Bernardo de Souza      : ESD, SOC TD-DFT
   Georgi Stoychev        : AutoAux, RI-MP2 NMR
   Willem Van den Heuvel  : Paramagnetic NMR
   Boris Wezisla          : Elementary symmetry handling
   Frank Wennmohs         : Technical directorship


 We gratefully acknowledge several colleagues who have allowed us to
 interface, adapt or use parts of their codes:
   Stefan Grimme, W. Hujo, H. Kruse,             : VdW corrections, initial TS optimization,
                  C. Bannwarth                     DFT functionals, gCP, sTDA/sTD-DF
   Ed Valeev, F. Pavosevic, A. Kumar             : LibInt (2-el integral package), F12 methods
   Garnet Chan, S. Sharma, J. Yang, R. Olivares  : DMRG
   Ulf Ekstrom                                   : XCFun DFT Library
   Mihaly Kallay                                 : mrcc  (arbitrary order and MRCC methods)
   Andreas Klamt, Michael Diedenhofen            : otool_cosmo (COSMO solvation model)
   Jiri Pittner, Ondrej Demel                    : Mk-CCSD
   Frank Weinhold                                : gennbo (NPA and NBO analysis)
   Christopher J. Cramer and Donald G. Truhlar   : smd solvation model
   Lars Goerigk                                  : TD-DFT with DH, B97 family of functionals
   V. Asgeirsson, H. Jonsson                     : NEB implementation
   FAccTs GmbH                                   : IRC, NEB, NEB-TS, Multilevel, MM, QM/MM, CI optimization
   S Lehtola, MJT Oliveira, MAL Marques          : LibXC Library


 Your calculation uses the libint2 library for the computation of 2-el integrals
 For citations please refer to: http://libint.valeyev.net

 Your ORCA version has been built with support for libXC version: 4.2.3
 For citations please refer to: https://tddft.org/programs/libxc/

 This ORCA versions uses:
   CBLAS   interface :  Fast vector & matrix operations
   LAPACKE interface :  Fast linear algebra routines
   SCALAPACK package :  Parallel linear algebra routines


Your calculation utilizes the DFT-NL dispersion correction.
Cite in your paper:
Vydrov, O. A.; Van Voorhis, T. J. Chem. Phys. 2010, 133, 244103
Hujo, W.; Grimme, S. J. Chem. Theory Comput. 2011, 7, 3866 
   

----- Orbital basis set information -----
Your calculation utilizes the basis: def2-TZVPPD
   F. Weigend and R. Ahlrichs, Phys. Chem. Chem. Phys. 7, 3297 (2005).
   D. Rappoport and F. Furche, J. Chem. Phys. 133 134105 (2010).

----- AuxJK basis set information -----
Your calculation utilizes the auxiliary basis: def2/JK
   H-Ba, Hf-Rn: F. Weigend, J. Comput. Chem. 29, 167 (2008).

================================================================================
                                        WARNINGS
                       Please study these warnings very carefully!
================================================================================


WARNING: your system is open-shell and RHF/RKS was chosen
  ===> : WILL SWITCH to UHF/UKS


INFO   : the flag for use of LIBINT has been found!

================================================================================
                                       INPUT FILE
================================================================================
NAME = TMD02_O.in
|  1> #
|  2> # TMD02_O wB97X-V/Def2-TZVPPD
|  3> #
|  4> ! wb97x-v def2-tzvppd def2/jk grid4 nofinalgrid
|  5> 
|  6> *xyz 0 3
|  7> O        0.000000    0.000000    0.000000 
|  8> *
|  9> 
| 10> %maxcore 5000
| 11> 
| 12> %pal
| 13> nprocs = 24
| 14> end
| 15> 
| 16> 
| 17>                          ****END OF INPUT****
================================================================================

                       ****************************
                       * Single Point Calculation *
                       ****************************

---------------------------------
CARTESIAN COORDINATES (ANGSTROEM)
---------------------------------
  O      0.000000    0.000000    0.000000

----------------------------
CARTESIAN COORDINATES (A.U.)
----------------------------
  NO LB      ZA    FRAG     MASS         X           Y           Z
   0 O     8.0000    0    15.999    0.000000    0.000000    0.000000

--------------------------------
INTERNAL COORDINATES (ANGSTROEM)
--------------------------------
 O      0   0   0     0.000000000000     0.00000000     0.00000000

---------------------------
INTERNAL COORDINATES (A.U.)
---------------------------
 O      0   0   0     0.000000000000     0.00000000     0.00000000

---------------------
BASIS SET INFORMATION
---------------------
There are 1 groups of distinct atoms

 Group   1 Type O   : 12s7p3d1f contracted to 6s4p3d1f pattern {621111/4111/111/1}

Atom   0O    basis set group =>   1
----------------------------------
AUXILIARY/JK BASIS SET INFORMATION
----------------------------------
There are 1 groups of distinct atoms

 Group   1 Type O   : 14s10p6d2f1g contracted to 10s8p4d2f1g pattern {5111111111/31111111/3111/11/1}

Atom   0O    basis set group =>   1


           ************************************************************
           *        Program running with 24 parallel MPI-processes    *
           *              working on a common directory               *
           ************************************************************
------------------------------------------------------------------------------
                           ORCA GTO INTEGRAL CALCULATION
------------------------------------------------------------------------------

                         BASIS SET STATISTICS AND STARTUP INFO

 # of primitive gaussian shells          ...   23
 # of primitive gaussian functions       ...   55
 # of contracted shells                  ...   14
 # of contracted basis functions         ...   40
 Highest angular momentum                ...    3
 Maximum contraction depth               ...    6
 Integral package used                   ... LIBINT
 Integral threshhold            Thresh   ...  1.000e-10
 Primitive cut-off              TCut     ...  1.000e-11


------------------------------ INTEGRAL EVALUATION ----------------------------


 * One electron integrals 
 Pre-screening matrix                    ... done
 Shell pair data                         ... done (   0.000 sec)



           ************************************************************
           *        Program running with 24 parallel MPI-processes    *
           *              working on a common directory               *
           ************************************************************
-------------------------------------------------------------------------------
                                 ORCA SCF
-------------------------------------------------------------------------------

------------
SCF SETTINGS
------------
Hamiltonian:
 Density Functional     Method          .... DFT(GTOs)
 Exchange Functional    Exchange        .... WB97X-V
 Correlation Functional Correlation     .... WB97X-V
 Gradients option       PostSCFGGA      .... off
 Hybrid DFT is turned on
   Fraction HF Exchange ScalHFX         ....  0.167000
   Scaling of DF-GGA-X  ScalDFX         ....  0.000000
   Scaling of DF-GGA-C  ScalDFC         ....  1.000000
   Scaling of DF-LDA-C  ScalLDAC        ....  1.000000
   Perturbative correction              ....  0.000000
   Density functional embedding theory  .... OFF
 Long-range corrected/Screened/Range-Separated Hybrid DFT is turned on
   Amount of maximum screened exact exchange              ....  0.833000
   Range separation parameter mu (erf(mu*r12)/r12)        ....  0.300000
   NL short-range parameter             ....  6.000000
   NL long-range parameter              ....  0.010000


General Settings:
 Integral files         IntName         .... TMD02_O
 Hartree-Fock type      HFTyp           .... UHF
 Total Charge           Charge          ....    0
 Multiplicity           Mult            ....    3
 Number of Electrons    NEL             ....    8
 Basis Dimension        Dim             ....   40
 Nuclear Repulsion      ENuc            ....      0.0000000000 Eh

Convergence Acceleration:
 DIIS                   CNVDIIS         .... on
   Start iteration      DIISMaxIt       ....    12
   Startup error        DIISStart       ....  0.200000
   # of expansion vecs  DIISMaxEq       ....     5
   Bias factor          DIISBfac        ....   1.050
   Max. coefficient     DIISMaxC        ....  10.000
 Newton-Raphson         CNVNR           .... off
 SOSCF                  CNVSOSCF        .... off
 Level Shifting         CNVShift        .... on
   Level shift para.    LevelShift      ....    0.2500
   Turn off err/grad.   ShiftErr        ....    0.0010
 Zerner damping         CNVZerner       .... off
 Static damping         CNVDamp         .... on
   Fraction old density DampFac         ....    0.7000
   Max. Damping (<1)    DampMax         ....    0.9800
   Min. Damping (>=0)   DampMin         ....    0.0000
   Turn off err/grad.   DampErr         ....    0.1000
 Fernandez-Rico         CNVRico         .... off

SCF Procedure:
 Maximum # iterations   MaxIter         ....   125
 SCF integral mode      SCFMode         .... Direct
   Integral package                     .... LIBINT
 Reset frequency        DirectResetFreq ....    20
 Integral Threshold     Thresh          ....  1.000e-10 Eh
 Primitive CutOff       TCut            ....  1.000e-11 Eh

Convergence Tolerance:
 Convergence Check Mode ConvCheckMode   .... Total+1el-Energy
 Convergence forced     ConvForced      .... 0
 Energy Change          TolE            ....  1.000e-06 Eh
 1-El. energy change                    ....  1.000e-03 Eh
 DIIS Error             TolErr          ....  1.000e-06


Diagonalization of the overlap matrix:
Smallest eigenvalue                        ... 1.499e-02
Time for diagonalization                   ...    0.001 sec
Threshold for overlap eigenvalues          ... 1.000e-08
Number of eigenvalues below threshold      ... 0
Time for construction of square roots      ...    0.001 sec
Total time needed                          ...    0.002 sec

-------------------
DFT GRID GENERATION
-------------------

General Integration Accuracy     IntAcc      ...  4.670
Radial Grid Type                 RadialGrid  ... Gauss-Chebyshev
Angular Grid (max. acc.)         AngularGrid ... Lebedev-302
Angular grid pruning method      GridPruning ... 3 (G Style)
Weight generation scheme         WeightScheme... Becke
Basis function cutoff            BFCut       ...    1.0000e-10
Integration weight cutoff        WCut        ...    1.0000e-14
Grids for H and He will be reduced by one unit

# of grid points (after initial pruning)     ...   6212 (   0.0 sec)
# of grid points (after weights+screening)   ...   6212 (   0.0 sec)
Grid point division into batches done        ...    0.0 sec
Reduced shell lists constructed in    0.0 sec

Total number of grid points                  ...     6212
Total number of batches                      ...       98
Average number of points per batch           ...       63
Average number of grid points per atom       ...     6212
Average number of shells per batch           ...     4.17 (29.76%)
Average number of basis functions per batch  ...    10.83 (27.08%)
Average number of large shells per batch     ...     2.50 (60.00%)
Average number of large basis fcns per batch ...     7.50 (69.23%)
Maximum spatial batch extension              ...  15.22, 15.22, 15.22 au
Average spatial batch extension              ...   0.68,  0.68,  0.73 au

Time for grid setup =    0.053 sec

------------------------------
INITIAL GUESS: MODEL POTENTIAL
------------------------------
Loading Hartree-Fock densities                     ... done
Calculating cut-offs                               ... done
Setting up the integral package                    ... done
Initializing the effective Hamiltonian             ... done
Starting the Coulomb interaction                   ... done (   0.0 sec)
Reading the grid                                   ... done
Mapping shells                                     ... done
Starting the XC term evaluation                    ... done (   0.0 sec)
  promolecular density results
     # of electrons  =      8.000000057
     EX              =     -5.609184863
     EC              =     -0.337643761
     EX+EC           =     -5.946828624
Transforming the Hamiltonian                       ... done (   0.0 sec)
Diagonalizing the Hamiltonian                      ... done (   0.0 sec)
Back transforming the eigenvectors                 ... done (   0.0 sec)
Now organizing SCF variables                       ... done
                      ------------------
                      INITIAL GUESS DONE (   0.2 sec)
                      ------------------
--------------
SCF ITERATIONS
--------------
ITER       Energy         Delta-E        Max-DP      RMS-DP      [F,P]     Damp
               ***  Starting incremental Fock matrix formation  ***
  0    -74.9694681490   0.000000000000 0.02910056  0.00154420  0.3713951 0.7000
  1    -75.0200402161  -0.050572067074 0.01967872  0.00113080  0.2376949 0.7000
                               ***Turning on DIIS***
  2    -75.0482977471  -0.028257531068 0.01071037  0.00070930  0.1516992 0.7000
  3    -75.0654854474  -0.017187700230 0.02244175  0.00150445  0.0984767 0.0000
  4    -75.1037459644  -0.038260517086 0.00449537  0.00033003  0.0168960 0.0000
  5    -75.1042333157  -0.000487351216 0.00277573  0.00014113  0.0033306 0.0000
  6    -75.1043104436  -0.000077127938 0.00097989  0.00006047  0.0013282 0.0000
  7    -75.1043253527  -0.000014909100 0.00045975  0.00002486  0.0004100 0.0000
  8    -75.1043272814  -0.000001928677 0.00005924  0.00000373  0.0000413 0.0000
                 **** Energy Check signals convergence ****

               *****************************************************
               *                     SUCCESS                       *
               *           SCF CONVERGED AFTER   9 CYCLES          *
               *****************************************************


Setting up the DFT-NL grid :

General Integration Accuracy     IntAcc      ...  4.340
Radial Grid Type                 RadialGrid  ... Gauss-Chebyshev
Angular Grid (max. acc.)         AngularGrid ... Lebedev-110
Angular grid pruning method      GridPruning ... 3 (G Style)
Weight generation scheme         WeightScheme... Becke
Basis function cutoff            BFCut       ...    1.0000e-10
Integration weight cutoff        WCut        ...    1.0000e-14
Grids for H and He will be reduced by one unit

# of grid points (after initial pruning)     ...   1716 (   0.0 sec)
# of grid points (after weights+screening)   ...   1716 (   0.0 sec)
Grid point division into batches done        ...    0.0 sec
Reduced shell lists constructed in    0.0 sec

Total number of grid points                  ...     1716
Total number of batches                      ...       27
Average number of points per batch           ...       63
Average number of grid points per atom       ...     1716
Average number of shells per batch           ...     6.67 (47.62%)
Average number of basis functions per batch  ...    20.00 (50.00%)
Average number of large shells per batch     ...     5.33 (80.00%)
Average number of large basis fcns per batch ...    14.67 (73.33%)
Maximum spatial batch extension              ...  13.89, 25.65, 25.65 au
Average spatial batch extension              ...   1.03,  1.90,  1.90 au

Final grid set up in    0.0 sec

-------------------------------------------------------------------------------
                         DFT-NL dispersion correction                          
-------------------------------------------------------------------------------

SC Energy -75.104327332 
NL    Energy 0.035112729 
SC+NL Energy -75.069214603 
NL done in    0.0 sec
-------------------------------------------------------------------------------

----------------
TOTAL SCF ENERGY
----------------

Total Energy       :          -75.06921460 Eh           -2042.73718 eV

Components:
Nuclear Repulsion  :            0.00000000 Eh               0.00000 eV
Electronic Energy  :          -75.06921460 Eh           -2042.73718 eV
One Electron Energy:         -103.17700982 Eh           -2807.58917 eV
Two Electron Energy:           28.10779522 Eh             764.85199 eV

Virial components:
Potential Energy   :         -149.96096026 Eh           -4080.64518 eV
Kinetic Energy     :           74.89174566 Eh            2037.90800 eV
Virial Ratio       :            2.00236967


DFT components:
N(Alpha)           :        4.999999925279 electrons
N(Beta)            :        2.999999923703 electrons
N(Total)           :        7.999999848982 electrons
E(X)               :       -5.728168696064 Eh       
E(C)               :       -0.313341430754 Eh       
NL Energy, E(C,NL) :        0.035112729456 Eh       
E(XC)              :       -6.006397397362 Eh       
DFET-embed. en.    :        0.000000000000 Eh       

---------------
SCF CONVERGENCE
---------------

  Last Energy change         ...   -5.0877e-08  Tolerance :   1.0000e-06
  Last MAX-Density change    ...    1.9502e-05  Tolerance :   1.0000e-05
  Last RMS-Density change    ...    1.1962e-06  Tolerance :   1.0000e-06
  Last DIIS Error            ...    9.9446e-06  Tolerance :   1.0000e-06

             **** THE GBW FILE WAS UPDATED (TMD02_O.gbw) ****
             **** DENSITY FILE WAS UPDATED (TMD02_O.scfp) ****
             **** ENERGY FILE WAS UPDATED (TMD02_O.en.tmp) ****
----------------------
UHF SPIN CONTAMINATION
----------------------

Warning: in a DFT calculation there is little theoretical justification to 
         calculate <S**2> as in Hartree-Fock theory. We will do it anyways
         but you should keep in mind that the values have only limited relevance

Expectation value of <S**2>     :     2.004024
Ideal value S*(S+1) for S=1.0   :     2.000000
Deviation                       :     0.004024

             **** THE GBW FILE WAS UPDATED (TMD02_O.gbw) ****
             **** DENSITY FILE WAS UPDATED (TMD02_O.scfp) ****
----------------
ORBITAL ENERGIES
----------------
                 SPIN UP ORBITALS
  NO   OCC          E(Eh)            E(eV) 
   0   1.0000     -19.361482      -526.8527 
   1   1.0000      -1.149486       -31.2791 
   2   1.0000      -0.575145       -15.6505 
   3   1.0000      -0.575145       -15.6505 
   4   1.0000      -0.503586       -13.7033 
   5   0.0000       0.117786         3.2051 
   6   0.0000       0.123331         3.3560 
   7   0.0000       0.123331         3.3560 
   8   0.0000       0.131083         3.5669 
   9   0.0000       0.433118        11.7857 
  10   0.0000       0.433118        11.7857 
  11   0.0000       0.441408        12.0113 
  12   0.0000       0.441408        12.0113 
  13   0.0000       0.443776        12.0757 
  14   0.0000       0.624841        17.0028 
  15   0.0000       0.624841        17.0028 
  16   0.0000       0.649345        17.6696 
  17   0.0000       0.708316        19.2743 
  18   0.0000       1.694224        46.1022 
  19   0.0000       1.694224        46.1022 
  20   0.0000       1.732217        47.1360 
  21   0.0000       1.732217        47.1360 
  22   0.0000       1.745591        47.4999 
  23   0.0000       2.638758        71.8043 
  24   0.0000       2.638758        71.8043 
  25   0.0000       2.692995        73.2801 
  26   0.0000       2.918059        79.4044 
  27   0.0000       5.078024       138.1801 
  28   0.0000       5.078024       138.1801 
  29   0.0000       5.118903       139.2924 
  30   0.0000       5.118903       139.2924 
  31   0.0000       5.143823       139.9705 
  32   0.0000       5.143823       139.9705 
  33   0.0000       5.152316       140.2016 
  34   0.0000       6.264453       170.4644 
  35   0.0000       6.264453       170.4644 
  36   0.0000       6.321558       172.0183 
  37   0.0000       6.321558       172.0183 
  38   0.0000       6.341526       172.5617 
  39   0.0000      43.013515      1170.4572 

                 SPIN DOWN ORBITALS
  NO   OCC          E(Eh)            E(eV) 
   0   1.0000     -19.319227      -525.7029 
   1   1.0000      -0.989875       -26.9359 
   2   1.0000      -0.447848       -12.1866 
   3   0.0000      -0.079282        -2.1574 
   4   0.0000      -0.079280        -2.1573 
   5   0.0000       0.128857         3.5064 
   6   0.0000       0.133733         3.6390 
   7   0.0000       0.141539         3.8515 
   8   0.0000       0.141550         3.8518 
   9   0.0000       0.446780        12.1575 
  10   0.0000       0.446781        12.1575 
  11   0.0000       0.447962        12.1897 
  12   0.0000       0.447964        12.1897 
  13   0.0000       0.449285        12.2257 
  14   0.0000       0.664550        18.0833 
  15   0.0000       0.678328        18.4583 
  16   0.0000       0.678333        18.4584 
  17   0.0000       0.735881        20.0243 
  18   0.0000       1.786925        48.6247 
  19   0.0000       1.786926        48.6247 
  20   0.0000       1.788486        48.6672 
  21   0.0000       1.793757        48.8106 
  22   0.0000       1.793757        48.8106 
  23   0.0000       2.735321        74.4319 
  24   0.0000       2.767640        75.3113 
  25   0.0000       2.767648        75.3115 
  26   0.0000       3.008145        81.8558 
  27   0.0000       5.208670       141.7351 
  28   0.0000       5.208671       141.7352 
  29   0.0000       5.211344       141.8079 
  30   0.0000       5.211345       141.8079 
  31   0.0000       5.212995       141.8528 
  32   0.0000       5.212995       141.8528 
  33   0.0000       5.213743       141.8732 
  34   0.0000       6.432747       175.0440 
  35   0.0000       6.432756       175.0442 
  36   0.0000       6.438139       175.1907 
  37   0.0000       6.461893       175.8371 
  38   0.0000       6.461899       175.8372 
  39   0.0000      43.065853      1171.8814 

                    ********************************
                    * MULLIKEN POPULATION ANALYSIS *
                    ********************************

--------------------------------------------
MULLIKEN ATOMIC CHARGES AND SPIN POPULATIONS
--------------------------------------------
   0 O :    0.000000    2.000000
Sum of atomic charges         :    0.0000000
Sum of atomic spin populations:    2.0000000

-----------------------------------------------------
MULLIKEN REDUCED ORBITAL CHARGES AND SPIN POPULATIONS
-----------------------------------------------------
CHARGE
  0 O s       :     3.999562  s :     3.999562
      pz      :     1.543433  p :     3.999856
      px      :     1.000409
      py      :     1.456014
      dz2     :     0.000044  d :     0.000438
      dxz     :     0.000000
      dyz     :     0.000326
      dx2y2   :     0.000068
      dxy     :     0.000000
      f0      :     0.000021  f :     0.000144
      f+1     :     0.000008
      f-1     :     0.000043
      f+2     :     0.000031
      f-2     :     0.000025
      f+3     :     0.000008
      f-3     :     0.000008

SPIN
  0 O s       :    -0.000237  s :    -0.000237
      pz      :     0.456462  p :     1.999856
      px      :     0.999509
      py      :     0.543884
      dz2     :     0.000024  d :     0.000237
      dxz     :     0.000000
      dyz     :     0.000176
      dx2y2   :     0.000037
      dxy     :     0.000000
      f0      :     0.000021  f :     0.000144
      f+1     :     0.000008
      f-1     :     0.000043
      f+2     :     0.000031
      f-2     :     0.000025
      f+3     :     0.000008
      f-3     :     0.000008


                     *******************************
                     * LOEWDIN POPULATION ANALYSIS *
                     *******************************

-------------------------------------------
LOEWDIN ATOMIC CHARGES AND SPIN POPULATIONS
-------------------------------------------
   0 O :    0.000000    2.000000

----------------------------------------------------
LOEWDIN REDUCED ORBITAL CHARGES AND SPIN POPULATIONS
----------------------------------------------------
CHARGE
  0 O s       :     3.999562  s :     3.999562
      pz      :     1.543433  p :     3.999856
      px      :     1.000409
      py      :     1.456014
      dz2     :     0.000044  d :     0.000438
      dxz     :     0.000000
      dyz     :     0.000326
      dx2y2   :     0.000068
      dxy     :     0.000000
      f0      :     0.000021  f :     0.000144
      f+1     :     0.000008
      f-1     :     0.000043
      f+2     :     0.000031
      f-2     :     0.000025
      f+3     :     0.000008
      f-3     :     0.000008

SPIN
  0 O s       :    -0.000237  s :    -0.000237
      pz      :     0.456462  p :     1.999856
      px      :     0.999509
      py      :     0.543884
      dz2     :     0.000024  d :     0.000237
      dxz     :     0.000000
      dyz     :     0.000176
      dx2y2   :     0.000037
      dxy     :     0.000000
      f0      :     0.000021  f :     0.000144
      f+1     :     0.000008
      f-1     :     0.000043
      f+2     :     0.000031
      f-2     :     0.000025
      f+3     :     0.000008
      f-3     :     0.000008


                      *****************************
                      * MAYER POPULATION ANALYSIS *
                      *****************************

  NA   - Mulliken gross atomic population
  ZA   - Total nuclear charge
  QA   - Mulliken gross atomic charge
  VA   - Mayer's total valence
  BVA  - Mayer's bonded valence
  FA   - Mayer's free valence

  ATOM       NA         ZA         QA         VA         BVA        FA
  0 O      8.0000     8.0000     0.0000     2.0080     0.0000     2.0080

  Mayer bond orders larger than 0.100000


-------
TIMINGS
-------

Total SCF time: 0 days 0 hours 0 min 1 sec 

Total time                  ....       1.374 sec
Sum of individual times     ....       1.200 sec  ( 87.3%)

Fock matrix formation       ....       1.024 sec  ( 74.5%)
  XC integration            ....       0.057 sec  (  5.6% of F)
    Basis function eval.    ....       0.003 sec  (  5.8% of XC)
    Density eval.           ....       0.004 sec  (  7.8% of XC)
    XC-Functional eval.     ....       0.005 sec  (  8.6% of XC)
    XC-Potential eval.      ....       0.003 sec  (  5.8% of XC)
Diagonalization             ....       0.006 sec  (  0.4%)
Density matrix formation    ....       0.002 sec  (  0.1%)
Population analysis         ....       0.003 sec  (  0.2%)
Initial guess               ....       0.102 sec  (  7.4%)
Orbital Transformation      ....       0.000 sec  (  0.0%)
Orbital Orthonormalization  ....       0.000 sec  (  0.0%)
DIIS solution               ....       0.005 sec  (  0.4%)
Grid generation             ....       0.059 sec  (  4.3%)

-------------------------   --------------------
FINAL SINGLE POINT ENERGY       -75.069214602800
-------------------------   --------------------


                            ***************************************
                            *     ORCA property calculations      *
                            ***************************************

                                    ---------------------
                                    Active property flags
                                    ---------------------
   (+) Dipole Moment


------------------------------------------------------------------------------
                       ORCA ELECTRIC PROPERTIES CALCULATION
------------------------------------------------------------------------------

Dipole Moment Calculation                       ... on
Quadrupole Moment Calculation                   ... off
Polarizability Calculation                      ... off
GBWName                                         ... TMD02_O.gbw
Electron density file                           ... TMD02_O.scfp
The origin for moment calculation is the CENTER OF MASS  = ( 0.000000,  0.000000  0.000000)

-------------
DIPOLE MOMENT
-------------
                                X             Y             Z
Electronic contribution:      0.00000      -0.00000      -0.00000
Nuclear contribution   :      0.00000       0.00000       0.00000
                        -----------------------------------------
Total Dipole Moment    :      0.00000      -0.00000      -0.00000
                        -----------------------------------------
Magnitude (a.u.)       :      0.00000
Magnitude (Debye)      :      0.00000



--------------------
Rotational spectrum 
--------------------
 
Rotational constants in cm-1:     0.000000     0.000000     0.000000 
Rotational constants in MHz :     0.000000     0.000000     0.000000 

 Dipole components along the rotational axes: 
x,y,z [a.u.] :     0.000000    -0.000000    -0.000000 
x,y,z [Debye]:     0.000000    -0.000000    -0.000000 

 

Timings for individual modules:

Sum of individual times         ...        2.357 sec (=   0.039 min)
GTO integral calculation        ...        0.620 sec (=   0.010 min)  26.3 %
SCF iterations                  ...        1.737 sec (=   0.029 min)  73.7 %
                             ****ORCA TERMINATED NORMALLY****
TOTAL RUN TIME: 0 days 0 hours 0 minutes 2 seconds 781 msec
