
                                 *****************
                                 * O   R   C   A *
                                 *****************

           --- An Ab Initio, DFT and Semiempirical electronic structure package ---

                  #######################################################
                  #                        -***-                        #
                  #          Department of theory and spectroscopy      #
                  #               Directorship: Frank Neese             #
                  #        Max Planck Institute fuer Kohlenforschung    #
                  #                Kaiser Wilhelm Platz 1               #
                  #                 D-45470 Muelheim/Ruhr               #
                  #                      Germany                        #
                  #                                                     #
                  #                  All rights reserved                #
                  #                        -***-                        #
                  #######################################################


                         Program Version 4.2.0 -  RELEASE  -


 With contributions from (in alphabetic order):
   Daniel Aravena         : Magnetic Suceptibility
   Michael Atanasov       : Ab Initio Ligand Field Theory (pilot matlab implementation)
   Alexander A. Auer      : GIAO ZORA, VPT2
   Ute Becker             : Parallelization
   Giovanni Bistoni       : ED, misc. LED, open-shell LED, HFLED
   Martin Brehm           : Molecular dynamics
   Dmytro Bykov           : SCF Hessian
   Vijay G. Chilkuri      : MRCI spin determinant printing, contributions to CSF-ICE
   Dipayan Datta          : RHF DLPNO-CCSD density
   Achintya Kumar Dutta   : EOM-CC, STEOM-CC
   Dmitry Ganyushin       : Spin-Orbit,Spin-Spin,Magnetic field MRCI
   Miquel Garcia          : C-PCM Hessian, Gaussian charge scheme
   Yang Guo               : DLPNO-NEVPT2, CIM, IAO-localization
   Andreas Hansen         : Spin unrestricted coupled pair/coupled cluster methods
   Benjamin Helmich-Paris : CASSCF linear response (MC-RPA)
   Lee Huntington         : MR-EOM, pCC
   Robert Izsak           : Overlap fitted RIJCOSX, COSX-SCS-MP3, EOM
   Christian Kollmar      : KDIIS, OOCD, Brueckner-CCSD(T), CCSD density
   Simone Kossmann        : Meta GGA functionals, TD-DFT gradient, OOMP2, MP2 Hessian
   Martin Krupicka        : AUTO-CI
   Lucas Lang             : DCDCAS
   Dagmar Lenk            : GEPOL surface, SMD
   Dimitrios Liakos       : Extrapolation schemes; Compound Job, initial MDCI parallelization
   Dimitrios Manganas     : Further ROCIS development; embedding schemes
   Dimitrios Pantazis     : SARC Basis sets
   Taras Petrenko         : DFT Hessian,TD-DFT gradient, ASA, ECA, R-Raman, ABS, FL, XAS/XES, NRVS
   Peter Pinski           : DLPNO-MP2, DLPNO-MP2 Gradient
   Christoph Reimann      : Effective Core Potentials
   Marius Retegan         : Local ZFS, SOC
   Christoph Riplinger    : Optimizer, TS searches, QM/MM, DLPNO-CCSD(T), (RO)-DLPNO pert. Triples
   Tobias Risthaus        : Range-separated hybrids, TD-DFT gradient, RPA, STAB
   Michael Roemelt        : Original ROCIS implementation
   Masaaki Saitow         : Open-shell DLPNO-CCSD energy and density
   Barbara Sandhoefer     : DKH picture change effects
   Avijit Sen             : IP-ROCIS
   Kantharuban Sivalingam : CASSCF convergence, NEVPT2, FIC-MRCI
   Bernardo de Souza      : ESD, SOC TD-DFT
   Georgi Stoychev        : AutoAux, RI-MP2 NMR
   Willem Van den Heuvel  : Paramagnetic NMR
   Boris Wezisla          : Elementary symmetry handling
   Frank Wennmohs         : Technical directorship


 We gratefully acknowledge several colleagues who have allowed us to
 interface, adapt or use parts of their codes:
   Stefan Grimme, W. Hujo, H. Kruse,             : VdW corrections, initial TS optimization,
                  C. Bannwarth                     DFT functionals, gCP, sTDA/sTD-DF
   Ed Valeev, F. Pavosevic, A. Kumar             : LibInt (2-el integral package), F12 methods
   Garnet Chan, S. Sharma, J. Yang, R. Olivares  : DMRG
   Ulf Ekstrom                                   : XCFun DFT Library
   Mihaly Kallay                                 : mrcc  (arbitrary order and MRCC methods)
   Andreas Klamt, Michael Diedenhofen            : otool_cosmo (COSMO solvation model)
   Jiri Pittner, Ondrej Demel                    : Mk-CCSD
   Frank Weinhold                                : gennbo (NPA and NBO analysis)
   Christopher J. Cramer and Donald G. Truhlar   : smd solvation model
   Lars Goerigk                                  : TD-DFT with DH, B97 family of functionals
   V. Asgeirsson, H. Jonsson                     : NEB implementation
   FAccTs GmbH                                   : IRC, NEB, NEB-TS, Multilevel, MM, QM/MM, CI optimization
   S Lehtola, MJT Oliveira, MAL Marques          : LibXC Library


 Your calculation uses the libint2 library for the computation of 2-el integrals
 For citations please refer to: http://libint.valeyev.net

 Your ORCA version has been built with support for libXC version: 4.2.3
 For citations please refer to: https://tddft.org/programs/libxc/

 This ORCA versions uses:
   CBLAS   interface :  Fast vector & matrix operations
   LAPACKE interface :  Fast linear algebra routines
   SCALAPACK package :  Parallel linear algebra routines


Your calculation utilizes the DFT-NL dispersion correction.
Cite in your paper:
Vydrov, O. A.; Van Voorhis, T. J. Chem. Phys. 2010, 133, 244103
Hujo, W.; Grimme, S. J. Chem. Theory Comput. 2011, 7, 3866 
   

----- Orbital basis set information -----
Your calculation utilizes the basis: def2-TZVPPD
   F. Weigend and R. Ahlrichs, Phys. Chem. Chem. Phys. 7, 3297 (2005).
   D. Rappoport and F. Furche, J. Chem. Phys. 133 134105 (2010).

----- AuxJK basis set information -----
Your calculation utilizes the auxiliary basis: def2/JK
   H-Ba, Hf-Rn: F. Weigend, J. Comput. Chem. 29, 167 (2008).

================================================================================
                                        WARNINGS
                       Please study these warnings very carefully!
================================================================================


WARNING: your system is open-shell and RHF/RKS was chosen
  ===> : WILL SWITCH to UHF/UKS


INFO   : the flag for use of LIBINT has been found!

================================================================================
                                       INPUT FILE
================================================================================
NAME = TMD05_Cl.in
|  1> #
|  2> # TMD05_Cl wB97X-V/Def2-TZVPPD
|  3> #
|  4> ! wb97x-v def2-tzvppd def2/jk grid4 nofinalgrid
|  5> 
|  6> *xyz 0 2
|  7> Cl       0.000000    0.000000    0.000000 
|  8> *
|  9> 
| 10> %maxcore 5000
| 11> 
| 12> %pal
| 13> nprocs = 24
| 14> end
| 15> 
| 16> 
| 17>                          ****END OF INPUT****
================================================================================

                       ****************************
                       * Single Point Calculation *
                       ****************************

---------------------------------
CARTESIAN COORDINATES (ANGSTROEM)
---------------------------------
  Cl     0.000000    0.000000    0.000000

----------------------------
CARTESIAN COORDINATES (A.U.)
----------------------------
  NO LB      ZA    FRAG     MASS         X           Y           Z
   0 Cl   17.0000    0    35.453    0.000000    0.000000    0.000000

--------------------------------
INTERNAL COORDINATES (ANGSTROEM)
--------------------------------
 Cl     0   0   0     0.000000000000     0.00000000     0.00000000

---------------------------
INTERNAL COORDINATES (A.U.)
---------------------------
 Cl     0   0   0     0.000000000000     0.00000000     0.00000000

---------------------
BASIS SET INFORMATION
---------------------
There are 1 groups of distinct atoms

 Group   1 Type Cl  : 15s10p4d1f contracted to 6s6p4d1f pattern {732111/511111/1111/1}

Atom   0Cl   basis set group =>   1
----------------------------------
AUXILIARY/JK BASIS SET INFORMATION
----------------------------------
There are 1 groups of distinct atoms

 Group   1 Type Cl  : 16s12p10d4f1g contracted to 13s11p9d4f1g pattern {4111111111111/21111111111/211111111/1111/1}

Atom   0Cl   basis set group =>   1


           ************************************************************
           *        Program running with 24 parallel MPI-processes    *
           *              working on a common directory               *
           ************************************************************
------------------------------------------------------------------------------
                           ORCA GTO INTEGRAL CALCULATION
------------------------------------------------------------------------------

                         BASIS SET STATISTICS AND STARTUP INFO

 # of primitive gaussian shells          ...   30
 # of primitive gaussian functions       ...   72
 # of contracted shells                  ...   17
 # of contracted basis functions         ...   51
 Highest angular momentum                ...    3
 Maximum contraction depth               ...    7
 Integral package used                   ... LIBINT
 Integral threshhold            Thresh   ...  1.000e-10
 Primitive cut-off              TCut     ...  1.000e-11


------------------------------ INTEGRAL EVALUATION ----------------------------


 * One electron integrals 
 Pre-screening matrix                    ... done
 Shell pair data                         ... done (   0.000 sec)



           ************************************************************
           *        Program running with 24 parallel MPI-processes    *
           *              working on a common directory               *
           ************************************************************
-------------------------------------------------------------------------------
                                 ORCA SCF
-------------------------------------------------------------------------------

------------
SCF SETTINGS
------------
Hamiltonian:
 Density Functional     Method          .... DFT(GTOs)
 Exchange Functional    Exchange        .... WB97X-V
 Correlation Functional Correlation     .... WB97X-V
 Gradients option       PostSCFGGA      .... off
 Hybrid DFT is turned on
   Fraction HF Exchange ScalHFX         ....  0.167000
   Scaling of DF-GGA-X  ScalDFX         ....  0.000000
   Scaling of DF-GGA-C  ScalDFC         ....  1.000000
   Scaling of DF-LDA-C  ScalLDAC        ....  1.000000
   Perturbative correction              ....  0.000000
   Density functional embedding theory  .... OFF
 Long-range corrected/Screened/Range-Separated Hybrid DFT is turned on
   Amount of maximum screened exact exchange              ....  0.833000
   Range separation parameter mu (erf(mu*r12)/r12)        ....  0.300000
   NL short-range parameter             ....  6.000000
   NL long-range parameter              ....  0.010000


General Settings:
 Integral files         IntName         .... TMD05_Cl
 Hartree-Fock type      HFTyp           .... UHF
 Total Charge           Charge          ....    0
 Multiplicity           Mult            ....    2
 Number of Electrons    NEL             ....   17
 Basis Dimension        Dim             ....   51
 Nuclear Repulsion      ENuc            ....      0.0000000000 Eh

Convergence Acceleration:
 DIIS                   CNVDIIS         .... on
   Start iteration      DIISMaxIt       ....    12
   Startup error        DIISStart       ....  0.200000
   # of expansion vecs  DIISMaxEq       ....     5
   Bias factor          DIISBfac        ....   1.050
   Max. coefficient     DIISMaxC        ....  10.000
 Newton-Raphson         CNVNR           .... off
 SOSCF                  CNVSOSCF        .... off
 Level Shifting         CNVShift        .... on
   Level shift para.    LevelShift      ....    0.2500
   Turn off err/grad.   ShiftErr        ....    0.0010
 Zerner damping         CNVZerner       .... off
 Static damping         CNVDamp         .... on
   Fraction old density DampFac         ....    0.7000
   Max. Damping (<1)    DampMax         ....    0.9800
   Min. Damping (>=0)   DampMin         ....    0.0000
   Turn off err/grad.   DampErr         ....    0.1000
 Fernandez-Rico         CNVRico         .... off

SCF Procedure:
 Maximum # iterations   MaxIter         ....   125
 SCF integral mode      SCFMode         .... Direct
   Integral package                     .... LIBINT
 Reset frequency        DirectResetFreq ....    20
 Integral Threshold     Thresh          ....  1.000e-10 Eh
 Primitive CutOff       TCut            ....  1.000e-11 Eh

Convergence Tolerance:
 Convergence Check Mode ConvCheckMode   .... Total+1el-Energy
 Convergence forced     ConvForced      .... 0
 Energy Change          TolE            ....  1.000e-06 Eh
 1-El. energy change                    ....  1.000e-03 Eh
 DIIS Error             TolErr          ....  1.000e-06


Diagonalization of the overlap matrix:
Smallest eigenvalue                        ... 3.142e-02
Time for diagonalization                   ...    0.001 sec
Threshold for overlap eigenvalues          ... 1.000e-08
Number of eigenvalues below threshold      ... 0
Time for construction of square roots      ...    0.001 sec
Total time needed                          ...    0.002 sec

-------------------
DFT GRID GENERATION
-------------------

General Integration Accuracy     IntAcc      ...  4.670
Radial Grid Type                 RadialGrid  ... Gauss-Chebyshev
Angular Grid (max. acc.)         AngularGrid ... Lebedev-302
Angular grid pruning method      GridPruning ... 3 (G Style)
Weight generation scheme         WeightScheme... Becke
Basis function cutoff            BFCut       ...    1.0000e-10
Integration weight cutoff        WCut        ...    1.0000e-14
Grids for H and He will be reduced by one unit

# of grid points (after initial pruning)     ...   6738 (   0.0 sec)
# of grid points (after weights+screening)   ...   6738 (   0.0 sec)
Grid point division into batches done        ...    0.0 sec
Reduced shell lists constructed in    0.0 sec

Total number of grid points                  ...     6738
Total number of batches                      ...      106
Average number of points per batch           ...       63
Average number of grid points per atom       ...     6738
Average number of shells per batch           ...     3.33 (19.61%)
Average number of basis functions per batch  ...    10.00 (19.61%)
Average number of large shells per batch     ...     2.50 (75.00%)
Average number of large basis fcns per batch ...     7.50 (75.00%)
Maximum spatial batch extension              ...  17.78, 17.78, 17.78 au
Average spatial batch extension              ...   0.72,  0.72,  0.74 au

Time for grid setup =    0.057 sec

------------------------------
INITIAL GUESS: MODEL POTENTIAL
------------------------------
Loading Hartree-Fock densities                     ... done
Calculating cut-offs                               ... done
Setting up the integral package                    ... done
Initializing the effective Hamiltonian             ... done
Starting the Coulomb interaction                   ... done (   0.0 sec)
Reading the grid                                   ... done
Mapping shells                                     ... done
Starting the XC term evaluation                    ... done (   0.0 sec)
  promolecular density results
     # of electrons  =     17.000000665
     EX              =    -20.429383251
     EC              =     -0.883427122
     EX+EC           =    -21.312810374
Transforming the Hamiltonian                       ... done (   0.0 sec)
Diagonalizing the Hamiltonian                      ... done (   0.0 sec)
Back transforming the eigenvectors                 ... done (   0.0 sec)
Now organizing SCF variables                       ... done
                      ------------------
                      INITIAL GUESS DONE (   0.2 sec)
                      ------------------
--------------
SCF ITERATIONS
--------------
ITER       Energy         Delta-E        Max-DP      RMS-DP      [F,P]     Damp
               ***  Starting incremental Fock matrix formation  ***
  0   -460.0432809342   0.000000000000 0.04725664  0.00164259  0.3255931 0.7000
  1   -460.0821497055  -0.038868771311 0.03160337  0.00121702  0.1888598 0.7000
                               ***Turning on DIIS***
  2   -460.1056467356  -0.023497030066 0.01584671  0.00074626  0.1068235 0.7000
  3   -460.1203618885  -0.014715152944 0.03975239  0.00140959  0.0602696 0.0000
  4   -460.1526806370  -0.032318748457 0.01452786  0.00040815  0.0099446 0.0000
  5   -460.1530013419  -0.000320704927 0.00322448  0.00011710  0.0025275 0.0000
  6   -460.1530457691  -0.000044427157 0.00092793  0.00003942  0.0011218 0.0000
  7   -460.1530527088  -0.000006939790 0.00063322  0.00002516  0.0004511 0.0000
  8   -460.1530539590  -0.000001250131 0.00002720  0.00000104  0.0000174 0.0000
                 **** Energy Check signals convergence ****

               *****************************************************
               *                     SUCCESS                       *
               *           SCF CONVERGED AFTER   9 CYCLES          *
               *****************************************************


Setting up the DFT-NL grid :

General Integration Accuracy     IntAcc      ...  4.340
Radial Grid Type                 RadialGrid  ... Gauss-Chebyshev
Angular Grid (max. acc.)         AngularGrid ... Lebedev-110
Angular grid pruning method      GridPruning ... 3 (G Style)
Weight generation scheme         WeightScheme... Becke
Basis function cutoff            BFCut       ...    1.0000e-10
Integration weight cutoff        WCut        ...    1.0000e-14
Grids for H and He will be reduced by one unit

# of grid points (after initial pruning)     ...   1844 (   0.0 sec)
# of grid points (after weights+screening)   ...   1844 (   0.0 sec)
Grid point division into batches done        ...    0.0 sec
Reduced shell lists constructed in    0.0 sec

Total number of grid points                  ...     1844
Total number of batches                      ...       29
Average number of points per batch           ...       63
Average number of grid points per atom       ...     1844
Average number of shells per batch           ...     6.67 (39.22%)
Average number of basis functions per batch  ...    22.67 (44.44%)
Average number of large shells per batch     ...     6.00 (90.00%)
Average number of large basis fcns per batch ...    19.33 (85.29%)
Maximum spatial batch extension              ...  16.21, 29.83, 29.83 au
Average spatial batch extension              ...   1.12,  2.06,  2.06 au

Final grid set up in    0.0 sec

-------------------------------------------------------------------------------
                         DFT-NL dispersion correction                          
-------------------------------------------------------------------------------

SC Energy -460.153053965 
NL    Energy 0.072944451 
SC+NL Energy -460.080109513 
NL done in    0.0 sec
-------------------------------------------------------------------------------

----------------
TOTAL SCF ENERGY
----------------

Total Energy       :         -460.08010951 Eh          -12519.41625 eV

Components:
Nuclear Repulsion  :            0.00000000 Eh               0.00000 eV
Electronic Energy  :         -460.08010951 Eh          -12519.41625 eV
One Electron Energy:         -634.95410233 Eh          -17277.97952 eV
Two Electron Energy:          174.87399281 Eh            4758.56327 eV

Virial components:
Potential Energy   :         -919.49264189 Eh          -25020.66681 eV
Kinetic Energy     :          459.41253237 Eh           12501.25056 eV
Virial Ratio       :            2.00145311


DFT components:
N(Alpha)           :        8.999999945351 electrons
N(Beta)            :        7.999999945737 electrons
N(Total)           :       16.999999891088 electrons
E(X)               :      -20.450923567467 Eh       
E(C)               :       -0.874670770291 Eh       
NL Energy, E(C,NL) :        0.072944451348 Eh       
E(XC)              :      -21.252649886410 Eh       
DFET-embed. en.    :        0.000000000000 Eh       

---------------
SCF CONVERGENCE
---------------

  Last Energy change         ...   -5.6291e-09  Tolerance :   1.0000e-06
  Last MAX-Density change    ...    6.1703e-06  Tolerance :   1.0000e-05
  Last RMS-Density change    ...    3.1139e-07  Tolerance :   1.0000e-06
  Last DIIS Error            ...    3.7043e-06  Tolerance :   1.0000e-06

             **** THE GBW FILE WAS UPDATED (TMD05_Cl.gbw) ****
             **** DENSITY FILE WAS UPDATED (TMD05_Cl.scfp) ****
             **** ENERGY FILE WAS UPDATED (TMD05_Cl.en.tmp) ****
----------------------
UHF SPIN CONTAMINATION
----------------------

Warning: in a DFT calculation there is little theoretical justification to 
         calculate <S**2> as in Hartree-Fock theory. We will do it anyways
         but you should keep in mind that the values have only limited relevance

Expectation value of <S**2>     :     0.752927
Ideal value S*(S+1) for S=0.5   :     0.750000
Deviation                       :     0.002927

             **** THE GBW FILE WAS UPDATED (TMD05_Cl.gbw) ****
             **** DENSITY FILE WAS UPDATED (TMD05_Cl.scfp) ****
----------------
ORBITAL ENERGIES
----------------
                 SPIN UP ORBITALS
  NO   OCC          E(Eh)            E(eV) 
   0   1.0000    -101.573247     -2763.9486 
   1   1.0000      -9.609333      -261.4832 
   2   1.0000      -7.375277      -200.6915 
   3   1.0000      -7.352890      -200.0823 
   4   1.0000      -7.352890      -200.0823 
   5   1.0000      -0.977861       -26.6089 
   6   1.0000      -0.517924       -14.0934 
   7   1.0000      -0.465244       -12.6599 
   8   1.0000      -0.465244       -12.6599 
   9   0.0000       0.087891         2.3916 
  10   0.0000       0.094546         2.5727 
  11   0.0000       0.094546         2.5727 
  12   0.0000       0.115607         3.1458 
  13   0.0000       0.235180         6.3996 
  14   0.0000       0.239021         6.5041 
  15   0.0000       0.239021         6.5041 
  16   0.0000       0.251099         6.8327 
  17   0.0000       0.251099         6.8327 
  18   0.0000       0.513084        13.9617 
  19   0.0000       0.534731        14.5508 
  20   0.0000       0.534731        14.5508 
  21   0.0000       0.619631        16.8610 
  22   0.0000       0.628397        17.0996 
  23   0.0000       0.628397        17.0996 
  24   0.0000       0.658474        17.9180 
  25   0.0000       0.658474        17.9180 
  26   0.0000       0.882263        24.0076 
  27   0.0000       1.932818        52.5947 
  28   0.0000       1.941586        52.8332 
  29   0.0000       1.941586        52.8332 
  30   0.0000       1.970946        53.6322 
  31   0.0000       1.970946        53.6322 
  32   0.0000       2.116384        57.5897 
  33   0.0000       2.122395        57.7533 
  34   0.0000       2.122395        57.7533 
  35   0.0000       2.140516        58.2464 
  36   0.0000       2.140516        58.2464 
  37   0.0000       2.171533        59.0904 
  38   0.0000       2.171533        59.0904 
  39   0.0000       2.314867        62.9907 
  40   0.0000       2.356481        64.1231 
  41   0.0000       2.356481        64.1231 
  42   0.0000       8.157554       221.9783 
  43   0.0000       8.165440       222.1929 
  44   0.0000       8.165440       222.1929 
  45   0.0000       8.189327       222.8429 
  46   0.0000       8.189327       222.8429 
  47   0.0000      10.774438       293.1874 
  48   0.0000      10.808535       294.1152 
  49   0.0000      10.808535       294.1152 
  50   0.0000      24.368850       663.1101 

                 SPIN DOWN ORBITALS
  NO   OCC          E(Eh)            E(eV) 
   0   1.0000    -101.566613     -2763.7680 
   1   1.0000      -9.603973      -261.3374 
   2   1.0000      -7.355122      -200.1430 
   3   1.0000      -7.348862      -199.9727 
   4   1.0000      -7.348862      -199.9727 
   5   1.0000      -0.920051       -25.0358 
   6   1.0000      -0.449621       -12.2348 
   7   1.0000      -0.449621       -12.2348 
   8   0.0000      -0.150174        -4.0864 
   9   0.0000       0.095312         2.5936 
  10   0.0000       0.095312         2.5936 
  11   0.0000       0.096276         2.6198 
  12   0.0000       0.119795         3.2598 
  13   0.0000       0.251280         6.8377 
  14   0.0000       0.251280         6.8377 
  15   0.0000       0.251657         6.8479 
  16   0.0000       0.251657         6.8479 
  17   0.0000       0.252483         6.8704 
  18   0.0000       0.538001        14.6397 
  19   0.0000       0.538770        14.6607 
  20   0.0000       0.538770        14.6607 
  21   0.0000       0.664491        18.0817 
  22   0.0000       0.664491        18.0817 
  23   0.0000       0.666652        18.1405 
  24   0.0000       0.666652        18.1405 
  25   0.0000       0.669848        18.2275 
  26   0.0000       0.898887        24.4600 
  27   0.0000       1.967927        53.5500 
  28   0.0000       1.968579        53.5678 
  29   0.0000       1.968579        53.5678 
  30   0.0000       1.976025        53.7704 
  31   0.0000       1.976025        53.7704 
  32   0.0000       2.169500        59.0351 
  33   0.0000       2.170875        59.0725 
  34   0.0000       2.170875        59.0725 
  35   0.0000       2.171152        59.0801 
  36   0.0000       2.171152        59.0801 
  37   0.0000       2.176057        59.2135 
  38   0.0000       2.176057        59.2135 
  39   0.0000       2.364440        64.3397 
  40   0.0000       2.366864        64.4056 
  41   0.0000       2.366864        64.4056 
  42   0.0000       8.172413       222.3827 
  43   0.0000       8.176029       222.4811 
  44   0.0000       8.176029       222.4811 
  45   0.0000       8.190962       222.8874 
  46   0.0000       8.190962       222.8874 
  47   0.0000      10.804080       293.9940 
  48   0.0000      10.814479       294.2769 
  49   0.0000      10.814479       294.2769 
  50   0.0000      24.378189       663.3642 

                    ********************************
                    * MULLIKEN POPULATION ANALYSIS *
                    ********************************

--------------------------------------------
MULLIKEN ATOMIC CHARGES AND SPIN POPULATIONS
--------------------------------------------
   0 Cl:   -0.000000    1.000000
Sum of atomic charges         :   -0.0000000
Sum of atomic spin populations:    1.0000000

-----------------------------------------------------
MULLIKEN REDUCED ORBITAL CHARGES AND SPIN POPULATIONS
-----------------------------------------------------
CHARGE
  0 Cls       :     5.998660  s :     5.998660
      pz      :     3.000553  p :    10.999503
      px      :     3.999849
      py      :     3.999101
      dz2     :     0.001337  d :     0.001340
      dxz     :     0.000000
      dyz     :     0.000003
      dx2y2   :     0.000000
      dxy     :     0.000000
      f0      :     0.000208  f :     0.000497
      f+1     :     0.000144
      f-1     :     0.000144
      f+2     :     0.000000
      f-2     :     0.000000
      f+3     :     0.000000
      f-3     :     0.000000

SPIN
  0 Cls       :    -0.000868  s :    -0.000868
      pz      :     0.999031  p :     0.999505
      px      :    -0.000137
      py      :     0.000611
      dz2     :     0.000866  d :     0.000868
      dxz     :     0.000000
      dyz     :     0.000002
      dx2y2   :     0.000000
      dxy     :     0.000000
      f0      :     0.000208  f :     0.000495
      f+1     :     0.000143
      f-1     :     0.000143
      f+2     :     0.000000
      f-2     :     0.000000
      f+3     :     0.000000
      f-3     :     0.000000


                     *******************************
                     * LOEWDIN POPULATION ANALYSIS *
                     *******************************

-------------------------------------------
LOEWDIN ATOMIC CHARGES AND SPIN POPULATIONS
-------------------------------------------
   0 Cl:   -0.000000    1.000000

----------------------------------------------------
LOEWDIN REDUCED ORBITAL CHARGES AND SPIN POPULATIONS
----------------------------------------------------
CHARGE
  0 Cls       :     5.998660  s :     5.998660
      pz      :     3.000553  p :    10.999503
      px      :     3.999849
      py      :     3.999101
      dz2     :     0.001337  d :     0.001340
      dxz     :     0.000000
      dyz     :     0.000003
      dx2y2   :     0.000000
      dxy     :     0.000000
      f0      :     0.000208  f :     0.000497
      f+1     :     0.000144
      f-1     :     0.000144
      f+2     :     0.000000
      f-2     :     0.000000
      f+3     :     0.000000
      f-3     :     0.000000

SPIN
  0 Cls       :    -0.000868  s :    -0.000868
      pz      :     0.999031  p :     0.999505
      px      :    -0.000137
      py      :     0.000611
      dz2     :     0.000866  d :     0.000868
      dxz     :     0.000000
      dyz     :     0.000002
      dx2y2   :     0.000000
      dxy     :     0.000000
      f0      :     0.000208  f :     0.000495
      f+1     :     0.000143
      f-1     :     0.000143
      f+2     :     0.000000
      f-2     :     0.000000
      f+3     :     0.000000
      f-3     :     0.000000


                      *****************************
                      * MAYER POPULATION ANALYSIS *
                      *****************************

  NA   - Mulliken gross atomic population
  ZA   - Total nuclear charge
  QA   - Mulliken gross atomic charge
  VA   - Mayer's total valence
  BVA  - Mayer's bonded valence
  FA   - Mayer's free valence

  ATOM       NA         ZA         QA         VA         BVA        FA
  0 Cl    17.0000    17.0000    -0.0000     1.0059     0.0000     1.0059

  Mayer bond orders larger than 0.100000


-------
TIMINGS
-------

Total SCF time: 0 days 0 hours 0 min 1 sec 

Total time                  ....       1.482 sec
Sum of individual times     ....       1.295 sec  ( 87.4%)

Fock matrix formation       ....       1.109 sec  ( 74.8%)
  XC integration            ....       0.064 sec  (  5.7% of F)
    Basis function eval.    ....       0.004 sec  (  5.6% of XC)
    Density eval.           ....       0.004 sec  (  7.0% of XC)
    XC-Functional eval.     ....       0.005 sec  (  7.5% of XC)
    XC-Potential eval.      ....       0.004 sec  (  6.8% of XC)
Diagonalization             ....       0.008 sec  (  0.6%)
Density matrix formation    ....       0.003 sec  (  0.2%)
Population analysis         ....       0.003 sec  (  0.2%)
Initial guess               ....       0.103 sec  (  7.0%)
Orbital Transformation      ....       0.000 sec  (  0.0%)
Orbital Orthonormalization  ....       0.000 sec  (  0.0%)
DIIS solution               ....       0.005 sec  (  0.4%)
Grid generation             ....       0.063 sec  (  4.3%)

-------------------------   --------------------
FINAL SINGLE POINT ENERGY      -460.080109513254
-------------------------   --------------------


                            ***************************************
                            *     ORCA property calculations      *
                            ***************************************

                                    ---------------------
                                    Active property flags
                                    ---------------------
   (+) Dipole Moment


------------------------------------------------------------------------------
                       ORCA ELECTRIC PROPERTIES CALCULATION
------------------------------------------------------------------------------

Dipole Moment Calculation                       ... on
Quadrupole Moment Calculation                   ... off
Polarizability Calculation                      ... off
GBWName                                         ... TMD05_Cl.gbw
Electron density file                           ... TMD05_Cl.scfp
The origin for moment calculation is the CENTER OF MASS  = ( 0.000000,  0.000000  0.000000)

-------------
DIPOLE MOMENT
-------------
                                X             Y             Z
Electronic contribution:     -0.00000       0.00000       0.00000
Nuclear contribution   :      0.00000       0.00000       0.00000
                        -----------------------------------------
Total Dipole Moment    :     -0.00000       0.00000       0.00000
                        -----------------------------------------
Magnitude (a.u.)       :      0.00000
Magnitude (Debye)      :      0.00000



--------------------
Rotational spectrum 
--------------------
 
Rotational constants in cm-1:     0.000000     0.000000     0.000000 
Rotational constants in MHz :     0.000000     0.000000     0.000000 

 Dipole components along the rotational axes: 
x,y,z [a.u.] :    -0.000000     0.000000     0.000000 
x,y,z [Debye]:    -0.000000     0.000000     0.000000 

 

Timings for individual modules:

Sum of individual times         ...        2.461 sec (=   0.041 min)
GTO integral calculation        ...        0.635 sec (=   0.011 min)  25.8 %
SCF iterations                  ...        1.826 sec (=   0.030 min)  74.2 %
                             ****ORCA TERMINATED NORMALLY****
TOTAL RUN TIME: 0 days 0 hours 0 minutes 2 seconds 879 msec
