
                                 *****************
                                 * O   R   C   A *
                                 *****************

           --- An Ab Initio, DFT and Semiempirical electronic structure package ---

                  #######################################################
                  #                        -***-                        #
                  #          Department of theory and spectroscopy      #
                  #               Directorship: Frank Neese             #
                  #        Max Planck Institute fuer Kohlenforschung    #
                  #                Kaiser Wilhelm Platz 1               #
                  #                 D-45470 Muelheim/Ruhr               #
                  #                      Germany                        #
                  #                                                     #
                  #                  All rights reserved                #
                  #                        -***-                        #
                  #######################################################


                         Program Version 4.2.0 -  RELEASE  -


 With contributions from (in alphabetic order):
   Daniel Aravena         : Magnetic Suceptibility
   Michael Atanasov       : Ab Initio Ligand Field Theory (pilot matlab implementation)
   Alexander A. Auer      : GIAO ZORA, VPT2
   Ute Becker             : Parallelization
   Giovanni Bistoni       : ED, misc. LED, open-shell LED, HFLED
   Martin Brehm           : Molecular dynamics
   Dmytro Bykov           : SCF Hessian
   Vijay G. Chilkuri      : MRCI spin determinant printing, contributions to CSF-ICE
   Dipayan Datta          : RHF DLPNO-CCSD density
   Achintya Kumar Dutta   : EOM-CC, STEOM-CC
   Dmitry Ganyushin       : Spin-Orbit,Spin-Spin,Magnetic field MRCI
   Miquel Garcia          : C-PCM Hessian, Gaussian charge scheme
   Yang Guo               : DLPNO-NEVPT2, CIM, IAO-localization
   Andreas Hansen         : Spin unrestricted coupled pair/coupled cluster methods
   Benjamin Helmich-Paris : CASSCF linear response (MC-RPA)
   Lee Huntington         : MR-EOM, pCC
   Robert Izsak           : Overlap fitted RIJCOSX, COSX-SCS-MP3, EOM
   Christian Kollmar      : KDIIS, OOCD, Brueckner-CCSD(T), CCSD density
   Simone Kossmann        : Meta GGA functionals, TD-DFT gradient, OOMP2, MP2 Hessian
   Martin Krupicka        : AUTO-CI
   Lucas Lang             : DCDCAS
   Dagmar Lenk            : GEPOL surface, SMD
   Dimitrios Liakos       : Extrapolation schemes; Compound Job, initial MDCI parallelization
   Dimitrios Manganas     : Further ROCIS development; embedding schemes
   Dimitrios Pantazis     : SARC Basis sets
   Taras Petrenko         : DFT Hessian,TD-DFT gradient, ASA, ECA, R-Raman, ABS, FL, XAS/XES, NRVS
   Peter Pinski           : DLPNO-MP2, DLPNO-MP2 Gradient
   Christoph Reimann      : Effective Core Potentials
   Marius Retegan         : Local ZFS, SOC
   Christoph Riplinger    : Optimizer, TS searches, QM/MM, DLPNO-CCSD(T), (RO)-DLPNO pert. Triples
   Tobias Risthaus        : Range-separated hybrids, TD-DFT gradient, RPA, STAB
   Michael Roemelt        : Original ROCIS implementation
   Masaaki Saitow         : Open-shell DLPNO-CCSD energy and density
   Barbara Sandhoefer     : DKH picture change effects
   Avijit Sen             : IP-ROCIS
   Kantharuban Sivalingam : CASSCF convergence, NEVPT2, FIC-MRCI
   Bernardo de Souza      : ESD, SOC TD-DFT
   Georgi Stoychev        : AutoAux, RI-MP2 NMR
   Willem Van den Heuvel  : Paramagnetic NMR
   Boris Wezisla          : Elementary symmetry handling
   Frank Wennmohs         : Technical directorship


 We gratefully acknowledge several colleagues who have allowed us to
 interface, adapt or use parts of their codes:
   Stefan Grimme, W. Hujo, H. Kruse,             : VdW corrections, initial TS optimization,
                  C. Bannwarth                     DFT functionals, gCP, sTDA/sTD-DF
   Ed Valeev, F. Pavosevic, A. Kumar             : LibInt (2-el integral package), F12 methods
   Garnet Chan, S. Sharma, J. Yang, R. Olivares  : DMRG
   Ulf Ekstrom                                   : XCFun DFT Library
   Mihaly Kallay                                 : mrcc  (arbitrary order and MRCC methods)
   Andreas Klamt, Michael Diedenhofen            : otool_cosmo (COSMO solvation model)
   Jiri Pittner, Ondrej Demel                    : Mk-CCSD
   Frank Weinhold                                : gennbo (NPA and NBO analysis)
   Christopher J. Cramer and Donald G. Truhlar   : smd solvation model
   Lars Goerigk                                  : TD-DFT with DH, B97 family of functionals
   V. Asgeirsson, H. Jonsson                     : NEB implementation
   FAccTs GmbH                                   : IRC, NEB, NEB-TS, Multilevel, MM, QM/MM, CI optimization
   S Lehtola, MJT Oliveira, MAL Marques          : LibXC Library


 Your calculation uses the libint2 library for the computation of 2-el integrals
 For citations please refer to: http://libint.valeyev.net

 Your ORCA version has been built with support for libXC version: 4.2.3
 For citations please refer to: https://tddft.org/programs/libxc/

 This ORCA versions uses:
   CBLAS   interface :  Fast vector & matrix operations
   LAPACKE interface :  Fast linear algebra routines
   SCALAPACK package :  Parallel linear algebra routines


Your calculation utilizes the DFT-NL dispersion correction.
Cite in your paper:
Vydrov, O. A.; Van Voorhis, T. J. Chem. Phys. 2010, 133, 244103
Hujo, W.; Grimme, S. J. Chem. Theory Comput. 2011, 7, 3866 
   

----- Orbital basis set information -----
Your calculation utilizes the basis: def2-TZVPPD
   F. Weigend and R. Ahlrichs, Phys. Chem. Chem. Phys. 7, 3297 (2005).
   D. Rappoport and F. Furche, J. Chem. Phys. 133 134105 (2010).

----- AuxJK basis set information -----
Your calculation utilizes the auxiliary basis: def2/JK
   H-Ba, Hf-Rn: F. Weigend, J. Comput. Chem. 29, 167 (2008).

================================================================================
                                        WARNINGS
                       Please study these warnings very carefully!
================================================================================


WARNING: your system is open-shell and RHF/RKS was chosen
  ===> : WILL SWITCH to UHF/UKS


INFO   : the flag for use of LIBINT has been found!

================================================================================
                                       INPUT FILE
================================================================================
NAME = TMD06_Br.in
|  1> #
|  2> # TMD06_Br wB97X-V/Def2-TZVPPD
|  3> #
|  4> ! wb97x-v def2-tzvppd def2/jk grid4 nofinalgrid
|  5> 
|  6> *xyz 0 2
|  7> Br       0.000000    0.000000    0.000000 
|  8> *
|  9> 
| 10> %maxcore 5000
| 11> 
| 12> %pal
| 13> nprocs = 24
| 14> end
| 15> 
| 16> 
| 17>                          ****END OF INPUT****
================================================================================

                       ****************************
                       * Single Point Calculation *
                       ****************************

---------------------------------
CARTESIAN COORDINATES (ANGSTROEM)
---------------------------------
  Br     0.000000    0.000000    0.000000

----------------------------
CARTESIAN COORDINATES (A.U.)
----------------------------
  NO LB      ZA    FRAG     MASS         X           Y           Z
   0 Br   35.0000    0    79.900    0.000000    0.000000    0.000000

--------------------------------
INTERNAL COORDINATES (ANGSTROEM)
--------------------------------
 Br     0   0   0     0.000000000000     0.00000000     0.00000000

---------------------------
INTERNAL COORDINATES (A.U.)
---------------------------
 Br     0   0   0     0.000000000000     0.00000000     0.00000000

---------------------
BASIS SET INFORMATION
---------------------
There are 1 groups of distinct atoms

 Group   1 Type Br  : 18s14p9d1f contracted to 7s6p5d1f pattern {8421111/641111/51111/1}

Atom   0Br   basis set group =>   1
----------------------------------
AUXILIARY/JK BASIS SET INFORMATION
----------------------------------
There are 1 groups of distinct atoms

 Group   1 Type Br  : 20s14p13d10f7g3h contracted to 17s13p12d9f6g3h pattern {41111111111111111/2111111111111/211111111111/211111111/211111/111}

Atom   0Br   basis set group =>   1


           ************************************************************
           *        Program running with 24 parallel MPI-processes    *
           *              working on a common directory               *
           ************************************************************
------------------------------------------------------------------------------
                           ORCA GTO INTEGRAL CALCULATION
------------------------------------------------------------------------------

                         BASIS SET STATISTICS AND STARTUP INFO

 # of primitive gaussian shells          ...   42
 # of primitive gaussian functions       ...  112
 # of contracted shells                  ...   19
 # of contracted basis functions         ...   57
 Highest angular momentum                ...    3
 Maximum contraction depth               ...    8
 Integral package used                   ... LIBINT
 Integral threshhold            Thresh   ...  1.000e-10
 Primitive cut-off              TCut     ...  1.000e-11


------------------------------ INTEGRAL EVALUATION ----------------------------


 * One electron integrals 
 Pre-screening matrix                    ... done
 Shell pair data                         ... done (   0.000 sec)



           ************************************************************
           *        Program running with 24 parallel MPI-processes    *
           *              working on a common directory               *
           ************************************************************
-------------------------------------------------------------------------------
                                 ORCA SCF
-------------------------------------------------------------------------------

------------
SCF SETTINGS
------------
Hamiltonian:
 Density Functional     Method          .... DFT(GTOs)
 Exchange Functional    Exchange        .... WB97X-V
 Correlation Functional Correlation     .... WB97X-V
 Gradients option       PostSCFGGA      .... off
 Hybrid DFT is turned on
   Fraction HF Exchange ScalHFX         ....  0.167000
   Scaling of DF-GGA-X  ScalDFX         ....  0.000000
   Scaling of DF-GGA-C  ScalDFC         ....  1.000000
   Scaling of DF-LDA-C  ScalLDAC        ....  1.000000
   Perturbative correction              ....  0.000000
   Density functional embedding theory  .... OFF
 Long-range corrected/Screened/Range-Separated Hybrid DFT is turned on
   Amount of maximum screened exact exchange              ....  0.833000
   Range separation parameter mu (erf(mu*r12)/r12)        ....  0.300000
   NL short-range parameter             ....  6.000000
   NL long-range parameter              ....  0.010000


General Settings:
 Integral files         IntName         .... TMD06_Br
 Hartree-Fock type      HFTyp           .... UHF
 Total Charge           Charge          ....    0
 Multiplicity           Mult            ....    2
 Number of Electrons    NEL             ....   35
 Basis Dimension        Dim             ....   57
 Nuclear Repulsion      ENuc            ....      0.0000000000 Eh

Convergence Acceleration:
 DIIS                   CNVDIIS         .... on
   Start iteration      DIISMaxIt       ....    12
   Startup error        DIISStart       ....  0.200000
   # of expansion vecs  DIISMaxEq       ....     5
   Bias factor          DIISBfac        ....   1.050
   Max. coefficient     DIISMaxC        ....  10.000
 Newton-Raphson         CNVNR           .... off
 SOSCF                  CNVSOSCF        .... off
 Level Shifting         CNVShift        .... on
   Level shift para.    LevelShift      ....    0.2500
   Turn off err/grad.   ShiftErr        ....    0.0010
 Zerner damping         CNVZerner       .... off
 Static damping         CNVDamp         .... on
   Fraction old density DampFac         ....    0.7000
   Max. Damping (<1)    DampMax         ....    0.9800
   Min. Damping (>=0)   DampMin         ....    0.0000
   Turn off err/grad.   DampErr         ....    0.1000
 Fernandez-Rico         CNVRico         .... off

SCF Procedure:
 Maximum # iterations   MaxIter         ....   125
 SCF integral mode      SCFMode         .... Direct
   Integral package                     .... LIBINT
 Reset frequency        DirectResetFreq ....    20
 Integral Threshold     Thresh          ....  1.000e-10 Eh
 Primitive CutOff       TCut            ....  1.000e-11 Eh

Convergence Tolerance:
 Convergence Check Mode ConvCheckMode   .... Total+1el-Energy
 Convergence forced     ConvForced      .... 0
 Energy Change          TolE            ....  1.000e-06 Eh
 1-El. energy change                    ....  1.000e-03 Eh
 DIIS Error             TolErr          ....  1.000e-06


Diagonalization of the overlap matrix:
Smallest eigenvalue                        ... 1.948e-02
Time for diagonalization                   ...    0.002 sec
Threshold for overlap eigenvalues          ... 1.000e-08
Number of eigenvalues below threshold      ... 0
Time for construction of square roots      ...    0.001 sec
Total time needed                          ...    0.003 sec

-------------------
DFT GRID GENERATION
-------------------

General Integration Accuracy     IntAcc      ...  4.670
Radial Grid Type                 RadialGrid  ... Gauss-Chebyshev
Angular Grid (max. acc.)         AngularGrid ... Lebedev-302
Angular grid pruning method      GridPruning ... 3 (G Style)
Weight generation scheme         WeightScheme... Becke
Basis function cutoff            BFCut       ...    1.0000e-10
Integration weight cutoff        WCut        ...    1.0000e-14
Grids for H and He will be reduced by one unit

# of grid points (after initial pruning)     ...   9616 (   0.0 sec)
# of grid points (after weights+screening)   ...   9616 (   0.0 sec)
Grid point division into batches done        ...    0.1 sec
Reduced shell lists constructed in    0.1 sec

Total number of grid points                  ...     9616
Total number of batches                      ...      151
Average number of points per batch           ...       63
Average number of grid points per atom       ...     9616
Average number of shells per batch           ...     5.25 (27.63%)
Average number of basis functions per batch  ...    15.75 (27.63%)
Average number of large shells per batch     ...     3.50 (66.67%)
Average number of large basis fcns per batch ...    10.50 (66.67%)
Maximum spatial batch extension              ...  20.96, 16.71, 16.71 au
Average spatial batch extension              ...   0.72,  0.66,  0.65 au

Time for grid setup =    0.122 sec

------------------------------
INITIAL GUESS: MODEL POTENTIAL
------------------------------
Loading Hartree-Fock densities                     ... done
Calculating cut-offs                               ... done
Setting up the integral package                    ... done
Initializing the effective Hamiltonian             ... done
Starting the Coulomb interaction                   ... done (   0.0 sec)
Reading the grid                                   ... done
Mapping shells                                     ... done
Starting the XC term evaluation                    ... done (   0.0 sec)
  promolecular density results
     # of electrons  =     34.999995890
     EX              =    -69.248211915
     EC              =     -2.258991047
     EX+EC           =    -71.507202962
Transforming the Hamiltonian                       ... done (   0.0 sec)
Diagonalizing the Hamiltonian                      ... done (   0.0 sec)
Back transforming the eigenvectors                 ... done (   0.0 sec)
Now organizing SCF variables                       ... done
                      ------------------
                      INITIAL GUESS DONE (   0.2 sec)
                      ------------------
--------------
SCF ITERATIONS
--------------
ITER       Energy         Delta-E        Max-DP      RMS-DP      [F,P]     Damp
               ***  Starting incremental Fock matrix formation  ***
  0  -2573.7844671837   0.000000000000 0.05618007  0.00248270  0.5278055 0.7000
  1  -2573.8788230372  -0.094355853492 0.03603041  0.00156553  0.2658450 0.7000
                               ***Turning on DIIS***
  2  -2573.9279508660  -0.049127828838 0.01561314  0.00086487  0.1215936 0.7000
  3  -2573.9575184569  -0.029567590933 0.04602082  0.00161134  0.0529622 0.0000
  4  -2574.0224042319  -0.064885774944 0.01998941  0.00051946  0.0116928 0.0000
  5  -2574.0229500742  -0.000545842342 0.00628110  0.00017864  0.0030514 0.0000
  6  -2574.0230230362  -0.000072961962 0.00115603  0.00005390  0.0014912 0.0000
  7  -2574.0230350805  -0.000012044290 0.00079515  0.00003425  0.0005836 0.0000
  8  -2574.0230373061  -0.000002225588 0.00005128  0.00000255  0.0000522 0.0000
                 **** Energy Check signals convergence ****

               *****************************************************
               *                     SUCCESS                       *
               *           SCF CONVERGED AFTER   9 CYCLES          *
               *****************************************************


Setting up the DFT-NL grid :

General Integration Accuracy     IntAcc      ...  4.340
Radial Grid Type                 RadialGrid  ... Gauss-Chebyshev
Angular Grid (max. acc.)         AngularGrid ... Lebedev-110
Angular grid pruning method      GridPruning ... 3 (G Style)
Weight generation scheme         WeightScheme... Becke
Basis function cutoff            BFCut       ...    1.0000e-10
Integration weight cutoff        WCut        ...    1.0000e-14
Grids for H and He will be reduced by one unit

# of grid points (after initial pruning)     ...   2890 (   0.0 sec)
# of grid points (after weights+screening)   ...   2890 (   0.0 sec)
Grid point division into batches done        ...    0.0 sec
Reduced shell lists constructed in    0.0 sec

Total number of grid points                  ...     2890
Total number of batches                      ...       46
Average number of points per batch           ...       62
Average number of grid points per atom       ...     2890
Average number of shells per batch           ...     7.33 (38.60%)
Average number of basis functions per batch  ...    24.67 (43.27%)
Average number of large shells per batch     ...     6.67 (90.91%)
Average number of large basis fcns per batch ...    22.67 (91.89%)
Maximum spatial batch extension              ...  14.66, 21.55, 21.55 au
Average spatial batch extension              ...   0.64,  0.94,  0.94 au

Final grid set up in    0.0 sec

-------------------------------------------------------------------------------
                         DFT-NL dispersion correction                          
-------------------------------------------------------------------------------

SC Energy -2574.023037320 
NL    Energy 0.148618478 
SC+NL Energy -2573.874418842 
NL done in    0.0 sec
-------------------------------------------------------------------------------

----------------
TOTAL SCF ENERGY
----------------

Total Energy       :        -2573.87441884 Eh          -70038.68363 eV

Components:
Nuclear Repulsion  :            0.00000000 Eh               0.00000 eV
Electronic Energy  :        -2573.87441884 Eh          -70038.68363 eV
One Electron Energy:        -3581.14131216 Eh          -97447.80925 eV
Two Electron Energy:         1007.26689332 Eh           27409.12562 eV

Virial components:
Potential Energy   :        -5144.36219661 Eh         -139985.21208 eV
Kinetic Energy     :         2570.48777777 Eh           69946.52845 eV
Virial Ratio       :            2.00131751


DFT components:
N(Alpha)           :       18.000000188311 electrons
N(Beta)            :       17.000000186719 electrons
N(Total)           :       35.000000375030 electrons
E(X)               :      -69.212039846987 Eh       
E(C)               :       -2.250534455594 Eh       
NL Energy, E(C,NL) :        0.148618478474 Eh       
E(XC)              :      -71.313955824107 Eh       
DFET-embed. en.    :        0.000000000000 Eh       

---------------
SCF CONVERGENCE
---------------

  Last Energy change         ...   -1.3917e-08  Tolerance :   1.0000e-06
  Last MAX-Density change    ...    1.4061e-05  Tolerance :   1.0000e-05
  Last RMS-Density change    ...    5.1081e-07  Tolerance :   1.0000e-06
  Last DIIS Error            ...    4.5607e-06  Tolerance :   1.0000e-06

             **** THE GBW FILE WAS UPDATED (TMD06_Br.gbw) ****
             **** DENSITY FILE WAS UPDATED (TMD06_Br.scfp) ****
             **** ENERGY FILE WAS UPDATED (TMD06_Br.en.tmp) ****
----------------------
UHF SPIN CONTAMINATION
----------------------

Warning: in a DFT calculation there is little theoretical justification to 
         calculate <S**2> as in Hartree-Fock theory. We will do it anyways
         but you should keep in mind that the values have only limited relevance

Expectation value of <S**2>     :     0.752419
Ideal value S*(S+1) for S=0.5   :     0.750000
Deviation                       :     0.002419

             **** THE GBW FILE WAS UPDATED (TMD06_Br.gbw) ****
             **** DENSITY FILE WAS UPDATED (TMD06_Br.scfp) ****
----------------
ORBITAL ENERGIES
----------------
                 SPIN UP ORBITALS
  NO   OCC          E(Eh)            E(eV) 
   0   1.0000    -482.693465    -13134.7569 
   1   1.0000     -62.567079     -1702.5368 
   2   1.0000     -56.376336     -1534.0781 
   3   1.0000     -56.368616     -1533.8680 
   4   1.0000     -56.368616     -1533.8680 
   5   1.0000      -8.836247      -240.4465 
   6   1.0000      -6.673484      -181.5947 
   7   1.0000      -6.651937      -181.0084 
   8   1.0000      -6.651937      -181.0084 
   9   1.0000      -2.792519       -75.9883 
  10   1.0000      -2.787216       -75.8440 
  11   1.0000      -2.787216       -75.8440 
  12   1.0000      -2.771342       -75.4121 
  13   1.0000      -2.771342       -75.4121 
  14   1.0000      -0.923991       -25.1431 
  15   1.0000      -0.476142       -12.9565 
  16   1.0000      -0.429381       -11.6840 
  17   1.0000      -0.429381       -11.6840 
  18   0.0000       0.071277         1.9395 
  19   0.0000       0.077196         2.1006 
  20   0.0000       0.077196         2.1006 
  21   0.0000       0.098931         2.6921 
  22   0.0000       0.184797         5.0286 
  23   0.0000       0.187611         5.1052 
  24   0.0000       0.187611         5.1052 
  25   0.0000       0.196469         5.3462 
  26   0.0000       0.196469         5.3462 
  27   0.0000       0.399569        10.8728 
  28   0.0000       0.417466        11.3598 
  29   0.0000       0.417466        11.3598 
  30   0.0000       0.501160        13.6373 
  31   0.0000       0.507836        13.8189 
  32   0.0000       0.507836        13.8189 
  33   0.0000       0.529809        14.4168 
  34   0.0000       0.529809        14.4168 
  35   0.0000       0.816527        22.2188 
  36   0.0000       1.548682        42.1418 
  37   0.0000       1.556751        42.3613 
  38   0.0000       1.556751        42.3613 
  39   0.0000       1.569795        42.7163 
  40   0.0000       1.575011        42.8582 
  41   0.0000       1.575011        42.8582 
  42   0.0000       1.583540        43.0903 
  43   0.0000       1.583540        43.0903 
  44   0.0000       1.590990        43.2930 
  45   0.0000       1.590990        43.2930 
  46   0.0000       1.618724        44.0477 
  47   0.0000       1.618724        44.0477 
  48   0.0000       1.707726        46.4696 
  49   0.0000       1.742199        47.4076 
  50   0.0000       1.742199        47.4076 
  51   0.0000       4.174449       113.5925 
  52   0.0000       4.183238       113.8317 
  53   0.0000       4.183238       113.8317 
  54   0.0000       4.210206       114.5655 
  55   0.0000       4.210206       114.5655 
  56   0.0000       7.254673       197.4097 

                 SPIN DOWN ORBITALS
  NO   OCC          E(Eh)            E(eV) 
   0   1.0000    -482.691084    -13134.6921 
   1   1.0000     -62.565838     -1702.5030 
   2   1.0000     -56.370933     -1533.9311 
   3   1.0000     -56.367543     -1533.8388 
   4   1.0000     -56.367543     -1533.8388 
   5   1.0000      -8.832958      -240.3570 
   6   1.0000      -6.664151      -181.3408 
   7   1.0000      -6.650465      -180.9684 
   8   1.0000      -6.650465      -180.9684 
   9   1.0000      -2.785333       -75.7928 
  10   1.0000      -2.781748       -75.6952 
  11   1.0000      -2.781748       -75.6952 
  12   1.0000      -2.770481       -75.3886 
  13   1.0000      -2.770481       -75.3886 
  14   1.0000      -0.873681       -23.7741 
  15   1.0000      -0.416326       -11.3288 
  16   1.0000      -0.416326       -11.3288 
  17   0.0000      -0.140262        -3.8167 
  18   0.0000       0.077852         2.1185 
  19   0.0000       0.077852         2.1185 
  20   0.0000       0.078161         2.1269 
  21   0.0000       0.102714         2.7950 
  22   0.0000       0.195569         5.3217 
  23   0.0000       0.195569         5.3217 
  24   0.0000       0.196646         5.3510 
  25   0.0000       0.196646         5.3510 
  26   0.0000       0.196831         5.3560 
  27   0.0000       0.418008        11.3746 
  28   0.0000       0.420126        11.4322 
  29   0.0000       0.420126        11.4322 
  30   0.0000       0.533245        14.5103 
  31   0.0000       0.533245        14.5103 
  32   0.0000       0.534302        14.5391 
  33   0.0000       0.534365        14.5408 
  34   0.0000       0.534365        14.5408 
  35   0.0000       0.829170        22.5629 
  36   0.0000       1.581551        43.0362 
  37   0.0000       1.582230        43.0547 
  38   0.0000       1.582230        43.0547 
  39   0.0000       1.588439        43.2236 
  40   0.0000       1.588439        43.2236 
  41   0.0000       1.614239        43.9257 
  42   0.0000       1.616007        43.9738 
  43   0.0000       1.616007        43.9738 
  44   0.0000       1.617435        44.0126 
  45   0.0000       1.617435        44.0126 
  46   0.0000       1.622746        44.1572 
  47   0.0000       1.622746        44.1572 
  48   0.0000       1.739290        47.3285 
  49   0.0000       1.749001        47.5927 
  50   0.0000       1.749001        47.5927 
  51   0.0000       4.199055       114.2621 
  52   0.0000       4.202394       114.3530 
  53   0.0000       4.202394       114.3530 
  54   0.0000       4.214021       114.6693 
  55   0.0000       4.214021       114.6693 
  56   0.0000       7.263996       197.6634 

                    ********************************
                    * MULLIKEN POPULATION ANALYSIS *
                    ********************************

--------------------------------------------
MULLIKEN ATOMIC CHARGES AND SPIN POPULATIONS
--------------------------------------------
   0 Br:   -0.000000    1.000000
Sum of atomic charges         :   -0.0000000
Sum of atomic spin populations:    1.0000000

-----------------------------------------------------
MULLIKEN REDUCED ORBITAL CHARGES AND SPIN POPULATIONS
-----------------------------------------------------
CHARGE
  0 Brs       :     7.998963  s :     7.998963
      pz      :     5.020436  p :    16.999294
      px      :     5.994289
      py      :     5.984568
      dz2     :     2.000974  d :    10.001037
      dxz     :     2.000017
      dyz     :     2.000046
      dx2y2   :     2.000000
      dxy     :     2.000000
      f0      :     0.000282  f :     0.000706
      f+1     :     0.000199
      f-1     :     0.000204
      f+2     :     0.000010
      f-2     :     0.000011
      f+3     :     0.000000
      f-3     :     0.000000

SPIN
  0 Brs       :    -0.000632  s :    -0.000632
      pz      :     0.978981  p :     0.999303
      px      :     0.005301
      py      :     0.015020
      dz2     :     0.000594  d :     0.000632
      dxz     :     0.000010
      dyz     :     0.000028
      dx2y2   :     0.000000
      dxy     :     0.000000
      f0      :     0.000282  f :     0.000697
      f+1     :     0.000195
      f-1     :     0.000200
      f+2     :     0.000010
      f-2     :     0.000010
      f+3     :     0.000000
      f-3     :     0.000000


                     *******************************
                     * LOEWDIN POPULATION ANALYSIS *
                     *******************************

-------------------------------------------
LOEWDIN ATOMIC CHARGES AND SPIN POPULATIONS
-------------------------------------------
   0 Br:   -0.000000    1.000000

----------------------------------------------------
LOEWDIN REDUCED ORBITAL CHARGES AND SPIN POPULATIONS
----------------------------------------------------
CHARGE
  0 Brs       :     7.998963  s :     7.998963
      pz      :     5.020436  p :    16.999294
      px      :     5.994289
      py      :     5.984568
      dz2     :     2.000974  d :    10.001037
      dxz     :     2.000017
      dyz     :     2.000046
      dx2y2   :     2.000000
      dxy     :     2.000000
      f0      :     0.000282  f :     0.000706
      f+1     :     0.000199
      f-1     :     0.000204
      f+2     :     0.000010
      f-2     :     0.000011
      f+3     :     0.000000
      f-3     :     0.000000

SPIN
  0 Brs       :    -0.000632  s :    -0.000632
      pz      :     0.978981  p :     0.999303
      px      :     0.005301
      py      :     0.015020
      dz2     :     0.000594  d :     0.000632
      dxz     :     0.000010
      dyz     :     0.000028
      dx2y2   :     0.000000
      dxy     :     0.000000
      f0      :     0.000282  f :     0.000697
      f+1     :     0.000195
      f-1     :     0.000200
      f+2     :     0.000010
      f-2     :     0.000010
      f+3     :     0.000000
      f-3     :     0.000000


                      *****************************
                      * MAYER POPULATION ANALYSIS *
                      *****************************

  NA   - Mulliken gross atomic population
  ZA   - Total nuclear charge
  QA   - Mulliken gross atomic charge
  VA   - Mayer's total valence
  BVA  - Mayer's bonded valence
  FA   - Mayer's free valence

  ATOM       NA         ZA         QA         VA         BVA        FA
  0 Br    35.0000    35.0000    -0.0000     1.0048     0.0000     1.0048

  Mayer bond orders larger than 0.100000


-------
TIMINGS
-------

Total SCF time: 0 days 0 hours 0 min 1 sec 

Total time                  ....       1.717 sec
Sum of individual times     ....       1.524 sec  ( 88.8%)

Fock matrix formation       ....       1.288 sec  ( 75.1%)
  XC integration            ....       0.080 sec  (  6.2% of F)
    Basis function eval.    ....       0.007 sec  (  8.7% of XC)
    Density eval.           ....       0.006 sec  (  7.1% of XC)
    XC-Functional eval.     ....       0.007 sec  (  8.7% of XC)
    XC-Potential eval.      ....       0.008 sec  ( 10.4% of XC)
Diagonalization             ....       0.010 sec  (  0.6%)
Density matrix formation    ....       0.003 sec  (  0.2%)
Population analysis         ....       0.003 sec  (  0.2%)
Initial guess               ....       0.083 sec  (  4.8%)
Orbital Transformation      ....       0.000 sec  (  0.0%)
Orbital Orthonormalization  ....       0.000 sec  (  0.0%)
DIIS solution               ....       0.005 sec  (  0.3%)
Grid generation             ....       0.132 sec  (  7.7%)

-------------------------   --------------------
FINAL SINGLE POINT ENERGY     -2573.874418841518
-------------------------   --------------------


                            ***************************************
                            *     ORCA property calculations      *
                            ***************************************

                                    ---------------------
                                    Active property flags
                                    ---------------------
   (+) Dipole Moment


------------------------------------------------------------------------------
                       ORCA ELECTRIC PROPERTIES CALCULATION
------------------------------------------------------------------------------

Dipole Moment Calculation                       ... on
Quadrupole Moment Calculation                   ... off
Polarizability Calculation                      ... off
GBWName                                         ... TMD06_Br.gbw
Electron density file                           ... TMD06_Br.scfp
The origin for moment calculation is the CENTER OF MASS  = ( 0.000000,  0.000000  0.000000)

-------------
DIPOLE MOMENT
-------------
                                X             Y             Z
Electronic contribution:     -0.00000       0.00000       0.00000
Nuclear contribution   :      0.00000       0.00000       0.00000
                        -----------------------------------------
Total Dipole Moment    :     -0.00000       0.00000       0.00000
                        -----------------------------------------
Magnitude (a.u.)       :      0.00000
Magnitude (Debye)      :      0.00000



--------------------
Rotational spectrum 
--------------------
 
Rotational constants in cm-1:     0.000000     0.000000     0.000000 
Rotational constants in MHz :     0.000000     0.000000     0.000000 

 Dipole components along the rotational axes: 
x,y,z [a.u.] :    -0.000000     0.000000     0.000000 
x,y,z [Debye]:    -0.000000     0.000000     0.000000 

 

Timings for individual modules:

Sum of individual times         ...        2.727 sec (=   0.045 min)
GTO integral calculation        ...        0.638 sec (=   0.011 min)  23.4 %
SCF iterations                  ...        2.089 sec (=   0.035 min)  76.6 %
                             ****ORCA TERMINATED NORMALLY****
TOTAL RUN TIME: 0 days 0 hours 0 minutes 3 seconds 165 msec
