
                                 *****************
                                 * O   R   C   A *
                                 *****************

           --- An Ab Initio, DFT and Semiempirical electronic structure package ---

                  #######################################################
                  #                        -***-                        #
                  #          Department of theory and spectroscopy      #
                  #               Directorship: Frank Neese             #
                  #        Max Planck Institute fuer Kohlenforschung    #
                  #                Kaiser Wilhelm Platz 1               #
                  #                 D-45470 Muelheim/Ruhr               #
                  #                      Germany                        #
                  #                                                     #
                  #                  All rights reserved                #
                  #                        -***-                        #
                  #######################################################


                         Program Version 4.2.0 -  RELEASE  -


 With contributions from (in alphabetic order):
   Daniel Aravena         : Magnetic Suceptibility
   Michael Atanasov       : Ab Initio Ligand Field Theory (pilot matlab implementation)
   Alexander A. Auer      : GIAO ZORA, VPT2
   Ute Becker             : Parallelization
   Giovanni Bistoni       : ED, misc. LED, open-shell LED, HFLED
   Martin Brehm           : Molecular dynamics
   Dmytro Bykov           : SCF Hessian
   Vijay G. Chilkuri      : MRCI spin determinant printing, contributions to CSF-ICE
   Dipayan Datta          : RHF DLPNO-CCSD density
   Achintya Kumar Dutta   : EOM-CC, STEOM-CC
   Dmitry Ganyushin       : Spin-Orbit,Spin-Spin,Magnetic field MRCI
   Miquel Garcia          : C-PCM Hessian, Gaussian charge scheme
   Yang Guo               : DLPNO-NEVPT2, CIM, IAO-localization
   Andreas Hansen         : Spin unrestricted coupled pair/coupled cluster methods
   Benjamin Helmich-Paris : CASSCF linear response (MC-RPA)
   Lee Huntington         : MR-EOM, pCC
   Robert Izsak           : Overlap fitted RIJCOSX, COSX-SCS-MP3, EOM
   Christian Kollmar      : KDIIS, OOCD, Brueckner-CCSD(T), CCSD density
   Simone Kossmann        : Meta GGA functionals, TD-DFT gradient, OOMP2, MP2 Hessian
   Martin Krupicka        : AUTO-CI
   Lucas Lang             : DCDCAS
   Dagmar Lenk            : GEPOL surface, SMD
   Dimitrios Liakos       : Extrapolation schemes; Compound Job, initial MDCI parallelization
   Dimitrios Manganas     : Further ROCIS development; embedding schemes
   Dimitrios Pantazis     : SARC Basis sets
   Taras Petrenko         : DFT Hessian,TD-DFT gradient, ASA, ECA, R-Raman, ABS, FL, XAS/XES, NRVS
   Peter Pinski           : DLPNO-MP2, DLPNO-MP2 Gradient
   Christoph Reimann      : Effective Core Potentials
   Marius Retegan         : Local ZFS, SOC
   Christoph Riplinger    : Optimizer, TS searches, QM/MM, DLPNO-CCSD(T), (RO)-DLPNO pert. Triples
   Tobias Risthaus        : Range-separated hybrids, TD-DFT gradient, RPA, STAB
   Michael Roemelt        : Original ROCIS implementation
   Masaaki Saitow         : Open-shell DLPNO-CCSD energy and density
   Barbara Sandhoefer     : DKH picture change effects
   Avijit Sen             : IP-ROCIS
   Kantharuban Sivalingam : CASSCF convergence, NEVPT2, FIC-MRCI
   Bernardo de Souza      : ESD, SOC TD-DFT
   Georgi Stoychev        : AutoAux, RI-MP2 NMR
   Willem Van den Heuvel  : Paramagnetic NMR
   Boris Wezisla          : Elementary symmetry handling
   Frank Wennmohs         : Technical directorship


 We gratefully acknowledge several colleagues who have allowed us to
 interface, adapt or use parts of their codes:
   Stefan Grimme, W. Hujo, H. Kruse,             : VdW corrections, initial TS optimization,
                  C. Bannwarth                     DFT functionals, gCP, sTDA/sTD-DF
   Ed Valeev, F. Pavosevic, A. Kumar             : LibInt (2-el integral package), F12 methods
   Garnet Chan, S. Sharma, J. Yang, R. Olivares  : DMRG
   Ulf Ekstrom                                   : XCFun DFT Library
   Mihaly Kallay                                 : mrcc  (arbitrary order and MRCC methods)
   Andreas Klamt, Michael Diedenhofen            : otool_cosmo (COSMO solvation model)
   Jiri Pittner, Ondrej Demel                    : Mk-CCSD
   Frank Weinhold                                : gennbo (NPA and NBO analysis)
   Christopher J. Cramer and Donald G. Truhlar   : smd solvation model
   Lars Goerigk                                  : TD-DFT with DH, B97 family of functionals
   V. Asgeirsson, H. Jonsson                     : NEB implementation
   FAccTs GmbH                                   : IRC, NEB, NEB-TS, Multilevel, MM, QM/MM, CI optimization
   S Lehtola, MJT Oliveira, MAL Marques          : LibXC Library


 Your calculation uses the libint2 library for the computation of 2-el integrals
 For citations please refer to: http://libint.valeyev.net

 Your ORCA version has been built with support for libXC version: 4.2.3
 For citations please refer to: https://tddft.org/programs/libxc/

 This ORCA versions uses:
   CBLAS   interface :  Fast vector & matrix operations
   LAPACKE interface :  Fast linear algebra routines
   SCALAPACK package :  Parallel linear algebra routines


Your calculation utilizes the DFT-NL dispersion correction.
Cite in your paper:
Vydrov, O. A.; Van Voorhis, T. J. Chem. Phys. 2010, 133, 244103
Hujo, W.; Grimme, S. J. Chem. Theory Comput. 2011, 7, 3866 
   

----- Orbital basis set information -----
Your calculation utilizes the basis: def2-TZVPPD
   F. Weigend and R. Ahlrichs, Phys. Chem. Chem. Phys. 7, 3297 (2005).
   D. Rappoport and F. Furche, J. Chem. Phys. 133 134105 (2010).

----- AuxJK basis set information -----
Your calculation utilizes the auxiliary basis: def2/JK
   H-Ba, Hf-Rn: F. Weigend, J. Comput. Chem. 29, 167 (2008).

================================================================================
                                        WARNINGS
                       Please study these warnings very carefully!
================================================================================


WARNING: your system is open-shell and RHF/RKS was chosen
  ===> : WILL SWITCH to UHF/UKS


INFO   : the flag for use of LIBINT has been found!

================================================================================
                                       INPUT FILE
================================================================================
NAME = TMD18_MnBr.in
|  1> #
|  2> # TMD18_MnBr wB97X-V/Def2-TZVPPD
|  3> #
|  4> ! wb97x-v def2-tzvppd def2/jk grid4 nofinalgrid
|  5> 
|  6> *xyz 0 7
|  7> Mn       0.000000    0.000000   -1.400000 
|  8> Br       0.000000    0.000000    1.000000 
|  9> *
| 10> 
| 11> %maxcore 5000
| 12> 
| 13> %pal
| 14> nprocs = 24
| 15> end
| 16> 
| 17> 
| 18>                          ****END OF INPUT****
================================================================================

                       ****************************
                       * Single Point Calculation *
                       ****************************

---------------------------------
CARTESIAN COORDINATES (ANGSTROEM)
---------------------------------
  Mn     0.000000    0.000000   -1.400000
  Br     0.000000    0.000000    1.000000

----------------------------
CARTESIAN COORDINATES (A.U.)
----------------------------
  NO LB      ZA    FRAG     MASS         X           Y           Z
   0 Mn   25.0000    0    54.940    0.000000    0.000000   -2.645617
   1 Br   35.0000    0    79.900    0.000000    0.000000    1.889726

--------------------------------
INTERNAL COORDINATES (ANGSTROEM)
--------------------------------
 Mn     0   0   0     0.000000000000     0.00000000     0.00000000
 Br     1   0   0     2.400000000000     0.00000000     0.00000000

---------------------------
INTERNAL COORDINATES (A.U.)
---------------------------
 Mn     0   0   0     0.000000000000     0.00000000     0.00000000
 Br     1   0   0     4.535342721411     0.00000000     0.00000000

---------------------
BASIS SET INFORMATION
---------------------
There are 2 groups of distinct atoms

 Group   1 Type Mn  : 17s13p7d2f1g contracted to 6s6p4d2f1g pattern {842111/631111/4111/11/1}
 Group   2 Type Br  : 18s14p9d1f contracted to 7s6p5d1f pattern {8421111/641111/51111/1}

Atom   0Mn   basis set group =>   1
Atom   1Br   basis set group =>   2
----------------------------------
AUXILIARY/JK BASIS SET INFORMATION
----------------------------------
There are 2 groups of distinct atoms

 Group   1 Type Mn  : 19s14p12d10f7g3h1i contracted to 16s13p11d9f5g3h1i pattern {4111111111111111/2111111111111/21111111111/211111111/31111/111/1}
 Group   2 Type Br  : 20s14p13d10f7g3h contracted to 17s13p12d9f6g3h pattern {41111111111111111/2111111111111/211111111111/211111111/211111/111}

Atom   0Mn   basis set group =>   1
Atom   1Br   basis set group =>   2


           ************************************************************
           *        Program running with 24 parallel MPI-processes    *
           *              working on a common directory               *
           ************************************************************
------------------------------------------------------------------------------
                           ORCA GTO INTEGRAL CALCULATION
------------------------------------------------------------------------------

                         BASIS SET STATISTICS AND STARTUP INFO

 # of primitive gaussian shells          ...   82
 # of primitive gaussian functions       ...  226
 # of contracted shells                  ...   38
 # of contracted basis functions         ...  124
 Highest angular momentum                ...    4
 Maximum contraction depth               ...    8
 Integral package used                   ... LIBINT
 Integral threshhold            Thresh   ...  1.000e-10
 Primitive cut-off              TCut     ...  1.000e-11


------------------------------ INTEGRAL EVALUATION ----------------------------


 * One electron integrals 
 Pre-screening matrix                    ... done
 Shell pair data                         ... done (   0.000 sec)



           ************************************************************
           *        Program running with 24 parallel MPI-processes    *
           *              working on a common directory               *
           ************************************************************
-------------------------------------------------------------------------------
                                 ORCA SCF
-------------------------------------------------------------------------------

------------
SCF SETTINGS
------------
Hamiltonian:
 Density Functional     Method          .... DFT(GTOs)
 Exchange Functional    Exchange        .... WB97X-V
 Correlation Functional Correlation     .... WB97X-V
 Gradients option       PostSCFGGA      .... off
 Hybrid DFT is turned on
   Fraction HF Exchange ScalHFX         ....  0.167000
   Scaling of DF-GGA-X  ScalDFX         ....  0.000000
   Scaling of DF-GGA-C  ScalDFC         ....  1.000000
   Scaling of DF-LDA-C  ScalLDAC        ....  1.000000
   Perturbative correction              ....  0.000000
   Density functional embedding theory  .... OFF
 Long-range corrected/Screened/Range-Separated Hybrid DFT is turned on
   Amount of maximum screened exact exchange              ....  0.833000
   Range separation parameter mu (erf(mu*r12)/r12)        ....  0.300000
   NL short-range parameter             ....  6.000000
   NL long-range parameter              ....  0.010000


General Settings:
 Integral files         IntName         .... TMD18_MnBr
 Hartree-Fock type      HFTyp           .... UHF
 Total Charge           Charge          ....    0
 Multiplicity           Mult            ....    7
 Number of Electrons    NEL             ....   60
 Basis Dimension        Dim             ....  124
 Nuclear Repulsion      ENuc            ....    192.9291905260 Eh

Convergence Acceleration:
 DIIS                   CNVDIIS         .... on
   Start iteration      DIISMaxIt       ....    12
   Startup error        DIISStart       ....  0.200000
   # of expansion vecs  DIISMaxEq       ....     5
   Bias factor          DIISBfac        ....   1.050
   Max. coefficient     DIISMaxC        ....  10.000
 Newton-Raphson         CNVNR           .... off
 SOSCF                  CNVSOSCF        .... off
 Level Shifting         CNVShift        .... on
   Level shift para.    LevelShift      ....    0.2500
   Turn off err/grad.   ShiftErr        ....    0.0010
 Zerner damping         CNVZerner       .... off
 Static damping         CNVDamp         .... on
   Fraction old density DampFac         ....    0.7000
   Max. Damping (<1)    DampMax         ....    0.9800
   Min. Damping (>=0)   DampMin         ....    0.0000
   Turn off err/grad.   DampErr         ....    0.1000
 Fernandez-Rico         CNVRico         .... off

SCF Procedure:
 Maximum # iterations   MaxIter         ....   125
 SCF integral mode      SCFMode         .... Direct
   Integral package                     .... LIBINT
 Reset frequency        DirectResetFreq ....    20
 Integral Threshold     Thresh          ....  1.000e-10 Eh
 Primitive CutOff       TCut            ....  1.000e-11 Eh

Convergence Tolerance:
 Convergence Check Mode ConvCheckMode   .... Total+1el-Energy
 Convergence forced     ConvForced      .... 0
 Energy Change          TolE            ....  1.000e-06 Eh
 1-El. energy change                    ....  1.000e-03 Eh
 DIIS Error             TolErr          ....  1.000e-06


Diagonalization of the overlap matrix:
Smallest eigenvalue                        ... 1.865e-03
Time for diagonalization                   ...    0.004 sec
Threshold for overlap eigenvalues          ... 1.000e-08
Number of eigenvalues below threshold      ... 0
Time for construction of square roots      ...    0.002 sec
Total time needed                          ...    0.007 sec

-------------------
DFT GRID GENERATION
-------------------

General Integration Accuracy     IntAcc      ...  4.670
Radial Grid Type                 RadialGrid  ... Gauss-Chebyshev
Angular Grid (max. acc.)         AngularGrid ... Lebedev-302
Angular grid pruning method      GridPruning ... 3 (G Style)
Weight generation scheme         WeightScheme... Becke
Basis function cutoff            BFCut       ...    1.0000e-10
Integration weight cutoff        WCut        ...    1.0000e-14
Grids for H and He will be reduced by one unit

# of grid points (after initial pruning)     ...  19280 (   0.0 sec)
# of grid points (after weights+screening)   ...  19254 (   0.0 sec)
nearest neighbour list constructed           ...    0.0 sec
Grid point re-assignment to atoms done       ...    0.0 sec
Grid point division into batches done        ...    0.1 sec
Reduced shell lists constructed in    0.1 sec

Total number of grid points                  ...    19254
Total number of batches                      ...      302
Average number of points per batch           ...       63
Average number of grid points per atom       ...     9627
Average number of shells per batch           ...     7.79 (20.49%)
Average number of basis functions per batch  ...    21.64 (17.45%)
Average number of large shells per batch     ...     5.36 (68.81%)
Average number of large basis fcns per batch ...    14.79 (68.32%)
Maximum spatial batch extension              ...  24.49, 24.19, 17.83 au
Average spatial batch extension              ...   0.84,  0.83,  0.67 au

Time for grid setup =    0.193 sec

------------------------------
INITIAL GUESS: MODEL POTENTIAL
------------------------------
Loading Hartree-Fock densities                     ... done
Calculating cut-offs                               ... done
Setting up the integral package                    ... done
Initializing the effective Hamiltonian             ... done
Starting the Coulomb interaction                   ... done (   0.0 sec)
Reading the grid                                   ... done
Mapping shells                                     ... done
Starting the XC term evaluation                    ... done (   0.0 sec)
  promolecular density results
     # of electrons  =     59.999976511
     EX              =   -107.893344013
     EC              =     -3.719859240
     EX+EC           =   -111.613203253
Transforming the Hamiltonian                       ... done (   0.0 sec)
Diagonalizing the Hamiltonian                      ... done (   0.0 sec)
Back transforming the eigenvectors                 ... done (   0.0 sec)
Now organizing SCF variables                       ... done
                      ------------------
                      INITIAL GUESS DONE (   0.3 sec)
                      ------------------
--------------
SCF ITERATIONS
--------------
ITER       Energy         Delta-E        Max-DP      RMS-DP      [F,P]     Damp
               ***  Starting incremental Fock matrix formation  ***
  0  -3721.7087430545   0.000000000000 0.95948800  0.01160564  0.8195186 0.7000
  1  -3723.0256001466  -1.316857092197 0.69064364  0.00800732  0.3184220 0.7000
  2  -3723.6089864983  -0.583386351634 0.49546306  0.00579783  0.2049922 0.7000
                               ***Turning on DIIS***
  3  -3724.0269587400  -0.417972241749 0.35450096  0.00415092  0.1310027 0.7000
  4  -3724.3195393717  -0.292580631643 0.86368323  0.01004806  0.0810462 0.0000
  5  -3725.0472623181  -0.727722946405 0.06577883  0.00117390  0.0495633 0.0000
  6  -3725.0606180769  -0.013355758821 0.04801057  0.00076912  0.0133133 0.0000
  7  -3725.0647650944  -0.004147017505 0.02947644  0.00046443  0.0075772 0.0000
  8  -3725.0663187721  -0.001553677686 0.01047865  0.00017659  0.0046184 0.0000
  9  -3725.0668261989  -0.000507426777 0.00543324  0.00009608  0.0023611 0.0000
 10  -3725.0669853909  -0.000159192026 0.00220887  0.00004317  0.0012017 0.0000
 11  -3725.0670252272  -0.000039836347 0.00291333  0.00004386  0.0005927 0.0000
 12  -3725.0670383098  -0.000013082564 0.00071572  0.00000935  0.0002154 0.0000
 13  -3725.0670389236  -0.000000613820 0.00024768  0.00000337  0.0000636 0.0000
                 **** Energy Check signals convergence ****

               *****************************************************
               *                     SUCCESS                       *
               *           SCF CONVERGED AFTER  14 CYCLES          *
               *****************************************************


Setting up the DFT-NL grid :

General Integration Accuracy     IntAcc      ...  4.340
Radial Grid Type                 RadialGrid  ... Gauss-Chebyshev
Angular Grid (max. acc.)         AngularGrid ... Lebedev-110
Angular grid pruning method      GridPruning ... 3 (G Style)
Weight generation scheme         WeightScheme... Becke
Basis function cutoff            BFCut       ...    1.0000e-10
Integration weight cutoff        WCut        ...    1.0000e-14
Grids for H and He will be reduced by one unit

# of grid points (after initial pruning)     ...   5802 (   0.0 sec)
# of grid points (after weights+screening)   ...   5778 (   0.0 sec)
nearest neighbour list constructed           ...    0.0 sec
Grid point re-assignment to atoms done       ...    0.0 sec
Grid point division into batches done        ...    0.0 sec
Reduced shell lists constructed in    0.0 sec

Total number of grid points                  ...     5778
Total number of batches                      ...       92
Average number of points per batch           ...       62
Average number of grid points per atom       ...     2889
Average number of shells per batch           ...    11.20 (29.47%)
Average number of basis functions per batch  ...    33.60 (27.10%)
Average number of large shells per batch     ...     8.40 (75.00%)
Average number of large basis fcns per batch ...    24.40 (72.62%)
Maximum spatial batch extension              ...  18.98, 28.73, 16.43 au
Average spatial batch extension              ...   0.76,  1.05,  0.71 au

Final grid set up in    0.0 sec

-------------------------------------------------------------------------------
                         DFT-NL dispersion correction                          
-------------------------------------------------------------------------------

SC Energy -3725.067038995 
NL    Energy 0.251318204 
SC+NL Energy -3724.815720791 
NL done in    0.0 sec
-------------------------------------------------------------------------------

----------------
TOTAL SCF ENERGY
----------------

Total Energy       :        -3724.81572079 Eh         -101357.38867 eV

Components:
Nuclear Repulsion  :          192.92919053 Eh            5249.87017 eV
Electronic Energy  :        -3917.74491132 Eh         -106607.25885 eV
One Electron Energy:        -5553.65348757 Eh         -151122.59432 eV
Two Electron Energy:         1635.90857625 Eh           44515.33548 eV

Virial components:
Potential Energy   :        -7444.62469434 Eh         -202578.53683 eV
Kinetic Energy     :         3719.80897354 Eh          101221.14815 eV
Virial Ratio       :            2.00134597


DFT components:
N(Alpha)           :       33.000003559788 electrons
N(Beta)            :       27.000001428460 electrons
N(Total)           :       60.000004988249 electrons
E(X)               :     -108.064108629898 Eh       
E(C)               :       -3.658160699796 Eh       
NL Energy, E(C,NL) :        0.251318203854 Eh       
E(XC)              :     -111.470951125840 Eh       
DFET-embed. en.    :        0.000000000000 Eh       

---------------
SCF CONVERGENCE
---------------

  Last Energy change         ...   -7.1429e-08  Tolerance :   1.0000e-06
  Last MAX-Density change    ...    7.6936e-05  Tolerance :   1.0000e-05
  Last RMS-Density change    ...    9.4357e-07  Tolerance :   1.0000e-06
  Last DIIS Error            ...    1.5073e-05  Tolerance :   1.0000e-06

             **** THE GBW FILE WAS UPDATED (TMD18_MnBr.gbw) ****
             **** DENSITY FILE WAS UPDATED (TMD18_MnBr.scfp) ****
             **** ENERGY FILE WAS UPDATED (TMD18_MnBr.en.tmp) ****
----------------------
UHF SPIN CONTAMINATION
----------------------

Warning: in a DFT calculation there is little theoretical justification to 
         calculate <S**2> as in Hartree-Fock theory. We will do it anyways
         but you should keep in mind that the values have only limited relevance

Expectation value of <S**2>     :    12.002038
Ideal value S*(S+1) for S=3.0   :    12.000000
Deviation                       :     0.002038

             **** THE GBW FILE WAS UPDATED (TMD18_MnBr.gbw) ****
             **** DENSITY FILE WAS UPDATED (TMD18_MnBr.scfp) ****
----------------
ORBITAL ENERGIES
----------------
                 SPIN UP ORBITALS
  NO   OCC          E(Eh)            E(eV) 
   0   1.0000    -482.617765    -13132.6970 
   1   1.0000    -235.463841     -6407.2969 
   2   1.0000     -62.492741     -1700.5139 
   3   1.0000     -56.296775     -1531.9131 
   4   1.0000     -56.295955     -1531.8908 
   5   1.0000     -56.295955     -1531.8908 
   6   1.0000     -27.486598      -747.9483 
   7   1.0000     -23.550760      -640.8488 
   8   1.0000     -23.550760      -640.8488 
   9   1.0000     -23.548536      -640.7883 
  10   1.0000      -8.761806      -238.4209 
  11   1.0000      -6.586208      -179.2198 
  12   1.0000      -6.583628      -179.1496 
  13   1.0000      -6.583628      -179.1496 
  14   1.0000      -3.464282       -94.2679 
  15   1.0000      -2.709004       -73.7158 
  16   1.0000      -2.708149       -73.6925 
  17   1.0000      -2.708149       -73.6925 
  18   1.0000      -2.706115       -73.6371 
  19   1.0000      -2.706086       -73.6363 
  20   1.0000      -2.332033       -63.4578 
  21   1.0000      -2.332033       -63.4578 
  22   1.0000      -2.325678       -63.2849 
  23   1.0000      -0.862809       -23.4782 
  24   1.0000      -0.525342       -14.2953 
  25   1.0000      -0.518910       -14.1203 
  26   1.0000      -0.518909       -14.1202 
  27   1.0000      -0.518803       -14.1173 
  28   1.0000      -0.518803       -14.1173 
  29   1.0000      -0.420365       -11.4387 
  30   1.0000      -0.378673       -10.3042 
  31   1.0000      -0.378673       -10.3042 
  32   1.0000      -0.286122        -7.7858 
  33   0.0000       0.010556         0.2872 
  34   0.0000       0.010556         0.2872 
  35   0.0000       0.047756         1.2995 
  36   0.0000       0.079855         2.1730 
  37   0.0000       0.092172         2.5081 
  38   0.0000       0.092172         2.5081 
  39   0.0000       0.115842         3.1522 
  40   0.0000       0.124305         3.3825 
  41   0.0000       0.124305         3.3825 
  42   0.0000       0.172938         4.7059 
  43   0.0000       0.183052         4.9811 
  44   0.0000       0.183052         4.9811 
  45   0.0000       0.217274         5.9123 
  46   0.0000       0.233557         6.3554 
  47   0.0000       0.233557         6.3554 
  48   0.0000       0.261625         7.1192 
  49   0.0000       0.261625         7.1192 
  50   0.0000       0.301906         8.2153 
  51   0.0000       0.329718         8.9721 
  52   0.0000       0.329718         8.9721 
  53   0.0000       0.354729         9.6527 
  54   0.0000       0.479585        13.0502 
  55   0.0000       0.479585        13.0502 
  56   0.0000       0.494927        13.4676 
  57   0.0000       0.517486        14.0815 
  58   0.0000       0.517486        14.0815 
  59   0.0000       0.559535        15.2257 
  60   0.0000       0.559536        15.2257 
  61   0.0000       0.575581        15.6624 
  62   0.0000       0.577298        15.7091 
  63   0.0000       0.577298        15.7091 
  64   0.0000       0.717034        19.5115 
  65   0.0000       0.866151        23.5692 
  66   0.0000       0.866152        23.5692 
  67   0.0000       0.934029        25.4162 
  68   0.0000       0.934029        25.4162 
  69   0.0000       0.957435        26.0531 
  70   0.0000       1.124591        30.6017 
  71   0.0000       1.608670        43.7741 
  72   0.0000       1.624858        44.2146 
  73   0.0000       1.624881        44.2152 
  74   0.0000       1.632954        44.4349 
  75   0.0000       1.632954        44.4349 
  76   0.0000       1.652358        44.9629 
  77   0.0000       1.652360        44.9630 
  78   0.0000       1.663337        45.2617 
  79   0.0000       1.663337        45.2617 
  80   0.0000       1.667244        45.3680 
  81   0.0000       1.667244        45.3680 
  82   0.0000       1.815019        49.3892 
  83   0.0000       1.819556        49.5126 
  84   0.0000       1.819556        49.5126 
  85   0.0000       1.876349        51.0581 
  86   0.0000       1.981807        53.9277 
  87   0.0000       1.981807        53.9277 
  88   0.0000       2.005814        54.5810 
  89   0.0000       2.005819        54.5811 
  90   0.0000       2.130751        57.9807 
  91   0.0000       2.130751        57.9807 
  92   0.0000       2.216082        60.3027 
  93   0.0000       2.216082        60.3027 
  94   0.0000       2.242546        61.0228 
  95   0.0000       2.490497        67.7699 
  96   0.0000       2.750020        74.8318 
  97   0.0000       3.193995        86.9130 
  98   0.0000       3.194010        86.9134 
  99   0.0000       3.267071        88.9015 
 100   0.0000       3.267071        88.9015 
 101   0.0000       3.386152        92.1419 
 102   0.0000       4.266570       116.0993 
 103   0.0000       4.266661       116.1018 
 104   0.0000       4.291967       116.7904 
 105   0.0000       4.291967       116.7904 
 106   0.0000       4.360230       118.6479 
 107   0.0000       6.991472       190.2476 
 108   0.0000       6.991735       190.2548 
 109   0.0000       6.997598       190.4143 
 110   0.0000       6.997598       190.4143 
 111   0.0000       7.002596       190.5503 
 112   0.0000       7.002609       190.5507 
 113   0.0000       7.008887       190.7215 
 114   0.0000       7.008887       190.7215 
 115   0.0000       7.024681       191.1513 
 116   0.0000       7.578512       206.2218 
 117   0.0000       7.830749       213.0855 
 118   0.0000       7.830749       213.0855 
 119   0.0000       7.836411       213.2396 
 120   0.0000       7.836536       213.2430 
 121   0.0000       7.870914       214.1785 
 122   0.0000       7.870914       214.1785 
 123   0.0000       8.024275       218.3516 

                 SPIN DOWN ORBITALS
  NO   OCC          E(Eh)            E(eV) 
   0   1.0000    -482.617387    -13132.6868 
   1   1.0000    -235.461659     -6407.2375 
   2   1.0000     -62.492524     -1700.5080 
   3   1.0000     -56.296250     -1531.8988 
   4   1.0000     -56.295636     -1531.8821 
   5   1.0000     -56.295636     -1531.8821 
   6   1.0000     -27.405082      -745.7302 
   7   1.0000     -23.484246      -639.0388 
   8   1.0000     -23.484246      -639.0388 
   9   1.0000     -23.482418      -638.9891 
  10   1.0000      -8.761262      -238.4061 
  11   1.0000      -6.585365      -179.1969 
  12   1.0000      -6.583091      -179.1350 
  13   1.0000      -6.583091      -179.1350 
  14   1.0000      -3.254396       -88.5566 
  15   1.0000      -2.708268       -73.6957 
  16   1.0000      -2.707471       -73.6740 
  17   1.0000      -2.707471       -73.6740 
  18   1.0000      -2.705601       -73.6232 
  19   1.0000      -2.705571       -73.6223 
  20   1.0000      -2.104060       -57.2544 
  21   1.0000      -2.104060       -57.2544 
  22   1.0000      -2.097965       -57.0885 
  23   1.0000      -0.855757       -23.2863 
  24   1.0000      -0.425819       -11.5871 
  25   1.0000      -0.383353       -10.4316 
  26   1.0000      -0.383353       -10.4316 
  27   0.0000      -0.025359        -0.6900 
  28   0.0000       0.009049         0.2462 
  29   0.0000       0.009050         0.2463 
  30   0.0000       0.017527         0.4769 
  31   0.0000       0.017527         0.4769 
  32   0.0000       0.038088         1.0364 
  33   0.0000       0.051283         1.3955 
  34   0.0000       0.051283         1.3955 
  35   0.0000       0.061536         1.6745 
  36   0.0000       0.097261         2.6466 
  37   0.0000       0.097261         2.6466 
  38   0.0000       0.106862         2.9079 
  39   0.0000       0.153087         4.1657 
  40   0.0000       0.156624         4.2620 
  41   0.0000       0.156624         4.2620 
  42   0.0000       0.197797         5.3823 
  43   0.0000       0.197797         5.3823 
  44   0.0000       0.210436         5.7263 
  45   0.0000       0.239665         6.5216 
  46   0.0000       0.268934         7.3181 
  47   0.0000       0.268934         7.3181 
  48   0.0000       0.289711         7.8834 
  49   0.0000       0.289712         7.8835 
  50   0.0000       0.327932         8.9235 
  51   0.0000       0.358980         9.7683 
  52   0.0000       0.358980         9.7683 
  53   0.0000       0.397637        10.8203 
  54   0.0000       0.493894        13.4395 
  55   0.0000       0.493894        13.4395 
  56   0.0000       0.512134        13.9359 
  57   0.0000       0.533763        14.5244 
  58   0.0000       0.533763        14.5244 
  59   0.0000       0.562214        15.2986 
  60   0.0000       0.562215        15.2986 
  61   0.0000       0.613071        16.6825 
  62   0.0000       0.613071        16.6825 
  63   0.0000       0.618261        16.8237 
  64   0.0000       0.739808        20.1312 
  65   0.0000       0.943831        25.6830 
  66   0.0000       0.943836        25.6831 
  67   0.0000       1.007210        27.4076 
  68   0.0000       1.013028        27.5659 
  69   0.0000       1.013028        27.5659 
  70   0.0000       1.159582        31.5538 
  71   0.0000       1.627572        44.2885 
  72   0.0000       1.629021        44.3279 
  73   0.0000       1.629045        44.3286 
  74   0.0000       1.638508        44.5861 
  75   0.0000       1.638508        44.5861 
  76   0.0000       1.657305        45.0976 
  77   0.0000       1.657307        45.0976 
  78   0.0000       1.666388        45.3447 
  79   0.0000       1.666388        45.3447 
  80   0.0000       1.694260        46.1032 
  81   0.0000       1.694260        46.1032 
  82   0.0000       1.823507        49.6202 
  83   0.0000       1.823507        49.6202 
  84   0.0000       1.860912        50.6380 
  85   0.0000       1.883455        51.2514 
  86   0.0000       2.094529        56.9950 
  87   0.0000       2.094529        56.9950 
  88   0.0000       2.114265        57.5321 
  89   0.0000       2.114268        57.5322 
  90   0.0000       2.229823        60.6766 
  91   0.0000       2.229823        60.6766 
  92   0.0000       2.311541        62.9002 
  93   0.0000       2.311541        62.9002 
  94   0.0000       2.351955        63.9999 
  95   0.0000       2.588478        70.4361 
  96   0.0000       2.837891        77.2229 
  97   0.0000       3.337089        90.8068 
  98   0.0000       3.337127        90.8078 
  99   0.0000       3.410653        92.8086 
 100   0.0000       3.410653        92.8086 
 101   0.0000       3.523252        95.8726 
 102   0.0000       4.268438       116.1501 
 103   0.0000       4.268532       116.1527 
 104   0.0000       4.294086       116.8480 
 105   0.0000       4.294086       116.8480 
 106   0.0000       4.365625       118.7947 
 107   0.0000       7.134256       194.1330 
 108   0.0000       7.134480       194.1391 
 109   0.0000       7.139289       194.2699 
 110   0.0000       7.139289       194.2699 
 111   0.0000       7.142548       194.3586 
 112   0.0000       7.142549       194.3586 
 113   0.0000       7.147483       194.4929 
 114   0.0000       7.147483       194.4929 
 115   0.0000       7.162911       194.9127 
 116   0.0000       7.584124       206.3745 
 117   0.0000       8.021381       218.2729 
 118   0.0000       8.021381       218.2729 
 119   0.0000       8.028935       218.4784 
 120   0.0000       8.029042       218.4813 
 121   0.0000       8.062178       219.3830 
 122   0.0000       8.062178       219.3830 
 123   0.0000       8.207561       223.3391 

                    ********************************
                    * MULLIKEN POPULATION ANALYSIS *
                    ********************************

--------------------------------------------
MULLIKEN ATOMIC CHARGES AND SPIN POPULATIONS
--------------------------------------------
   0 Mn:    0.382941    5.941541
   1 Br:   -0.382941    0.058459
Sum of atomic charges         :    0.0000000
Sum of atomic spin populations:    6.0000000

-----------------------------------------------------
MULLIKEN REDUCED ORBITAL CHARGES AND SPIN POPULATIONS
-----------------------------------------------------
CHARGE
  0 Mns       :     7.099795  s :     7.099795
      pz      :     4.315747  p :    12.394653
      px      :     4.039453
      py      :     4.039453
      dz2     :     1.048473  d :     5.120548
      dxz     :     1.036209
      dyz     :     1.036209
      dx2y2   :     0.999829
      dxy     :     0.999829
      f0      :     0.001038  f :     0.002052
      f+1     :     0.000506
      f-1     :     0.000506
      f+2     :     0.000001
      f-2     :     0.000001
      f+3     :     0.000000
      f-3     :     0.000000
      g0      :     0.000005  g :     0.000012
      g+1     :     0.000003
      g-1     :     0.000003
      g+2     :     0.000000
      g-2     :     0.000000
      g+3     :     0.000000
      g-3     :     0.000000
      g+4     :     0.000000
      g-4     :     0.000000
  1 Brs       :     7.939372  s :     7.939372
      pz      :     5.597317  p :    17.429127
      px      :     5.915905
      py      :     5.915905
      dz2     :     1.997405  d :    10.012611
      dxz     :     2.007455
      dyz     :     2.007455
      dx2y2   :     2.000148
      dxy     :     2.000148
      f0      :     0.000847  f :     0.001830
      f+1     :     0.000469
      f-1     :     0.000469
      f+2     :     0.000022
      f-2     :     0.000022
      f+3     :     0.000000
      f-3     :     0.000000

SPIN
  0 Mns       :     0.861155  s :     0.861155
      pz      :     0.200206  p :     0.215592
      px      :     0.007693
      py      :     0.007693
      dz2     :     0.933211  d :     4.864958
      dxz     :     0.966049
      dyz     :     0.966049
      dx2y2   :     0.999825
      dxy     :     0.999825
      f0      :    -0.000055  f :    -0.000167
      f+1     :    -0.000057
      f-1     :    -0.000057
      f+2     :     0.000001
      f-2     :     0.000001
      f+3     :     0.000000
      f-3     :     0.000000
      g0      :     0.000001  g :     0.000003
      g+1     :     0.000001
      g-1     :     0.000001
      g+2     :     0.000000
      g-2     :     0.000000
      g+3     :     0.000000
      g-3     :     0.000000
      g+4     :     0.000000
      g-4     :     0.000000
  1 Brs       :    -0.017043  s :    -0.017043
      pz      :     0.028424  p :     0.082244
      px      :     0.026910
      py      :     0.026910
      dz2     :    -0.006113  d :    -0.007211
      dxz     :    -0.000701
      dyz     :    -0.000701
      dx2y2   :     0.000152
      dxy     :     0.000152
      f0      :     0.000215  f :     0.000469
      f+1     :     0.000105
      f-1     :     0.000105
      f+2     :     0.000022
      f-2     :     0.000022
      f+3     :     0.000000
      f-3     :     0.000000


                     *******************************
                     * LOEWDIN POPULATION ANALYSIS *
                     *******************************

-------------------------------------------
LOEWDIN ATOMIC CHARGES AND SPIN POPULATIONS
-------------------------------------------
   0 Mn:    0.233096    5.736179
   1 Br:   -0.233096    0.263821

----------------------------------------------------
LOEWDIN REDUCED ORBITAL CHARGES AND SPIN POPULATIONS
----------------------------------------------------
CHARGE
  0 Mns       :     6.736489  s :     6.736489
      pz      :     4.513204  p :    12.657237
      px      :     4.072016
      py      :     4.072016
      dz2     :     1.174396  d :     5.368269
      dxz     :     1.097592
      dyz     :     1.097592
      dx2y2   :     0.999345
      dxy     :     0.999345
      f0      :     0.002910  f :     0.004876
      f+1     :     0.000982
      f-1     :     0.000982
      f+2     :     0.000001
      f-2     :     0.000001
      f+3     :     0.000000
      f-3     :     0.000000
      g0      :     0.000018  g :     0.000033
      g+1     :     0.000007
      g-1     :     0.000007
      g+2     :     0.000000
      g-2     :     0.000000
      g+3     :     0.000000
      g-3     :     0.000000
      g+4     :     0.000000
      g-4     :     0.000000
  1 Brs       :     7.737116  s :     7.737116
      pz      :     5.751054  p :    17.392073
      px      :     5.820510
      py      :     5.820510
      dz2     :     2.083027  d :    10.100667
      dxz     :     2.008204
      dyz     :     2.008204
      dx2y2   :     2.000616
      dxy     :     2.000616
      f0      :     0.001785  f :     0.003239
      f+1     :     0.000689
      f-1     :     0.000689
      f+2     :     0.000038
      f-2     :     0.000038
      f+3     :     0.000000
      f-3     :     0.000000

SPIN
  0 Mns       :     0.592023  s :     0.592023
      pz      :     0.279569  p :     0.297028
      px      :     0.008729
      py      :     0.008729
      dz2     :     0.929848  d :     4.847036
      dxz     :     0.959252
      dyz     :     0.959252
      dx2y2   :     0.999342
      dxy     :     0.999342
      f0      :     0.000167  f :     0.000087
      f+1     :    -0.000041
      f-1     :    -0.000041
      f+2     :     0.000001
      f-2     :     0.000001
      f+3     :     0.000000
      f-3     :     0.000000
      g0      :     0.000003  g :     0.000006
      g+1     :     0.000001
      g-1     :     0.000001
      g+2     :     0.000000
      g-2     :     0.000000
      g+3     :     0.000000
      g-3     :     0.000000
      g+4     :     0.000000
      g-4     :     0.000000
  1 Brs       :     0.039406  s :     0.039406
      pz      :     0.116063  p :     0.173393
      px      :     0.028665
      py      :     0.028665
      dz2     :     0.041947  d :     0.049059
      dxz     :     0.002937
      dyz     :     0.002937
      dx2y2   :     0.000619
      dxy     :     0.000619
      f0      :     0.000974  f :     0.001963
      f+1     :     0.000457
      f-1     :     0.000457
      f+2     :     0.000038
      f-2     :     0.000038
      f+3     :     0.000000
      f-3     :     0.000000


                      *****************************
                      * MAYER POPULATION ANALYSIS *
                      *****************************

  NA   - Mulliken gross atomic population
  ZA   - Total nuclear charge
  QA   - Mulliken gross atomic charge
  VA   - Mayer's total valence
  BVA  - Mayer's bonded valence
  FA   - Mayer's free valence

  ATOM       NA         ZA         QA         VA         BVA        FA
  0 Mn    24.6171    25.0000     0.3829     6.6298     0.7546     5.8752
  1 Br    35.3829    35.0000    -0.3829     0.7675     0.7546     0.0129

  Mayer bond orders larger than 0.100000
B(  0-Mn,  1-Br) :   0.7546 

-------
TIMINGS
-------

Total SCF time: 0 days 0 hours 0 min 5 sec 

Total time                  ....       5.544 sec
Sum of individual times     ....       5.315 sec  ( 95.9%)

Fock matrix formation       ....       4.919 sec  ( 88.7%)
  XC integration            ....       0.512 sec  ( 10.4% of F)
    Basis function eval.    ....       0.033 sec  (  6.4% of XC)
    Density eval.           ....       0.034 sec  (  6.6% of XC)
    XC-Functional eval.     ....       0.022 sec  (  4.2% of XC)
    XC-Potential eval.      ....       0.071 sec  ( 13.8% of XC)
Diagonalization             ....       0.054 sec  (  1.0%)
Density matrix formation    ....       0.008 sec  (  0.2%)
Population analysis         ....       0.006 sec  (  0.1%)
Initial guess               ....       0.097 sec  (  1.7%)
Orbital Transformation      ....       0.000 sec  (  0.0%)
Orbital Orthonormalization  ....       0.000 sec  (  0.0%)
DIIS solution               ....       0.020 sec  (  0.4%)
Grid generation             ....       0.210 sec  (  3.8%)

-------------------------   --------------------
FINAL SINGLE POINT ENERGY     -3724.815720791201
-------------------------   --------------------


                            ***************************************
                            *     ORCA property calculations      *
                            ***************************************

                                    ---------------------
                                    Active property flags
                                    ---------------------
   (+) Dipole Moment


------------------------------------------------------------------------------
                       ORCA ELECTRIC PROPERTIES CALCULATION
------------------------------------------------------------------------------

Dipole Moment Calculation                       ... on
Quadrupole Moment Calculation                   ... off
Polarizability Calculation                      ... off
GBWName                                         ... TMD18_MnBr.gbw
Electron density file                           ... TMD18_MnBr.scfp
The origin for moment calculation is the CENTER OF MASS  = ( 0.000000,  0.000000  0.041820)

-------------
DIPOLE MOMENT
-------------
                                X             Y             Z
Electronic contribution:     -0.00000      -0.00000       1.33253
Nuclear contribution   :      0.00000       0.00000      -2.50917
                        -----------------------------------------
Total Dipole Moment    :     -0.00000      -0.00000      -1.17664
                        -----------------------------------------
Magnitude (a.u.)       :      1.17664
Magnitude (Debye)      :      2.99078



--------------------
Rotational spectrum 
--------------------
 
Rotational constants in cm-1:     0.000000     0.089900     0.089900 
Rotational constants in MHz :     0.000000  2695.122005  2695.122005 

 Dipole components along the rotational axes: 
x,y,z [a.u.] :    -1.176639    -0.000000    -0.000000 
x,y,z [Debye]:    -2.990779    -0.000000    -0.000000 

 

Timings for individual modules:

Sum of individual times         ...        6.599 sec (=   0.110 min)
GTO integral calculation        ...        0.686 sec (=   0.011 min)  10.4 %
SCF iterations                  ...        5.913 sec (=   0.099 min)  89.6 %
                             ****ORCA TERMINATED NORMALLY****
TOTAL RUN TIME: 0 days 0 hours 0 minutes 7 seconds 47 msec
