
                                 *****************
                                 * O   R   C   A *
                                 *****************

           --- An Ab Initio, DFT and Semiempirical electronic structure package ---

                  #######################################################
                  #                        -***-                        #
                  #          Department of theory and spectroscopy      #
                  #               Directorship: Frank Neese             #
                  #        Max Planck Institute fuer Kohlenforschung    #
                  #                Kaiser Wilhelm Platz 1               #
                  #                 D-45470 Muelheim/Ruhr               #
                  #                      Germany                        #
                  #                                                     #
                  #                  All rights reserved                #
                  #                        -***-                        #
                  #######################################################


                         Program Version 4.2.0 -  RELEASE  -


 With contributions from (in alphabetic order):
   Daniel Aravena         : Magnetic Suceptibility
   Michael Atanasov       : Ab Initio Ligand Field Theory (pilot matlab implementation)
   Alexander A. Auer      : GIAO ZORA, VPT2
   Ute Becker             : Parallelization
   Giovanni Bistoni       : ED, misc. LED, open-shell LED, HFLED
   Martin Brehm           : Molecular dynamics
   Dmytro Bykov           : SCF Hessian
   Vijay G. Chilkuri      : MRCI spin determinant printing, contributions to CSF-ICE
   Dipayan Datta          : RHF DLPNO-CCSD density
   Achintya Kumar Dutta   : EOM-CC, STEOM-CC
   Dmitry Ganyushin       : Spin-Orbit,Spin-Spin,Magnetic field MRCI
   Miquel Garcia          : C-PCM Hessian, Gaussian charge scheme
   Yang Guo               : DLPNO-NEVPT2, CIM, IAO-localization
   Andreas Hansen         : Spin unrestricted coupled pair/coupled cluster methods
   Benjamin Helmich-Paris : CASSCF linear response (MC-RPA)
   Lee Huntington         : MR-EOM, pCC
   Robert Izsak           : Overlap fitted RIJCOSX, COSX-SCS-MP3, EOM
   Christian Kollmar      : KDIIS, OOCD, Brueckner-CCSD(T), CCSD density
   Simone Kossmann        : Meta GGA functionals, TD-DFT gradient, OOMP2, MP2 Hessian
   Martin Krupicka        : AUTO-CI
   Lucas Lang             : DCDCAS
   Dagmar Lenk            : GEPOL surface, SMD
   Dimitrios Liakos       : Extrapolation schemes; Compound Job, initial MDCI parallelization
   Dimitrios Manganas     : Further ROCIS development; embedding schemes
   Dimitrios Pantazis     : SARC Basis sets
   Taras Petrenko         : DFT Hessian,TD-DFT gradient, ASA, ECA, R-Raman, ABS, FL, XAS/XES, NRVS
   Peter Pinski           : DLPNO-MP2, DLPNO-MP2 Gradient
   Christoph Reimann      : Effective Core Potentials
   Marius Retegan         : Local ZFS, SOC
   Christoph Riplinger    : Optimizer, TS searches, QM/MM, DLPNO-CCSD(T), (RO)-DLPNO pert. Triples
   Tobias Risthaus        : Range-separated hybrids, TD-DFT gradient, RPA, STAB
   Michael Roemelt        : Original ROCIS implementation
   Masaaki Saitow         : Open-shell DLPNO-CCSD energy and density
   Barbara Sandhoefer     : DKH picture change effects
   Avijit Sen             : IP-ROCIS
   Kantharuban Sivalingam : CASSCF convergence, NEVPT2, FIC-MRCI
   Bernardo de Souza      : ESD, SOC TD-DFT
   Georgi Stoychev        : AutoAux, RI-MP2 NMR
   Willem Van den Heuvel  : Paramagnetic NMR
   Boris Wezisla          : Elementary symmetry handling
   Frank Wennmohs         : Technical directorship


 We gratefully acknowledge several colleagues who have allowed us to
 interface, adapt or use parts of their codes:
   Stefan Grimme, W. Hujo, H. Kruse,             : VdW corrections, initial TS optimization,
                  C. Bannwarth                     DFT functionals, gCP, sTDA/sTD-DF
   Ed Valeev, F. Pavosevic, A. Kumar             : LibInt (2-el integral package), F12 methods
   Garnet Chan, S. Sharma, J. Yang, R. Olivares  : DMRG
   Ulf Ekstrom                                   : XCFun DFT Library
   Mihaly Kallay                                 : mrcc  (arbitrary order and MRCC methods)
   Andreas Klamt, Michael Diedenhofen            : otool_cosmo (COSMO solvation model)
   Jiri Pittner, Ondrej Demel                    : Mk-CCSD
   Frank Weinhold                                : gennbo (NPA and NBO analysis)
   Christopher J. Cramer and Donald G. Truhlar   : smd solvation model
   Lars Goerigk                                  : TD-DFT with DH, B97 family of functionals
   V. Asgeirsson, H. Jonsson                     : NEB implementation
   FAccTs GmbH                                   : IRC, NEB, NEB-TS, Multilevel, MM, QM/MM, CI optimization
   S Lehtola, MJT Oliveira, MAL Marques          : LibXC Library


 Your calculation uses the libint2 library for the computation of 2-el integrals
 For citations please refer to: http://libint.valeyev.net

 Your ORCA version has been built with support for libXC version: 4.2.3
 For citations please refer to: https://tddft.org/programs/libxc/

 This ORCA versions uses:
   CBLAS   interface :  Fast vector & matrix operations
   LAPACKE interface :  Fast linear algebra routines
   SCALAPACK package :  Parallel linear algebra routines


Your calculation utilizes the DFT-NL dispersion correction.
Cite in your paper:
Vydrov, O. A.; Van Voorhis, T. J. Chem. Phys. 2010, 133, 244103
Hujo, W.; Grimme, S. J. Chem. Theory Comput. 2011, 7, 3866 
   

----- Orbital basis set information -----
Your calculation utilizes the basis: def2-TZVPPD
   F. Weigend and R. Ahlrichs, Phys. Chem. Chem. Phys. 7, 3297 (2005).
   D. Rappoport and F. Furche, J. Chem. Phys. 133 134105 (2010).

----- AuxJK basis set information -----
Your calculation utilizes the auxiliary basis: def2/JK
   H-Ba, Hf-Rn: F. Weigend, J. Comput. Chem. 29, 167 (2008).

================================================================================
                                        WARNINGS
                       Please study these warnings very carefully!
================================================================================


WARNING: your system is open-shell and RHF/RKS was chosen
  ===> : WILL SWITCH to UHF/UKS


INFO   : the flag for use of LIBINT has been found!

================================================================================
                                       INPUT FILE
================================================================================
NAME = TMD19_FeCl.in
|  1> #
|  2> # TMD19_FeCl wB97X-V/Def2-TZVPPD
|  3> #
|  4> ! wb97x-v def2-tzvppd def2/jk grid4 nofinalgrid
|  5> 
|  6> *xyz 0 6
|  7> Fe       0.000000    0.000000    0.869767 
|  8> Cl       0.000000    0.000000   -1.330233 
|  9> *
| 10> 
| 11> %maxcore 5000
| 12> 
| 13> %pal
| 14> nprocs = 24
| 15> end
| 16> 
| 17> 
| 18>                          ****END OF INPUT****
================================================================================

                       ****************************
                       * Single Point Calculation *
                       ****************************

---------------------------------
CARTESIAN COORDINATES (ANGSTROEM)
---------------------------------
  Fe     0.000000    0.000000    0.869767
  Cl     0.000000    0.000000   -1.330233

----------------------------
CARTESIAN COORDINATES (A.U.)
----------------------------
  NO LB      ZA    FRAG     MASS         X           Y           Z
   0 Fe   26.0000    0    55.850    0.000000    0.000000    1.643621
   1 Cl   17.0000    0    35.453    0.000000    0.000000   -2.513776

--------------------------------
INTERNAL COORDINATES (ANGSTROEM)
--------------------------------
 Fe     0   0   0     0.000000000000     0.00000000     0.00000000
 Cl     1   0   0     2.200000000000     0.00000000     0.00000000

---------------------------
INTERNAL COORDINATES (A.U.)
---------------------------
 Fe     0   0   0     0.000000000000     0.00000000     0.00000000
 Cl     1   0   0     4.157397494627     0.00000000     0.00000000

---------------------
BASIS SET INFORMATION
---------------------
There are 2 groups of distinct atoms

 Group   1 Type Fe  : 17s13p7d2f1g contracted to 6s6p4d2f1g pattern {842111/631111/4111/11/1}
 Group   2 Type Cl  : 15s10p4d1f contracted to 6s6p4d1f pattern {732111/511111/1111/1}

Atom   0Fe   basis set group =>   1
Atom   1Cl   basis set group =>   2
----------------------------------
AUXILIARY/JK BASIS SET INFORMATION
----------------------------------
There are 2 groups of distinct atoms

 Group   1 Type Fe  : 19s14p12d10f7g3h1i contracted to 16s13p11d9f5g3h1i pattern {4111111111111111/2111111111111/21111111111/211111111/31111/111/1}
 Group   2 Type Cl  : 16s12p10d4f1g contracted to 13s11p9d4f1g pattern {4111111111111/21111111111/211111111/1111/1}

Atom   0Fe   basis set group =>   1
Atom   1Cl   basis set group =>   2


           ************************************************************
           *        Program running with 24 parallel MPI-processes    *
           *              working on a common directory               *
           ************************************************************
------------------------------------------------------------------------------
                           ORCA GTO INTEGRAL CALCULATION
------------------------------------------------------------------------------

                         BASIS SET STATISTICS AND STARTUP INFO

 # of primitive gaussian shells          ...   70
 # of primitive gaussian functions       ...  186
 # of contracted shells                  ...   36
 # of contracted basis functions         ...  118
 Highest angular momentum                ...    4
 Maximum contraction depth               ...    8
 Integral package used                   ... LIBINT
 Integral threshhold            Thresh   ...  1.000e-10
 Primitive cut-off              TCut     ...  1.000e-11


------------------------------ INTEGRAL EVALUATION ----------------------------


 * One electron integrals 
 Pre-screening matrix                    ... done
 Shell pair data                         ... done (   0.000 sec)



           ************************************************************
           *        Program running with 24 parallel MPI-processes    *
           *              working on a common directory               *
           ************************************************************
-------------------------------------------------------------------------------
                                 ORCA SCF
-------------------------------------------------------------------------------

------------
SCF SETTINGS
------------
Hamiltonian:
 Density Functional     Method          .... DFT(GTOs)
 Exchange Functional    Exchange        .... WB97X-V
 Correlation Functional Correlation     .... WB97X-V
 Gradients option       PostSCFGGA      .... off
 Hybrid DFT is turned on
   Fraction HF Exchange ScalHFX         ....  0.167000
   Scaling of DF-GGA-X  ScalDFX         ....  0.000000
   Scaling of DF-GGA-C  ScalDFC         ....  1.000000
   Scaling of DF-LDA-C  ScalLDAC        ....  1.000000
   Perturbative correction              ....  0.000000
   Density functional embedding theory  .... OFF
 Long-range corrected/Screened/Range-Separated Hybrid DFT is turned on
   Amount of maximum screened exact exchange              ....  0.833000
   Range separation parameter mu (erf(mu*r12)/r12)        ....  0.300000
   NL short-range parameter             ....  6.000000
   NL long-range parameter              ....  0.010000


General Settings:
 Integral files         IntName         .... TMD19_FeCl
 Hartree-Fock type      HFTyp           .... UHF
 Total Charge           Charge          ....    0
 Multiplicity           Mult            ....    6
 Number of Electrons    NEL             ....   43
 Basis Dimension        Dim             ....  118
 Nuclear Repulsion      ENuc            ....    106.3165118494 Eh

Convergence Acceleration:
 DIIS                   CNVDIIS         .... on
   Start iteration      DIISMaxIt       ....    12
   Startup error        DIISStart       ....  0.200000
   # of expansion vecs  DIISMaxEq       ....     5
   Bias factor          DIISBfac        ....   1.050
   Max. coefficient     DIISMaxC        ....  10.000
 Newton-Raphson         CNVNR           .... off
 SOSCF                  CNVSOSCF        .... off
 Level Shifting         CNVShift        .... on
   Level shift para.    LevelShift      ....    0.2500
   Turn off err/grad.   ShiftErr        ....    0.0010
 Zerner damping         CNVZerner       .... off
 Static damping         CNVDamp         .... on
   Fraction old density DampFac         ....    0.7000
   Max. Damping (<1)    DampMax         ....    0.9800
   Min. Damping (>=0)   DampMin         ....    0.0000
   Turn off err/grad.   DampErr         ....    0.1000
 Fernandez-Rico         CNVRico         .... off

SCF Procedure:
 Maximum # iterations   MaxIter         ....   125
 SCF integral mode      SCFMode         .... Direct
   Integral package                     .... LIBINT
 Reset frequency        DirectResetFreq ....    20
 Integral Threshold     Thresh          ....  1.000e-10 Eh
 Primitive CutOff       TCut            ....  1.000e-11 Eh

Convergence Tolerance:
 Convergence Check Mode ConvCheckMode   .... Total+1el-Energy
 Convergence forced     ConvForced      .... 0
 Energy Change          TolE            ....  1.000e-06 Eh
 1-El. energy change                    ....  1.000e-03 Eh
 DIIS Error             TolErr          ....  1.000e-06


Diagonalization of the overlap matrix:
Smallest eigenvalue                        ... 2.470e-03
Time for diagonalization                   ...    0.004 sec
Threshold for overlap eigenvalues          ... 1.000e-08
Number of eigenvalues below threshold      ... 0
Time for construction of square roots      ...    0.002 sec
Total time needed                          ...    0.007 sec

-------------------
DFT GRID GENERATION
-------------------

General Integration Accuracy     IntAcc      ...  4.670
Radial Grid Type                 RadialGrid  ... Gauss-Chebyshev
Angular Grid (max. acc.)         AngularGrid ... Lebedev-302
Angular grid pruning method      GridPruning ... 3 (G Style)
Weight generation scheme         WeightScheme... Becke
Basis function cutoff            BFCut       ...    1.0000e-10
Integration weight cutoff        WCut        ...    1.0000e-14
Grids for H and He will be reduced by one unit

# of grid points (after initial pruning)     ...  16378 (   0.0 sec)
# of grid points (after weights+screening)   ...  16351 (   0.0 sec)
nearest neighbour list constructed           ...    0.0 sec
Grid point re-assignment to atoms done       ...    0.0 sec
Grid point division into batches done        ...    0.1 sec
Reduced shell lists constructed in    0.1 sec

Total number of grid points                  ...    16351
Total number of batches                      ...      256
Average number of points per batch           ...       63
Average number of grid points per atom       ...     8176
Average number of shells per batch           ...     6.33 (17.59%)
Average number of basis functions per batch  ...    18.00 (15.25%)
Average number of large shells per batch     ...     3.92 (61.84%)
Average number of large basis fcns per batch ...    10.75 (59.72%)
Maximum spatial batch extension              ...  24.49, 24.19, 18.13 au
Average spatial batch extension              ...   0.85,  0.84,  0.66 au

Time for grid setup =    0.159 sec

------------------------------
INITIAL GUESS: MODEL POTENTIAL
------------------------------
Loading Hartree-Fock densities                     ... done
Calculating cut-offs                               ... done
Setting up the integral package                    ... done
Initializing the effective Hamiltonian             ... done
Starting the Coulomb interaction                   ... done (   0.0 sec)
Reading the grid                                   ... done
Mapping shells                                     ... done
Starting the XC term evaluation                    ... done (   0.0 sec)
  promolecular density results
     # of electrons  =     42.999992190
     EX              =    -61.828189522
     EC              =     -2.427375767
     EX+EC           =    -64.255565289
Transforming the Hamiltonian                       ... done (   0.0 sec)
Diagonalizing the Hamiltonian                      ... done (   0.0 sec)
Back transforming the eigenvectors                 ... done (   0.0 sec)
Now organizing SCF variables                       ... done
                      ------------------
                      INITIAL GUESS DONE (   0.2 sec)
                      ------------------
--------------
SCF ITERATIONS
--------------
ITER       Energy         Delta-E        Max-DP      RMS-DP      [F,P]     Damp
               ***  Starting incremental Fock matrix formation  ***
  0  -1720.9543271331   0.000000000000 0.37224328  0.00665922  0.8661598 0.7000
  1  -1722.0228057215  -1.068478588450 0.25240245  0.00355075  0.2415478 0.7000
                               ***Turning on DIIS***
  2  -1722.5815781350  -0.558772413480 0.17392053  0.00240275  0.1819148 0.7000
  3  -1722.9552263773  -0.373648242272 0.12479305  0.00171534  0.1035467 0.7000
  4  -1723.2177260379  -0.262499660686 0.29895624  0.00432395  0.0679644 0.0000
  5  -1723.8700284215  -0.652302383565 0.06087572  0.00106527  0.0420036 0.0000
  6  -1723.8808885641  -0.010860142546 0.02901212  0.00047434  0.0091297 0.0000
  7  -1723.8827390073  -0.001850443265 0.01867027  0.00029765  0.0062211 0.0000
  8  -1723.8834053236  -0.000666316255 0.00854734  0.00014558  0.0049691 0.0000
  9  -1723.8836667168  -0.000261393181 0.00410054  0.00007775  0.0015623 0.0000
 10  -1723.8837558669  -0.000089150161 0.00308943  0.00005961  0.0009231 0.0000
 11  -1723.8837878516  -0.000031984684 0.00077022  0.00001435  0.0003307 0.0000
 12  -1723.8837907650  -0.000002913405 0.00051233  0.00000823  0.0001802 0.0000
 13  -1723.8837917068  -0.000000941841 0.00040760  0.00000528  0.0001066 0.0000
 14  -1723.8837920292  -0.000000322366 0.00018500  0.00000229  0.0000710 0.0000
                 **** Energy Check signals convergence ****

               *****************************************************
               *                     SUCCESS                       *
               *           SCF CONVERGED AFTER  15 CYCLES          *
               *****************************************************


Setting up the DFT-NL grid :

General Integration Accuracy     IntAcc      ...  4.340
Radial Grid Type                 RadialGrid  ... Gauss-Chebyshev
Angular Grid (max. acc.)         AngularGrid ... Lebedev-110
Angular grid pruning method      GridPruning ... 3 (G Style)
Weight generation scheme         WeightScheme... Becke
Basis function cutoff            BFCut       ...    1.0000e-10
Integration weight cutoff        WCut        ...    1.0000e-14
Grids for H and He will be reduced by one unit

# of grid points (after initial pruning)     ...   4756 (   0.0 sec)
# of grid points (after weights+screening)   ...   4731 (   0.0 sec)
nearest neighbour list constructed           ...    0.0 sec
Grid point re-assignment to atoms done       ...    0.0 sec
Grid point division into batches done        ...    0.0 sec
Reduced shell lists constructed in    0.0 sec

Total number of grid points                  ...     4731
Total number of batches                      ...       75
Average number of points per batch           ...       63
Average number of grid points per atom       ...     2366
Average number of shells per batch           ...    10.40 (28.89%)
Average number of basis functions per batch  ...    31.20 (26.44%)
Average number of large shells per batch     ...     8.40 (80.77%)
Average number of large basis fcns per batch ...    24.40 (78.21%)
Maximum spatial batch extension              ...  18.98, 28.73, 16.15 au
Average spatial batch extension              ...   0.96,  1.29,  0.86 au

Final grid set up in    0.0 sec

-------------------------------------------------------------------------------
                         DFT-NL dispersion correction                          
-------------------------------------------------------------------------------

SC Energy -1723.883792100 
NL    Energy 0.180216364 
SC+NL Energy -1723.703575735 
NL done in    0.0 sec
-------------------------------------------------------------------------------

----------------
TOTAL SCF ENERGY
----------------

Total Energy       :        -1723.70357574 Eh          -46904.35887 eV

Components:
Nuclear Repulsion  :          106.31651185 Eh            2893.01937 eV
Electronic Energy  :        -1830.02008758 Eh          -49797.37823 eV
One Electron Energy:        -2591.64955823 Eh          -70522.36977 eV
Two Electron Energy:          761.62947065 Eh           20724.99153 eV

Virial components:
Potential Energy   :        -3445.04153500 Eh          -93744.34604 eV
Kinetic Energy     :         1721.33795926 Eh           46839.98717 eV
Virial Ratio       :            2.00137429


DFT components:
N(Alpha)           :       23.999998264093 electrons
N(Beta)            :       18.999999834211 electrons
N(Total)           :       42.999998098304 electrons
E(X)               :      -61.993497139345 Eh       
E(C)               :       -2.382841603941 Eh       
NL Energy, E(C,NL) :        0.180216364470 Eh       
E(XC)              :      -64.196122378816 Eh       
DFET-embed. en.    :        0.000000000000 Eh       

---------------
SCF CONVERGENCE
---------------

  Last Energy change         ...   -7.0601e-08  Tolerance :   1.0000e-06
  Last MAX-Density change    ...    1.8989e-04  Tolerance :   1.0000e-05
  Last RMS-Density change    ...    2.2492e-06  Tolerance :   1.0000e-06
  Last DIIS Error            ...    6.4638e-05  Tolerance :   1.0000e-06

             **** THE GBW FILE WAS UPDATED (TMD19_FeCl.gbw) ****
             **** DENSITY FILE WAS UPDATED (TMD19_FeCl.scfp) ****
             **** ENERGY FILE WAS UPDATED (TMD19_FeCl.en.tmp) ****
----------------------
UHF SPIN CONTAMINATION
----------------------

Warning: in a DFT calculation there is little theoretical justification to 
         calculate <S**2> as in Hartree-Fock theory. We will do it anyways
         but you should keep in mind that the values have only limited relevance

Expectation value of <S**2>     :     8.755996
Ideal value S*(S+1) for S=2.5   :     8.750000
Deviation                       :     0.005996

             **** THE GBW FILE WAS UPDATED (TMD19_FeCl.gbw) ****
             **** DENSITY FILE WAS UPDATED (TMD19_FeCl.scfp) ****
----------------
ORBITAL ENERGIES
----------------
                 SPIN UP ORBITALS
  NO   OCC          E(Eh)            E(eV) 
   0   1.0000    -256.096286     -6968.7342 
   1   1.0000    -101.488043     -2761.6301 
   2   1.0000     -30.243144      -822.9578 
   3   1.0000     -26.100965      -710.2434 
   4   1.0000     -26.100965      -710.2434 
   5   1.0000     -26.068311      -709.3548 
   6   1.0000      -9.528225      -259.2762 
   7   1.0000      -7.278956      -198.0705 
   8   1.0000      -7.276741      -198.0102 
   9   1.0000      -7.276741      -198.0102 
  10   1.0000      -3.778378      -102.8149 
  11   1.0000      -2.574746       -70.0624 
  12   1.0000      -2.574746       -70.0624 
  13   1.0000      -2.509107       -68.2763 
  14   1.0000      -0.916385       -24.9361 
  15   1.0000      -0.591629       -16.0990 
  16   1.0000      -0.591626       -16.0990 
  17   1.0000      -0.568040       -15.4572 
  18   1.0000      -0.568040       -15.4572 
  19   1.0000      -0.545725       -14.8499 
  20   1.0000      -0.441952       -12.0261 
  21   1.0000      -0.413060       -11.2399 
  22   1.0000      -0.413060       -11.2399 
  23   1.0000      -0.295442        -8.0394 
  24   0.0000       0.014688         0.3997 
  25   0.0000       0.014688         0.3997 
  26   0.0000       0.054382         1.4798 
  27   0.0000       0.091180         2.4811 
  28   0.0000       0.112579         3.0634 
  29   0.0000       0.112579         3.0634 
  30   0.0000       0.136262         3.7079 
  31   0.0000       0.136950         3.7266 
  32   0.0000       0.136950         3.7266 
  33   0.0000       0.197073         5.3626 
  34   0.0000       0.209660         5.7051 
  35   0.0000       0.209661         5.7052 
  36   0.0000       0.254480         6.9248 
  37   0.0000       0.266523         7.2524 
  38   0.0000       0.266523         7.2524 
  39   0.0000       0.306649         8.3443 
  40   0.0000       0.306649         8.3444 
  41   0.0000       0.353678         9.6241 
  42   0.0000       0.375441        10.2163 
  43   0.0000       0.375441        10.2163 
  44   0.0000       0.383547        10.4368 
  45   0.0000       0.569124        15.4866 
  46   0.0000       0.569124        15.4866 
  47   0.0000       0.600146        16.3308 
  48   0.0000       0.627090        17.0640 
  49   0.0000       0.627090        17.0640 
  50   0.0000       0.700406        19.0590 
  51   0.0000       0.700407        19.0590 
  52   0.0000       0.703918        19.1546 
  53   0.0000       0.703918        19.1546 
  54   0.0000       0.707792        19.2600 
  55   0.0000       0.855614        23.2824 
  56   0.0000       0.908022        24.7085 
  57   0.0000       0.908022        24.7085 
  58   0.0000       0.992138        26.9974 
  59   0.0000       0.992138        26.9974 
  60   0.0000       1.058311        28.7981 
  61   0.0000       1.272702        34.6320 
  62   0.0000       2.014446        54.8159 
  63   0.0000       2.014446        54.8159 
  64   0.0000       2.020832        54.9896 
  65   0.0000       2.020891        54.9912 
  66   0.0000       2.082373        56.6643 
  67   0.0000       2.115515        57.5661 
  68   0.0000       2.149661        58.4952 
  69   0.0000       2.149661        58.4952 
  70   0.0000       2.185032        59.4578 
  71   0.0000       2.185035        59.4578 
  72   0.0000       2.214454        60.2584 
  73   0.0000       2.214454        60.2584 
  74   0.0000       2.301210        62.6191 
  75   0.0000       2.301210        62.6191 
  76   0.0000       2.345418        63.8221 
  77   0.0000       2.345418        63.8221 
  78   0.0000       2.368930        64.4619 
  79   0.0000       2.368930        64.4619 
  80   0.0000       2.452769        66.7432 
  81   0.0000       2.461163        66.9717 
  82   0.0000       2.461163        66.9717 
  83   0.0000       2.577884        70.1478 
  84   0.0000       2.631008        71.5934 
  85   0.0000       2.631008        71.5934 
  86   0.0000       2.808308        76.4179 
  87   0.0000       3.314454        90.1909 
  88   0.0000       3.408315        92.7450 
  89   0.0000       3.408344        92.7457 
  90   0.0000       3.494586        95.0925 
  91   0.0000       3.494586        95.0925 
  92   0.0000       3.653701        99.4223 
  93   0.0000       8.256039       224.6583 
  94   0.0000       8.256152       224.6613 
  95   0.0000       8.281427       225.3491 
  96   0.0000       8.281427       225.3491 
  97   0.0000       8.361946       227.5401 
  98   0.0000       8.403854       228.6805 
  99   0.0000       8.404054       228.6859 
 100   0.0000       8.413264       228.9366 
 101   0.0000       8.413264       228.9366 
 102   0.0000       8.437912       229.6073 
 103   0.0000       8.437913       229.6073 
 104   0.0000       8.471149       230.5117 
 105   0.0000       8.471149       230.5117 
 106   0.0000       8.493011       231.1066 
 107   0.0000       9.058370       246.4908 
 108   0.0000       9.058370       246.4908 
 109   0.0000       9.080720       247.0989 
 110   0.0000       9.080835       247.1021 
 111   0.0000       9.163075       249.3399 
 112   0.0000       9.163075       249.3399 
 113   0.0000       9.331517       253.9235 
 114   0.0000      10.924716       297.2766 
 115   0.0000      10.924716       297.2766 
 116   0.0000      11.166657       303.8602 
 117   0.0000      25.123282       683.6392 

                 SPIN DOWN ORBITALS
  NO   OCC          E(Eh)            E(eV) 
   0   1.0000    -256.094257     -6968.6790 
   1   1.0000    -101.486580     -2761.5902 
   2   1.0000     -30.166415      -820.8699 
   3   1.0000     -26.034218      -708.4271 
   4   1.0000     -26.034218      -708.4271 
   5   1.0000     -26.015431      -707.9159 
   6   1.0000      -9.526973      -259.2421 
   7   1.0000      -7.276448      -198.0022 
   8   1.0000      -7.274945      -197.9613 
   9   1.0000      -7.274945      -197.9613 
  10   1.0000      -3.593935       -97.7959 
  11   1.0000      -2.358162       -64.1688 
  12   1.0000      -2.358162       -64.1688 
  13   1.0000      -2.345077       -63.8128 
  14   1.0000      -0.906137       -24.6572 
  15   1.0000      -0.479488       -13.0475 
  16   1.0000      -0.417004       -11.3473 
  17   1.0000      -0.417004       -11.3473 
  18   1.0000      -0.388026       -10.5587 
  19   0.0000      -0.055419        -1.5080 
  20   0.0000      -0.055416        -1.5079 
  21   0.0000      -0.022163        -0.6031 
  22   0.0000      -0.022163        -0.6031 
  23   0.0000      -0.020208        -0.5499 
  24   0.0000       0.041912         1.1405 
  25   0.0000       0.041912         1.1405 
  26   0.0000       0.067021         1.8237 
  27   0.0000       0.111275         3.0280 
  28   0.0000       0.116207         3.1621 
  29   0.0000       0.116207         3.1621 
  30   0.0000       0.157167         4.2767 
  31   0.0000       0.157167         4.2767 
  32   0.0000       0.162725         4.4280 
  33   0.0000       0.224535         6.1099 
  34   0.0000       0.224541         6.1101 
  35   0.0000       0.233407         6.3513 
  36   0.0000       0.265959         7.2371 
  37   0.0000       0.302435         8.2297 
  38   0.0000       0.302435         8.2297 
  39   0.0000       0.313395         8.5279 
  40   0.0000       0.313404         8.5282 
  41   0.0000       0.369177        10.0458 
  42   0.0000       0.384754        10.4697 
  43   0.0000       0.384754        10.4697 
  44   0.0000       0.406163        11.0523 
  45   0.0000       0.598543        16.2872 
  46   0.0000       0.598543        16.2872 
  47   0.0000       0.622080        16.9277 
  48   0.0000       0.632964        17.2238 
  49   0.0000       0.632964        17.2238 
  50   0.0000       0.705712        19.2034 
  51   0.0000       0.705713        19.2034 
  52   0.0000       0.719788        19.5864 
  53   0.0000       0.719788        19.5864 
  54   0.0000       0.733067        19.9478 
  55   0.0000       0.869218        23.6526 
  56   0.0000       0.967933        26.3388 
  57   0.0000       0.967945        26.3391 
  58   0.0000       1.053110        28.6566 
  59   0.0000       1.053110        28.6566 
  60   0.0000       1.084346        29.5066 
  61   0.0000       1.297321        35.3019 
  62   0.0000       2.025775        55.1241 
  63   0.0000       2.025834        55.1258 
  64   0.0000       2.035318        55.3838 
  65   0.0000       2.035318        55.3838 
  66   0.0000       2.101189        57.1763 
  67   0.0000       2.140254        58.2393 
  68   0.0000       2.169785        59.0429 
  69   0.0000       2.169785        59.0429 
  70   0.0000       2.200224        59.8711 
  71   0.0000       2.200227        59.8712 
  72   0.0000       2.219587        60.3980 
  73   0.0000       2.219587        60.3980 
  74   0.0000       2.402038        65.3628 
  75   0.0000       2.402038        65.3628 
  76   0.0000       2.443335        66.4865 
  77   0.0000       2.443335        66.4865 
  78   0.0000       2.448890        66.6377 
  79   0.0000       2.448907        66.6381 
  80   0.0000       2.490134        67.7600 
  81   0.0000       2.490134        67.7600 
  82   0.0000       2.503391        68.1207 
  83   0.0000       2.633502        71.6612 
  84   0.0000       2.685424        73.0741 
  85   0.0000       2.685424        73.0741 
  86   0.0000       2.894854        78.7730 
  87   0.0000       3.358421        91.3873 
  88   0.0000       3.538366        96.2838 
  89   0.0000       3.538385        96.2844 
  90   0.0000       3.628960        98.7490 
  91   0.0000       3.628960        98.7490 
  92   0.0000       3.724493       101.3486 
  93   0.0000       8.257651       224.7021 
  94   0.0000       8.257764       224.7052 
  95   0.0000       8.286959       225.4996 
  96   0.0000       8.286959       225.4996 
  97   0.0000       8.370050       227.7606 
  98   0.0000       8.532367       232.1775 
  99   0.0000       8.532532       232.1820 
 100   0.0000       8.564290       233.0462 
 101   0.0000       8.564290       233.0462 
 102   0.0000       8.566846       233.1157 
 103   0.0000       8.566849       233.1158 
 104   0.0000       8.571300       233.2369 
 105   0.0000       8.571300       233.2369 
 106   0.0000       8.584467       233.5952 
 107   0.0000       9.245359       251.5790 
 108   0.0000       9.245359       251.5790 
 109   0.0000       9.282796       252.5977 
 110   0.0000       9.282898       252.6005 
 111   0.0000       9.311415       253.3765 
 112   0.0000       9.311415       253.3765 
 113   0.0000       9.453788       257.2507 
 114   0.0000      10.927284       297.3465 
 115   0.0000      10.927284       297.3465 
 116   0.0000      11.171990       304.0053 
 117   0.0000      25.125343       683.6953 

                    ********************************
                    * MULLIKEN POPULATION ANALYSIS *
                    ********************************

--------------------------------------------
MULLIKEN ATOMIC CHARGES AND SPIN POPULATIONS
--------------------------------------------
   0 Fe:    0.411281    4.895832
   1 Cl:   -0.411281    0.104168
Sum of atomic charges         :   -0.0000000
Sum of atomic spin populations:    5.0000000

-----------------------------------------------------
MULLIKEN REDUCED ORBITAL CHARGES AND SPIN POPULATIONS
-----------------------------------------------------
CHARGE
  0 Fes       :     7.205387  s :     7.205387
      pz      :     4.292987  p :    12.367870
      px      :     4.037441
      py      :     4.037441
      dz2     :     1.915894  d :     6.013385
      dxz     :     1.048898
      dyz     :     1.048898
      dx2y2   :     0.999847
      dxy     :     0.999847
      f0      :     0.000978  f :     0.002013
      f+1     :     0.000516
      f-1     :     0.000516
      f+2     :     0.000001
      f-2     :     0.000001
      f+3     :     0.000000
      f-3     :     0.000000
      g0      :     0.000031  g :     0.000064
      g+1     :     0.000015
      g-1     :     0.000015
      g+2     :     0.000001
      g-2     :     0.000001
      g+3     :     0.000000
      g-3     :     0.000000
      g+4     :     0.000000
      g-4     :     0.000000
  1 Cls       :     5.932718  s :     5.932718
      pz      :     3.646760  p :    11.455950
      px      :     3.904595
      py      :     3.904595
      dz2     :     0.004250  d :     0.020890
      dxz     :     0.008183
      dyz     :     0.008183
      dx2y2   :     0.000137
      dxy     :     0.000137
      f0      :     0.000995  f :     0.001723
      f+1     :     0.000351
      f-1     :     0.000351
      f+2     :     0.000013
      f-2     :     0.000013
      f+3     :     0.000000
      f-3     :     0.000000

SPIN
  0 Fes       :     0.730055  s :     0.730055
      pz      :     0.187102  p :     0.195037
      px      :     0.003968
      py      :     0.003968
      dz2     :     0.065262  d :     3.970713
      dxz     :     0.952878
      dyz     :     0.952878
      dx2y2   :     0.999847
      dxy     :     0.999847
      f0      :     0.000070  f :    -0.000024
      f+1     :    -0.000048
      f-1     :    -0.000048
      f+2     :     0.000001
      f-2     :     0.000001
      f+3     :     0.000000
      f-3     :     0.000000
      g0      :     0.000021  g :     0.000051
      g+1     :     0.000014
      g-1     :     0.000014
      g+2     :     0.000001
      g-2     :     0.000001
      g+3     :     0.000000
      g-3     :     0.000000
      g+4     :     0.000000
      g-4     :     0.000000
  1 Cls       :    -0.012972  s :    -0.012972
      pz      :     0.035305  p :     0.124171
      px      :     0.044433
      py      :     0.044433
      dz2     :    -0.004747  d :    -0.007066
      dxz     :    -0.001296
      dyz     :    -0.001296
      dx2y2   :     0.000137
      dxy     :     0.000137
      f0      :    -0.000095  f :     0.000035
      f+1     :     0.000052
      f-1     :     0.000052
      f+2     :     0.000013
      f-2     :     0.000013
      f+3     :     0.000000
      f-3     :     0.000000


                     *******************************
                     * LOEWDIN POPULATION ANALYSIS *
                     *******************************

-------------------------------------------
LOEWDIN ATOMIC CHARGES AND SPIN POPULATIONS
-------------------------------------------
   0 Fe:    0.268827    4.740175
   1 Cl:   -0.268827    0.259825

----------------------------------------------------
LOEWDIN REDUCED ORBITAL CHARGES AND SPIN POPULATIONS
----------------------------------------------------
CHARGE
  0 Fes       :     6.830605  s :     6.830605
      pz      :     4.491095  p :    12.633309
      px      :     4.071107
      py      :     4.071107
      dz2     :     2.039483  d :     6.262400
      dxz     :     1.112040
      dyz     :     1.112040
      dx2y2   :     0.999418
      dxy     :     0.999418
      f0      :     0.002863  f :     0.004772
      f+1     :     0.000953
      f-1     :     0.000953
      f+2     :     0.000001
      f-2     :     0.000001
      f+3     :     0.000000
      f-3     :     0.000000
      g0      :     0.000046  g :     0.000086
      g+1     :     0.000019
      g-1     :     0.000019
      g+2     :     0.000001
      g-2     :     0.000001
      g+3     :     0.000000
      g-3     :     0.000000
      g+4     :     0.000000
      g-4     :     0.000000
  1 Cls       :     5.749515  s :     5.749515
      pz      :     3.801427  p :    11.414620
      px      :     3.806596
      py      :     3.806596
      dz2     :     0.082810  d :     0.101335
      dxz     :     0.008711
      dyz     :     0.008711
      dx2y2   :     0.000551
      dxy     :     0.000551
      f0      :     0.002156  f :     0.003358
      f+1     :     0.000573
      f-1     :     0.000573
      f+2     :     0.000028
      f-2     :     0.000028
      f+3     :     0.000000
      f-3     :     0.000000

SPIN
  0 Fes       :     0.501931  s :     0.501931
      pz      :     0.270362  p :     0.281920
      px      :     0.005779
      py      :     0.005779
      dz2     :     0.064159  d :     3.955980
      dxz     :     0.946492
      dyz     :     0.946492
      dx2y2   :     0.999418
      dxy     :     0.999418
      f0      :     0.000339  f :     0.000287
      f+1     :    -0.000027
      f-1     :    -0.000027
      f+2     :     0.000001
      f-2     :     0.000001
      f+3     :     0.000000
      f-3     :     0.000000
      g0      :     0.000024  g :     0.000057
      g+1     :     0.000015
      g-1     :     0.000015
      g+2     :     0.000001
      g-2     :     0.000001
      g+3     :     0.000000
      g-3     :     0.000000
      g+4     :     0.000000
      g-4     :     0.000000
  1 Cls       :     0.035617  s :     0.035617
      pz      :     0.099217  p :     0.189640
      px      :     0.045211
      py      :     0.045211
      dz2     :     0.028140  d :     0.033575
      dxz     :     0.002166
      dyz     :     0.002166
      dx2y2   :     0.000551
      dxy     :     0.000551
      f0      :     0.000211  f :     0.000993
      f+1     :     0.000363
      f-1     :     0.000363
      f+2     :     0.000028
      f-2     :     0.000028
      f+3     :     0.000000
      f-3     :     0.000000


                      *****************************
                      * MAYER POPULATION ANALYSIS *
                      *****************************

  NA   - Mulliken gross atomic population
  ZA   - Total nuclear charge
  QA   - Mulliken gross atomic charge
  VA   - Mayer's total valence
  BVA  - Mayer's bonded valence
  FA   - Mayer's free valence

  ATOM       NA         ZA         QA         VA         BVA        FA
  0 Fe    25.5887    26.0000     0.4113     5.6276     0.8107     4.8170
  1 Cl    17.4113    17.0000    -0.4113     0.8278     0.8107     0.0171

  Mayer bond orders larger than 0.100000
B(  0-Fe,  1-Cl) :   0.8107 

-------
TIMINGS
-------

Total SCF time: 0 days 0 hours 0 min 4 sec 

Total time                  ....       4.777 sec
Sum of individual times     ....       4.552 sec  ( 95.3%)

Fock matrix formation       ....       4.201 sec  ( 87.9%)
  XC integration            ....       0.542 sec  ( 12.9% of F)
    Basis function eval.    ....       0.027 sec  (  5.0% of XC)
    Density eval.           ....       0.029 sec  (  5.3% of XC)
    XC-Functional eval.     ....       0.019 sec  (  3.5% of XC)
    XC-Potential eval.      ....       0.058 sec  ( 10.7% of XC)
Diagonalization             ....       0.056 sec  (  1.2%)
Density matrix formation    ....       0.009 sec  (  0.2%)
Population analysis         ....       0.006 sec  (  0.1%)
Initial guess               ....       0.084 sec  (  1.8%)
Orbital Transformation      ....       0.000 sec  (  0.0%)
Orbital Orthonormalization  ....       0.000 sec  (  0.0%)
DIIS solution               ....       0.023 sec  (  0.5%)
Grid generation             ....       0.172 sec  (  3.6%)

-------------------------   --------------------
FINAL SINGLE POINT ENERGY     -1723.703575735339
-------------------------   --------------------


                            ***************************************
                            *     ORCA property calculations      *
                            ***************************************

                                    ---------------------
                                    Active property flags
                                    ---------------------
   (+) Dipole Moment


------------------------------------------------------------------------------
                       ORCA ELECTRIC PROPERTIES CALCULATION
------------------------------------------------------------------------------

Dipole Moment Calculation                       ... on
Quadrupole Moment Calculation                   ... off
Polarizability Calculation                      ... off
GBWName                                         ... TMD19_FeCl.gbw
Electron density file                           ... TMD19_FeCl.scfp
The origin for moment calculation is the CENTER OF MASS  = ( 0.000000,  0.000000  0.029302)

-------------
DIPOLE MOMENT
-------------
                                X             Y             Z
Electronic contribution:     -0.00000      -0.00000       2.28879
Nuclear contribution   :      0.00000       0.00000      -1.26002
                        -----------------------------------------
Total Dipole Moment    :     -0.00000      -0.00000       1.02877
                        -----------------------------------------
Magnitude (a.u.)       :      1.02877
Magnitude (Debye)      :      2.61493



--------------------
Rotational spectrum 
--------------------
 
Rotational constants in cm-1:     0.000000     0.160606     0.160606 
Rotational constants in MHz :     0.000000  4814.831818  4814.831818 

 Dipole components along the rotational axes: 
x,y,z [a.u.] :     1.028770    -0.000000    -0.000000 
x,y,z [Debye]:     2.614926    -0.000000    -0.000000 

 

Timings for individual modules:

Sum of individual times         ...        5.816 sec (=   0.097 min)
GTO integral calculation        ...        0.667 sec (=   0.011 min)  11.5 %
SCF iterations                  ...        5.149 sec (=   0.086 min)  88.5 %
                             ****ORCA TERMINATED NORMALLY****
TOTAL RUN TIME: 0 days 0 hours 0 minutes 6 seconds 260 msec
