
                                 *****************
                                 * O   R   C   A *
                                 *****************

           --- An Ab Initio, DFT and Semiempirical electronic structure package ---

                  #######################################################
                  #                        -***-                        #
                  #          Department of theory and spectroscopy      #
                  #               Directorship: Frank Neese             #
                  #        Max Planck Institute fuer Kohlenforschung    #
                  #                Kaiser Wilhelm Platz 1               #
                  #                 D-45470 Muelheim/Ruhr               #
                  #                      Germany                        #
                  #                                                     #
                  #                  All rights reserved                #
                  #                        -***-                        #
                  #######################################################


                         Program Version 4.2.0 -  RELEASE  -


 With contributions from (in alphabetic order):
   Daniel Aravena         : Magnetic Suceptibility
   Michael Atanasov       : Ab Initio Ligand Field Theory (pilot matlab implementation)
   Alexander A. Auer      : GIAO ZORA, VPT2
   Ute Becker             : Parallelization
   Giovanni Bistoni       : ED, misc. LED, open-shell LED, HFLED
   Martin Brehm           : Molecular dynamics
   Dmytro Bykov           : SCF Hessian
   Vijay G. Chilkuri      : MRCI spin determinant printing, contributions to CSF-ICE
   Dipayan Datta          : RHF DLPNO-CCSD density
   Achintya Kumar Dutta   : EOM-CC, STEOM-CC
   Dmitry Ganyushin       : Spin-Orbit,Spin-Spin,Magnetic field MRCI
   Miquel Garcia          : C-PCM Hessian, Gaussian charge scheme
   Yang Guo               : DLPNO-NEVPT2, CIM, IAO-localization
   Andreas Hansen         : Spin unrestricted coupled pair/coupled cluster methods
   Benjamin Helmich-Paris : CASSCF linear response (MC-RPA)
   Lee Huntington         : MR-EOM, pCC
   Robert Izsak           : Overlap fitted RIJCOSX, COSX-SCS-MP3, EOM
   Christian Kollmar      : KDIIS, OOCD, Brueckner-CCSD(T), CCSD density
   Simone Kossmann        : Meta GGA functionals, TD-DFT gradient, OOMP2, MP2 Hessian
   Martin Krupicka        : AUTO-CI
   Lucas Lang             : DCDCAS
   Dagmar Lenk            : GEPOL surface, SMD
   Dimitrios Liakos       : Extrapolation schemes; Compound Job, initial MDCI parallelization
   Dimitrios Manganas     : Further ROCIS development; embedding schemes
   Dimitrios Pantazis     : SARC Basis sets
   Taras Petrenko         : DFT Hessian,TD-DFT gradient, ASA, ECA, R-Raman, ABS, FL, XAS/XES, NRVS
   Peter Pinski           : DLPNO-MP2, DLPNO-MP2 Gradient
   Christoph Reimann      : Effective Core Potentials
   Marius Retegan         : Local ZFS, SOC
   Christoph Riplinger    : Optimizer, TS searches, QM/MM, DLPNO-CCSD(T), (RO)-DLPNO pert. Triples
   Tobias Risthaus        : Range-separated hybrids, TD-DFT gradient, RPA, STAB
   Michael Roemelt        : Original ROCIS implementation
   Masaaki Saitow         : Open-shell DLPNO-CCSD energy and density
   Barbara Sandhoefer     : DKH picture change effects
   Avijit Sen             : IP-ROCIS
   Kantharuban Sivalingam : CASSCF convergence, NEVPT2, FIC-MRCI
   Bernardo de Souza      : ESD, SOC TD-DFT
   Georgi Stoychev        : AutoAux, RI-MP2 NMR
   Willem Van den Heuvel  : Paramagnetic NMR
   Boris Wezisla          : Elementary symmetry handling
   Frank Wennmohs         : Technical directorship


 We gratefully acknowledge several colleagues who have allowed us to
 interface, adapt or use parts of their codes:
   Stefan Grimme, W. Hujo, H. Kruse,             : VdW corrections, initial TS optimization,
                  C. Bannwarth                     DFT functionals, gCP, sTDA/sTD-DF
   Ed Valeev, F. Pavosevic, A. Kumar             : LibInt (2-el integral package), F12 methods
   Garnet Chan, S. Sharma, J. Yang, R. Olivares  : DMRG
   Ulf Ekstrom                                   : XCFun DFT Library
   Mihaly Kallay                                 : mrcc  (arbitrary order and MRCC methods)
   Andreas Klamt, Michael Diedenhofen            : otool_cosmo (COSMO solvation model)
   Jiri Pittner, Ondrej Demel                    : Mk-CCSD
   Frank Weinhold                                : gennbo (NPA and NBO analysis)
   Christopher J. Cramer and Donald G. Truhlar   : smd solvation model
   Lars Goerigk                                  : TD-DFT with DH, B97 family of functionals
   V. Asgeirsson, H. Jonsson                     : NEB implementation
   FAccTs GmbH                                   : IRC, NEB, NEB-TS, Multilevel, MM, QM/MM, CI optimization
   S Lehtola, MJT Oliveira, MAL Marques          : LibXC Library


 Your calculation uses the libint2 library for the computation of 2-el integrals
 For citations please refer to: http://libint.valeyev.net

 Your ORCA version has been built with support for libXC version: 4.2.3
 For citations please refer to: https://tddft.org/programs/libxc/

 This ORCA versions uses:
   CBLAS   interface :  Fast vector & matrix operations
   LAPACKE interface :  Fast linear algebra routines
   SCALAPACK package :  Parallel linear algebra routines


Your calculation utilizes the DFT-NL dispersion correction.
Cite in your paper:
Vydrov, O. A.; Van Voorhis, T. J. Chem. Phys. 2010, 133, 244103
Hujo, W.; Grimme, S. J. Chem. Theory Comput. 2011, 7, 3866 
   

----- Orbital basis set information -----
Your calculation utilizes the basis: def2-TZVPPD
   F. Weigend and R. Ahlrichs, Phys. Chem. Chem. Phys. 7, 3297 (2005).
   D. Rappoport and F. Furche, J. Chem. Phys. 133 134105 (2010).

----- AuxJK basis set information -----
Your calculation utilizes the auxiliary basis: def2/JK
   H-Ba, Hf-Rn: F. Weigend, J. Comput. Chem. 29, 167 (2008).

================================================================================
                                        WARNINGS
                       Please study these warnings very carefully!
================================================================================


INFO   : the flag for use of LIBINT has been found!

================================================================================
                                       INPUT FILE
================================================================================
NAME = TMD14_Zn.in
|  1> #
|  2> # TMD14_Zn wB97X-V/Def2-TZVPPD
|  3> #
|  4> ! wb97x-v def2-tzvppd def2/jk grid4 nofinalgrid
|  5> 
|  6> *xyz 0 1
|  7> Zn       0.000000    0.000000    0.000000 
|  8> *
|  9> 
| 10> %maxcore 5000
| 11> 
| 12> %pal
| 13> nprocs = 24
| 14> end
| 15> 
| 16> 
| 17>                          ****END OF INPUT****
================================================================================

                       ****************************
                       * Single Point Calculation *
                       ****************************

---------------------------------
CARTESIAN COORDINATES (ANGSTROEM)
---------------------------------
  Zn     0.000000    0.000000    0.000000

----------------------------
CARTESIAN COORDINATES (A.U.)
----------------------------
  NO LB      ZA    FRAG     MASS         X           Y           Z
   0 Zn   30.0000    0    65.380    0.000000    0.000000    0.000000

--------------------------------
INTERNAL COORDINATES (ANGSTROEM)
--------------------------------
 Zn     0   0   0     0.000000000000     0.00000000     0.00000000

---------------------------
INTERNAL COORDINATES (A.U.)
---------------------------
 Zn     0   0   0     0.000000000000     0.00000000     0.00000000

---------------------
BASIS SET INFORMATION
---------------------
There are 1 groups of distinct atoms

 Group   1 Type Zn  : 17s13p7d2f1g contracted to 6s6p4d2f1g pattern {842111/631111/4111/11/1}

Atom   0Zn   basis set group =>   1
----------------------------------
AUXILIARY/JK BASIS SET INFORMATION
----------------------------------
There are 1 groups of distinct atoms

 Group   1 Type Zn  : 19s14p12d10f7g3h1i contracted to 16s13p11d9f5g3h1i pattern {4111111111111111/2111111111111/21111111111/211111111/31111/111/1}

Atom   0Zn   basis set group =>   1


           ************************************************************
           *        Program running with 24 parallel MPI-processes    *
           *              working on a common directory               *
           ************************************************************
------------------------------------------------------------------------------
                           ORCA GTO INTEGRAL CALCULATION
------------------------------------------------------------------------------

                         BASIS SET STATISTICS AND STARTUP INFO

 # of primitive gaussian shells          ...   40
 # of primitive gaussian functions       ...  114
 # of contracted shells                  ...   19
 # of contracted basis functions         ...   67
 Highest angular momentum                ...    4
 Maximum contraction depth               ...    8
 Integral package used                   ... LIBINT
 Integral threshhold            Thresh   ...  1.000e-10
 Primitive cut-off              TCut     ...  1.000e-11


------------------------------ INTEGRAL EVALUATION ----------------------------


 * One electron integrals 
 Pre-screening matrix                    ... done
 Shell pair data                         ... done (   0.000 sec)



           ************************************************************
           *        Program running with 24 parallel MPI-processes    *
           *              working on a common directory               *
           ************************************************************
-------------------------------------------------------------------------------
                                 ORCA SCF
-------------------------------------------------------------------------------

------------
SCF SETTINGS
------------
Hamiltonian:
 Density Functional     Method          .... DFT(GTOs)
 Exchange Functional    Exchange        .... WB97X-V
 Correlation Functional Correlation     .... WB97X-V
 Gradients option       PostSCFGGA      .... off
 Hybrid DFT is turned on
   Fraction HF Exchange ScalHFX         ....  0.167000
   Scaling of DF-GGA-X  ScalDFX         ....  0.000000
   Scaling of DF-GGA-C  ScalDFC         ....  1.000000
   Scaling of DF-LDA-C  ScalLDAC        ....  1.000000
   Perturbative correction              ....  0.000000
   Density functional embedding theory  .... OFF
 Long-range corrected/Screened/Range-Separated Hybrid DFT is turned on
   Amount of maximum screened exact exchange              ....  0.833000
   Range separation parameter mu (erf(mu*r12)/r12)        ....  0.300000
   NL short-range parameter             ....  6.000000
   NL long-range parameter              ....  0.010000


General Settings:
 Integral files         IntName         .... TMD14_Zn
 Hartree-Fock type      HFTyp           .... RHF
 Total Charge           Charge          ....    0
 Multiplicity           Mult            ....    1
 Number of Electrons    NEL             ....   30
 Basis Dimension        Dim             ....   67
 Nuclear Repulsion      ENuc            ....      0.0000000000 Eh

Convergence Acceleration:
 DIIS                   CNVDIIS         .... on
   Start iteration      DIISMaxIt       ....    12
   Startup error        DIISStart       ....  0.200000
   # of expansion vecs  DIISMaxEq       ....     5
   Bias factor          DIISBfac        ....   1.050
   Max. coefficient     DIISMaxC        ....  10.000
 Newton-Raphson         CNVNR           .... off
 SOSCF                  CNVSOSCF        .... off
 Level Shifting         CNVShift        .... on
   Level shift para.    LevelShift      ....    0.2500
   Turn off err/grad.   ShiftErr        ....    0.0010
 Zerner damping         CNVZerner       .... off
 Static damping         CNVDamp         .... on
   Fraction old density DampFac         ....    0.7000
   Max. Damping (<1)    DampMax         ....    0.9800
   Min. Damping (>=0)   DampMin         ....    0.0000
   Turn off err/grad.   DampErr         ....    0.1000
 Fernandez-Rico         CNVRico         .... off

SCF Procedure:
 Maximum # iterations   MaxIter         ....   125
 SCF integral mode      SCFMode         .... Direct
   Integral package                     .... LIBINT
 Reset frequency        DirectResetFreq ....    20
 Integral Threshold     Thresh          ....  1.000e-10 Eh
 Primitive CutOff       TCut            ....  1.000e-11 Eh

Convergence Tolerance:
 Convergence Check Mode ConvCheckMode   .... Total+1el-Energy
 Convergence forced     ConvForced      .... 0
 Energy Change          TolE            ....  1.000e-06 Eh
 1-El. energy change                    ....  1.000e-03 Eh
 DIIS Error             TolErr          ....  1.000e-06


Diagonalization of the overlap matrix:
Smallest eigenvalue                        ... 6.068e-02
Time for diagonalization                   ...    0.002 sec
Threshold for overlap eigenvalues          ... 1.000e-08
Number of eigenvalues below threshold      ... 0
Time for construction of square roots      ...    0.001 sec
Total time needed                          ...    0.003 sec

-------------------
DFT GRID GENERATION
-------------------

General Integration Accuracy     IntAcc      ...  4.670
Radial Grid Type                 RadialGrid  ... Gauss-Chebyshev
Angular Grid (max. acc.)         AngularGrid ... Lebedev-302
Angular grid pruning method      GridPruning ... 3 (G Style)
Weight generation scheme         WeightScheme... Becke
Basis function cutoff            BFCut       ...    1.0000e-10
Integration weight cutoff        WCut        ...    1.0000e-14
Grids for H and He will be reduced by one unit

# of grid points (after initial pruning)     ...   9640 (   0.0 sec)
# of grid points (after weights+screening)   ...   9640 (   0.0 sec)
Grid point division into batches done        ...    0.1 sec
Reduced shell lists constructed in    0.1 sec

Total number of grid points                  ...     9640
Total number of batches                      ...      151
Average number of points per batch           ...       63
Average number of grid points per atom       ...     9640
Average number of shells per batch           ...     3.75 (19.74%)
Average number of basis functions per batch  ...    11.00 (16.42%)
Average number of large shells per batch     ...     2.62 (70.00%)
Average number of large basis fcns per batch ...     6.12 (55.68%)
Maximum spatial batch extension              ...  22.45, 20.42, 18.83 au
Average spatial batch extension              ...   0.86,  0.81,  0.78 au

Time for grid setup =    0.121 sec

------------------------------
INITIAL GUESS: MODEL POTENTIAL
------------------------------
Loading Hartree-Fock densities                     ... done
Calculating cut-offs                               ... done
Setting up the integral package                    ... done
Initializing the effective Hamiltonian             ... done
Starting the Coulomb interaction                   ... done (   0.0 sec)
Reading the grid                                   ... done
Mapping shells                                     ... done
Starting the XC term evaluation                    ... done (   0.0 sec)
  promolecular density results
     # of electrons  =     30.000011373
     EX              =    -53.583528937
     EC              =     -1.874704687
     EX+EC           =    -55.458233624
Transforming the Hamiltonian                       ... done (   0.0 sec)
Diagonalizing the Hamiltonian                      ... done (   0.0 sec)
Back transforming the eigenvectors                 ... done (   0.0 sec)
Now organizing SCF variables                       ... done
                      ------------------
                      INITIAL GUESS DONE (   0.2 sec)
                      ------------------
--------------
SCF ITERATIONS
--------------
ITER       Energy         Delta-E        Max-DP      RMS-DP      [F,P]     Damp
               ***  Starting incremental Fock matrix formation  ***
  0  -1778.0616898588   0.000000000000 0.25026427  0.00907875  1.4038028 0.7000
  1  -1778.6904134380  -0.628723579242 0.22371823  0.00537170  0.4619561 0.7000
                               ***Turning on DIIS***
  2  -1778.9082712933  -0.217857855327 0.13116642  0.00296416  0.1377765 0.7000
  3  -1779.0403177877  -0.132046494401 0.06512069  0.00172420  0.1107313 0.7000
  4  -1779.1327306015  -0.092412813746 0.10712818  0.00328984  0.0831786 0.0000
  5  -1779.3472283643  -0.214497762796 0.04251177  0.00080331  0.0089635 0.0000
  6  -1779.3475094937  -0.000281129432 0.02396153  0.00043956  0.0032882 0.0000
  7  -1779.3475624994  -0.000053005630 0.01034301  0.00018886  0.0017276 0.0000
  8  -1779.3475751493  -0.000012649941 0.01077629  0.00019704  0.0009917 0.0000
  9  -1779.3475808975  -0.000005748245 0.00254668  0.00004670  0.0002304 0.0000
                 **** Energy Check signals convergence ****

               *****************************************************
               *                     SUCCESS                       *
               *           SCF CONVERGED AFTER  10 CYCLES          *
               *****************************************************


Setting up the DFT-NL grid :

General Integration Accuracy     IntAcc      ...  4.340
Radial Grid Type                 RadialGrid  ... Gauss-Chebyshev
Angular Grid (max. acc.)         AngularGrid ... Lebedev-110
Angular grid pruning method      GridPruning ... 3 (G Style)
Weight generation scheme         WeightScheme... Becke
Basis function cutoff            BFCut       ...    1.0000e-10
Integration weight cutoff        WCut        ...    1.0000e-14
Grids for H and He will be reduced by one unit

# of grid points (after initial pruning)     ...   2912 (   0.0 sec)
# of grid points (after weights+screening)   ...   2912 (   0.0 sec)
Grid point division into batches done        ...    0.0 sec
Reduced shell lists constructed in    0.0 sec

Total number of grid points                  ...     2912
Total number of batches                      ...       46
Average number of points per batch           ...       63
Average number of grid points per atom       ...     2912
Average number of shells per batch           ...     4.67 (24.56%)
Average number of basis functions per batch  ...    14.00 (20.90%)
Average number of large shells per batch     ...     4.00 (85.71%)
Average number of large basis fcns per batch ...    10.67 (76.19%)
Maximum spatial batch extension              ...  17.39, 26.34, 26.34 au
Average spatial batch extension              ...   0.76,  1.15,  1.15 au

Final grid set up in    0.0 sec

-------------------------------------------------------------------------------
                         DFT-NL dispersion correction                          
-------------------------------------------------------------------------------

SC Energy -1779.347581147 
NL    Energy 0.128209663 
SC+NL Energy -1779.219371485 
NL done in    0.0 sec
-------------------------------------------------------------------------------

----------------
TOTAL SCF ENERGY
----------------

Total Energy       :        -1779.21937148 Eh          -48415.02047 eV

Components:
Nuclear Repulsion  :            0.00000000 Eh               0.00000 eV
Electronic Energy  :        -1779.21937148 Eh          -48415.02047 eV
One Electron Energy:        -2482.79066976 Eh          -67560.16882 eV
Two Electron Energy:          703.57129828 Eh           19145.14835 eV

Virial components:
Potential Energy   :        -3556.13383518 Eh          -96767.32121 eV
Kinetic Energy     :         1776.91446370 Eh           48352.30074 eV
Virial Ratio       :            2.00129714


DFT components:
N(Alpha)           :       14.999999323459 electrons
N(Beta)            :       14.999999323459 electrons
N(Total)           :       29.999998646918 electrons
E(X)               :      -53.502292590362 Eh       
E(C)               :       -1.873544149935 Eh       
NL Energy, E(C,NL) :        0.128209662614 Eh       
E(XC)              :      -55.247627077683 Eh       
DFET-embed. en.    :        0.000000000000 Eh       

---------------
SCF CONVERGENCE
---------------

  Last Energy change         ...   -2.4995e-07  Tolerance :   1.0000e-06
  Last MAX-Density change    ...    3.4455e-06  Tolerance :   1.0000e-05
  Last RMS-Density change    ...    1.5873e-07  Tolerance :   1.0000e-06
  Last DIIS Error            ...    1.1418e-05  Tolerance :   1.0000e-06

             **** THE GBW FILE WAS UPDATED (TMD14_Zn.gbw) ****
             **** DENSITY FILE WAS UPDATED (TMD14_Zn.scfp) ****
             **** ENERGY FILE WAS UPDATED (TMD14_Zn.en.tmp) ****
             **** THE GBW FILE WAS UPDATED (TMD14_Zn.gbw) ****
             **** DENSITY FILE WAS UPDATED (TMD14_Zn.scfp) ****
----------------
ORBITAL ENERGIES
----------------

  NO   OCC          E(Eh)            E(eV) 
   0   2.0000    -347.098086     -9445.0191 
   1   2.0000     -42.238975     -1149.3809 
   2   2.0000     -37.209335     -1012.5175 
   3   2.0000     -37.209335     -1012.5175 
   4   2.0000     -37.209335     -1012.5175 
   5   2.0000      -4.913589      -133.7056 
   6   2.0000      -3.304416       -89.9177 
   7   2.0000      -3.304416       -89.9177 
   8   2.0000      -3.304416       -89.9177 
   9   2.0000      -0.584625       -15.9085 
  10   2.0000      -0.584625       -15.9085 
  11   2.0000      -0.584625       -15.9085 
  12   2.0000      -0.584625       -15.9085 
  13   2.0000      -0.584625       -15.9085 
  14   2.0000      -0.319895        -8.7048 
  15   0.0000       0.024867         0.6767 
  16   0.0000       0.024867         0.6767 
  17   0.0000       0.024867         0.6767 
  18   0.0000       0.090970         2.4754 
  19   0.0000       0.090970         2.4754 
  20   0.0000       0.090970         2.4754 
  21   0.0000       0.203947         5.5497 
  22   0.0000       0.331998         9.0341 
  23   0.0000       0.331998         9.0341 
  24   0.0000       0.331998         9.0341 
  25   0.0000       0.331998         9.0341 
  26   0.0000       0.331998         9.0341 
  27   0.0000       0.349370         9.5068 
  28   0.0000       0.349370         9.5068 
  29   0.0000       0.349370         9.5068 
  30   0.0000       1.314566        35.7712 
  31   0.0000       1.314566        35.7712 
  32   0.0000       1.314566        35.7712 
  33   0.0000       1.314566        35.7712 
  34   0.0000       1.314566        35.7712 
  35   0.0000       2.492535        67.8253 
  36   0.0000       2.492535        67.8253 
  37   0.0000       2.492535        67.8253 
  38   0.0000       3.542878        96.4066 
  39   0.0000       4.007527       109.0504 
  40   0.0000       4.007527       109.0504 
  41   0.0000       4.007527       109.0504 
  42   0.0000       4.007527       109.0504 
  43   0.0000       4.007527       109.0504 
  44   0.0000       4.007527       109.0504 
  45   0.0000       4.007527       109.0504 
  46   0.0000       4.916201       133.7766 
  47   0.0000       4.916201       133.7766 
  48   0.0000       4.916201       133.7766 
  49   0.0000       4.916201       133.7766 
  50   0.0000       4.916201       133.7766 
  51   0.0000      14.359112       390.7313 
  52   0.0000      14.359112       390.7313 
  53   0.0000      14.359112       390.7313 
  54   0.0000      14.359112       390.7313 
  55   0.0000      14.359112       390.7313 
  56   0.0000      14.359112       390.7313 
  57   0.0000      14.359112       390.7313 
  58   0.0000      14.359112       390.7313 
  59   0.0000      14.359112       390.7313 
  60   0.0000      15.121967       411.4896 
  61   0.0000      15.121967       411.4896 
  62   0.0000      15.121967       411.4896 
  63   0.0000      15.121967       411.4896 
  64   0.0000      15.121967       411.4896 
  65   0.0000      15.121967       411.4896 
  66   0.0000      15.121967       411.4896 

                    ********************************
                    * MULLIKEN POPULATION ANALYSIS *
                    ********************************

-----------------------
MULLIKEN ATOMIC CHARGES
-----------------------
   0 Zn:   -0.000000
Sum of atomic charges:   -0.0000000

--------------------------------
MULLIKEN REDUCED ORBITAL CHARGES
--------------------------------
  0 Zns       :     8.000000  s :     8.000000
      pz      :     4.000000  p :    12.000000
      px      :     4.000000
      py      :     4.000000
      dz2     :     2.000000  d :    10.000000
      dxz     :     2.000000
      dyz     :     2.000000
      dx2y2   :     2.000000
      dxy     :     2.000000
      f0      :     0.000000  f :     0.000000
      f+1     :     0.000000
      f-1     :     0.000000
      f+2     :     0.000000
      f-2     :     0.000000
      f+3     :     0.000000
      f-3     :     0.000000
      g0      :     0.000000  g :     0.000000
      g+1     :     0.000000
      g-1     :     0.000000
      g+2     :     0.000000
      g-2     :     0.000000
      g+3     :     0.000000
      g-3     :     0.000000
      g+4     :     0.000000
      g-4     :     0.000000


                     *******************************
                     * LOEWDIN POPULATION ANALYSIS *
                     *******************************

----------------------
LOEWDIN ATOMIC CHARGES
----------------------
   0 Zn:   -0.000000

-------------------------------
LOEWDIN REDUCED ORBITAL CHARGES
-------------------------------
  0 Zns       :     8.000000  s :     8.000000
      pz      :     4.000000  p :    12.000000
      px      :     4.000000
      py      :     4.000000
      dz2     :     2.000000  d :    10.000000
      dxz     :     2.000000
      dyz     :     2.000000
      dx2y2   :     2.000000
      dxy     :     2.000000
      f0      :     0.000000  f :     0.000000
      f+1     :     0.000000
      f-1     :     0.000000
      f+2     :     0.000000
      f-2     :     0.000000
      f+3     :     0.000000
      f-3     :     0.000000
      g0      :     0.000000  g :     0.000000
      g+1     :     0.000000
      g-1     :     0.000000
      g+2     :     0.000000
      g-2     :     0.000000
      g+3     :     0.000000
      g-3     :     0.000000
      g+4     :     0.000000
      g-4     :     0.000000


                      *****************************
                      * MAYER POPULATION ANALYSIS *
                      *****************************

  NA   - Mulliken gross atomic population
  ZA   - Total nuclear charge
  QA   - Mulliken gross atomic charge
  VA   - Mayer's total valence
  BVA  - Mayer's bonded valence
  FA   - Mayer's free valence

  ATOM       NA         ZA         QA         VA         BVA        FA
  0 Zn    30.0000    30.0000    -0.0000    -0.0000     0.0000    -0.0000

  Mayer bond orders larger than 0.100000


--------------------------
ATOM BASIS FOR ELEMENT Zn
--------------------------
 NewGTO Zn
 S 17
    1     405924.310279999976         0.000236946108
    2      60846.955735000003         0.001837337633
    3      13847.343091999999         0.009556529963
    4       3919.615855100000         0.038872284047
    5       1276.359416700000         0.126748953485
    6        458.672544350000         0.301710168774
    7        178.287252460000         0.433807394899
    8         70.612192837000         0.230346659902
    9        443.880779500000        -0.000179705576
   10        137.558752670000        -0.000851740247
   11         22.268083479000         0.003990417159
   12          9.521731060600         0.003793057184
   13         14.874114065000         0.000988139371
   14          2.464751761200        -0.003065499797
   15          1.011327223800         0.001677993863
   16          0.149198520900        -0.000444490743
   17          0.051441873000         0.000200516485
 S 17
    1     405924.310279999976         0.000076116830
    2      60846.955735000003         0.000590228375
    3      13847.343091999999         0.003069950263
    4       3919.615855100000         0.012487375553
    5       1276.359416700000         0.040716974109
    6        458.672544350000         0.096921708564
    7        178.287252460000         0.139356767696
    8         70.612192837000         0.073996815986
    9        443.880779500000         0.026093124581
   10        137.558752670000         0.123672090808
   11         22.268083479000        -0.579405793259
   12          9.521731060600        -0.550749262199
   13         14.874114065000         0.015813526732
   14          2.464751761200        -0.049058224374
   15          1.011327223800         0.014420143752
   16          0.149198520900        -0.003162539587
   17          0.051441873000         0.001402950775
 S 17
    1     405924.310279999976         0.000028735450
    2      60846.955735000003         0.000222821654
    3      13847.343091999999         0.001158960538
    4       3919.615855100000         0.004714205197
    5       1276.359416700000         0.015371378087
    6        458.672544350000         0.036589659713
    7        178.287252460000         0.052609645293
    8         70.612192837000         0.027935107180
    9        443.880779500000         0.011812607496
   10        137.558752670000         0.055987540410
   11         22.268083479000        -0.262302553892
   12          9.521731060600        -0.249329467723
   13         14.874114065000        -0.240096094700
   14          2.464751761200         0.744848905915
   15          1.011327223800         0.474931163661
   16          0.149198520900         0.017137834166
   17          0.051441873000        -0.005864849011
 S 17
    1     405924.310279999976         0.000006855221
    2      60846.955735000003         0.000053157044
    3      13847.343091999999         0.000276485319
    4       3919.615855100000         0.001124635815
    5       1276.359416700000         0.003667044943
    6        458.672544350000         0.008728945827
    7        178.287252460000         0.012550724640
    8         70.612192837000         0.006664288194
    9        443.880779500000         0.002315958837
   10        137.558752670000         0.010976817694
   11         22.268083479000        -0.051426572657
   12          9.521731060600        -0.048883092433
   13         14.874114065000        -0.081549631227
   14          2.464751761200         0.252991010427
   15          1.011327223800         0.243180194960
   16          0.149198520900        -0.698940443145
   17          0.051441873000        -0.441633876176
 S 17
    1     405924.310279999976         0.000005519076
    2      60846.955735000003         0.000042796256
    3      13847.343091999999         0.000222595834
    4       3919.615855100000         0.000905434141
    5       1276.359416700000         0.002952304777
    6        458.672544350000         0.007027595479
    7        178.287252460000         0.010104475098
    8         70.612192837000         0.005365358259
    9        443.880779500000         0.002198845315
   10        137.558752670000         0.010421741428
   11         22.268083479000        -0.048826031158
   12          9.521731060600        -0.046411169769
   13         14.874114065000        -0.057633355787
   14          2.464751761200         0.178795669525
   15          1.011327223800         0.348613766010
   16          0.149198520900        -1.900315375803
   17          0.051441873000         1.770089414321
 S 17
    1     405924.310279999976        -0.000039566681
    2      60846.955735000003        -0.000306809648
    3      13847.343091999999        -0.001595806639
    4       3919.615855100000        -0.006491126925
    5       1276.359416700000        -0.021165299773
    6        458.672544350000        -0.050381371925
    7        178.287252460000        -0.072439758313
    8         70.612192837000        -0.038464665581
    9        443.880779500000         0.001727290407
   10        137.558752670000         0.008186739589
   11         22.268083479000        -0.038355010537
   12          9.521731060600        -0.036458029934
   13         14.874114065000         0.881958226265
   14          2.464751761200        -2.736094565461
   15          1.011327223800         2.812821266615
   16          0.149198520900        -1.141589620438
   17          0.051441873000         0.520900305577
 P 13
    1       2205.350853400000         0.002617829581
    2        522.353006990000         0.021330476958
    3        167.730555420000         0.100824810023
    4         62.670045373000         0.292684245038
    5         25.109749456000         0.474652685187
    6         10.225142681000         0.275935489013
    7         40.713442521000        -0.000527306988
    8          5.624709069600         0.009758756123
    9          2.227994911600         0.016783581154
   10          0.833547416900        -0.005745361702
   11          0.162455000000         0.001779572015
   12          0.047769000000        -0.001185293269
   13          0.021234841500         0.000557682963
 P 13
    1       2205.350853400000         0.001022286383
    2        522.353006990000         0.008329746251
    3        167.730555420000         0.039373010035
    4         62.670045373000         0.114295873351
    5         25.109749456000         0.185356212749
    6         10.225142681000         0.107755331009
    7         40.713442521000         0.018526173705
    8          5.624709069600        -0.342859880749
    9          2.227994911600        -0.589667019116
   10          0.833547416900        -0.258576392628
   11          0.162455000000        -0.011065509704
   12          0.047769000000         0.003719978380
   13          0.021234841500        -0.001658980105
 P 13
    1       2205.350853400000         0.000087760366
    2        522.353006990000         0.000715084922
    3        167.730555420000         0.003380060444
    4         62.670045373000         0.009811974247
    5         25.109749456000         0.015912301404
    6         10.225142681000         0.009250487369
    7         40.713442521000         0.001938801900
    8          5.624709069600        -0.035880986481
    9          2.227994911600        -0.061709857377
   10          0.833547416900        -0.012549518700
   11          0.162455000000         0.264100141366
   12          0.047769000000         0.045156617849
   13          0.021234841500         0.842479173612
 P 13
    1       2205.350853400000         0.000116484268
    2        522.353006990000         0.000949131685
    3        167.730555420000         0.004486351715
    4         62.670045373000         0.013023426121
    5         25.109749456000         0.021120385821
    6         10.225142681000         0.012278165007
    7         40.713442521000         0.002637115952
    8          5.624709069600        -0.048804533269
    9          2.227994911600        -0.083936398709
   10          0.833547416900         0.003738123607
   11          0.162455000000         0.186698719859
   12          0.047769000000         1.472069800777
   13          0.021234841500        -1.485831468155
 P 13
    1       2205.350853400000         0.000218368166
    2        522.353006990000         0.001779297313
    3        167.730555420000         0.008410375159
    4         62.670045373000         0.024414470044
    5         25.109749456000         0.039593500368
    6         10.225142681000         0.023017360328
    7         40.713442521000         0.004809466603
    8          5.624709069600        -0.089007755846
    9          2.227994911600        -0.153079846942
   10          0.833547416900        -0.075750645612
   11          0.162455000000         1.487950425573
   12          0.047769000000        -1.950188532913
   13          0.021234841500         0.971507020987
 P 13
    1       2205.350853400000         0.000856499647
    2        522.353006990000         0.006978890497
    3        167.730555420000         0.032987790656
    4         62.670045373000         0.095760226095
    5         25.109749456000         0.155296532767
    6         10.225142681000         0.090280379841
    7         40.713442521000         0.025211275638
    8          5.624709069600        -0.466579613061
    9          2.227994911600        -0.802446203426
   10          0.833547416900         1.602313536298
   11          0.162455000000        -0.903366129653
   12          0.047769000000         0.620391012175
   13          0.021234841500        -0.287075253524
 D 7
    1         88.554315311000         0.012731640979
    2         25.721525557000         0.079416150722
    3          9.127836762400         0.244981856469
    4          3.431236406400         0.404015409980
    5          1.230892064500         0.385461304885
    6          0.390318451100         0.226589076758
    7          0.124000000000         0.035083217779
 D 7
    1         88.554315311000         0.002939296310
    2         25.721525557000         0.018334447158
    3          9.127836762400         0.056557852040
    4          3.431236406400         0.093273208509
    5          1.230892064500         0.048529219841
    6          0.390318451100         0.157344608818
    7          0.124000000000        -1.070826344444
 D 7
    1         88.554315311000         0.006978906684
    2         25.721525557000         0.043532322819
    3          9.127836762400         0.134287914532
    4          3.431236406400         0.221462877403
    5          1.230892064500         0.341304784179
    6          0.390318451100        -1.345261182243
    7          0.124000000000         0.657749663752
 D 7
    1         88.554315311000         0.018790611611
    2         25.721525557000         0.117210188881
    3          9.127836762400         0.361568388899
    4          3.431236406400         0.596285794313
    5          1.230892064500        -1.418522054806
    6          0.390318451100         0.821674909619
    7          0.124000000000        -0.273766600944
 F 2
    1          1.433000000000         0.983013915110
    2          5.694000000000         0.043718180091
 F 2
    1          1.433000000000        -0.438128409591
    2          5.694000000000         1.075342541389
 G 1
    1          3.617000000000         1.000000000000
 end
  // -----------------------------------------------
  // The basis set
  // -----------------------------------------------
  BAS[ATNO] = new BFNGauss[NSH];
  // Basis function   1 L = s
  InitBFNGauss(BAS[ATNO][  0]);
  BAS[ATNO][  0].l  = 0;
  BAS[ATNO][  0].ng = 17;
  BAS[ATNO][  0].a[  0] =    405924.310279999976;     BAS[ATNO][  0].d[  0] =         0.000236946108;
  BAS[ATNO][  0].a[  1] =     60846.955735000003;     BAS[ATNO][  0].d[  1] =         0.001837337633;
  BAS[ATNO][  0].a[  2] =     13847.343091999999;     BAS[ATNO][  0].d[  2] =         0.009556529963;
  BAS[ATNO][  0].a[  3] =      3919.615855100000;     BAS[ATNO][  0].d[  3] =         0.038872284047;
  BAS[ATNO][  0].a[  4] =      1276.359416700000;     BAS[ATNO][  0].d[  4] =         0.126748953485;
  BAS[ATNO][  0].a[  5] =       458.672544350000;     BAS[ATNO][  0].d[  5] =         0.301710168774;
  BAS[ATNO][  0].a[  6] =       178.287252460000;     BAS[ATNO][  0].d[  6] =         0.433807394899;
  BAS[ATNO][  0].a[  7] =        70.612192837000;     BAS[ATNO][  0].d[  7] =         0.230346659902;
  BAS[ATNO][  0].a[  8] =       443.880779500000;     BAS[ATNO][  0].d[  8] =        -0.000179705576;
  BAS[ATNO][  0].a[  9] =       137.558752670000;     BAS[ATNO][  0].d[  9] =        -0.000851740247;
  BAS[ATNO][  0].a[ 10] =        22.268083479000;     BAS[ATNO][  0].d[ 10] =         0.003990417159;
  BAS[ATNO][  0].a[ 11] =         9.521731060600;     BAS[ATNO][  0].d[ 11] =         0.003793057184;
  BAS[ATNO][  0].a[ 12] =        14.874114065000;     BAS[ATNO][  0].d[ 12] =         0.000988139371;
  BAS[ATNO][  0].a[ 13] =         2.464751761200;     BAS[ATNO][  0].d[ 13] =        -0.003065499797;
  BAS[ATNO][  0].a[ 14] =         1.011327223800;     BAS[ATNO][  0].d[ 14] =         0.001677993863;
  BAS[ATNO][  0].a[ 15] =         0.149198520900;     BAS[ATNO][  0].d[ 15] =        -0.000444490743;
  BAS[ATNO][  0].a[ 16] =         0.051441873000;     BAS[ATNO][  0].d[ 16] =         0.000200516485;

  // Basis function   2 L = s
  InitBFNGauss(BAS[ATNO][  1]);
  BAS[ATNO][  1].l  = 0;
  BAS[ATNO][  1].ng = 17;
  BAS[ATNO][  1].a[  0] =    405924.310279999976;     BAS[ATNO][  1].d[  0] =        -0.000076116830;
  BAS[ATNO][  1].a[  1] =     60846.955735000003;     BAS[ATNO][  1].d[  1] =        -0.000590228375;
  BAS[ATNO][  1].a[  2] =     13847.343091999999;     BAS[ATNO][  1].d[  2] =        -0.003069950263;
  BAS[ATNO][  1].a[  3] =      3919.615855100000;     BAS[ATNO][  1].d[  3] =        -0.012487375553;
  BAS[ATNO][  1].a[  4] =      1276.359416700000;     BAS[ATNO][  1].d[  4] =        -0.040716974109;
  BAS[ATNO][  1].a[  5] =       458.672544350000;     BAS[ATNO][  1].d[  5] =        -0.096921708564;
  BAS[ATNO][  1].a[  6] =       178.287252460000;     BAS[ATNO][  1].d[  6] =        -0.139356767696;
  BAS[ATNO][  1].a[  7] =        70.612192837000;     BAS[ATNO][  1].d[  7] =        -0.073996815986;
  BAS[ATNO][  1].a[  8] =       443.880779500000;     BAS[ATNO][  1].d[  8] =        -0.026093124581;
  BAS[ATNO][  1].a[  9] =       137.558752670000;     BAS[ATNO][  1].d[  9] =        -0.123672090808;
  BAS[ATNO][  1].a[ 10] =        22.268083479000;     BAS[ATNO][  1].d[ 10] =         0.579405793259;
  BAS[ATNO][  1].a[ 11] =         9.521731060600;     BAS[ATNO][  1].d[ 11] =         0.550749262199;
  BAS[ATNO][  1].a[ 12] =        14.874114065000;     BAS[ATNO][  1].d[ 12] =        -0.015813526732;
  BAS[ATNO][  1].a[ 13] =         2.464751761200;     BAS[ATNO][  1].d[ 13] =         0.049058224374;
  BAS[ATNO][  1].a[ 14] =         1.011327223800;     BAS[ATNO][  1].d[ 14] =        -0.014420143752;
  BAS[ATNO][  1].a[ 15] =         0.149198520900;     BAS[ATNO][  1].d[ 15] =         0.003162539587;
  BAS[ATNO][  1].a[ 16] =         0.051441873000;     BAS[ATNO][  1].d[ 16] =        -0.001402950775;

  // Basis function   3 L = s
  InitBFNGauss(BAS[ATNO][  2]);
  BAS[ATNO][  2].l  = 0;
  BAS[ATNO][  2].ng = 17;
  BAS[ATNO][  2].a[  0] =    405924.310279999976;     BAS[ATNO][  2].d[  0] =         0.000028735450;
  BAS[ATNO][  2].a[  1] =     60846.955735000003;     BAS[ATNO][  2].d[  1] =         0.000222821654;
  BAS[ATNO][  2].a[  2] =     13847.343091999999;     BAS[ATNO][  2].d[  2] =         0.001158960538;
  BAS[ATNO][  2].a[  3] =      3919.615855100000;     BAS[ATNO][  2].d[  3] =         0.004714205197;
  BAS[ATNO][  2].a[  4] =      1276.359416700000;     BAS[ATNO][  2].d[  4] =         0.015371378087;
  BAS[ATNO][  2].a[  5] =       458.672544350000;     BAS[ATNO][  2].d[  5] =         0.036589659713;
  BAS[ATNO][  2].a[  6] =       178.287252460000;     BAS[ATNO][  2].d[  6] =         0.052609645293;
  BAS[ATNO][  2].a[  7] =        70.612192837000;     BAS[ATNO][  2].d[  7] =         0.027935107180;
  BAS[ATNO][  2].a[  8] =       443.880779500000;     BAS[ATNO][  2].d[  8] =         0.011812607496;
  BAS[ATNO][  2].a[  9] =       137.558752670000;     BAS[ATNO][  2].d[  9] =         0.055987540410;
  BAS[ATNO][  2].a[ 10] =        22.268083479000;     BAS[ATNO][  2].d[ 10] =        -0.262302553892;
  BAS[ATNO][  2].a[ 11] =         9.521731060600;     BAS[ATNO][  2].d[ 11] =        -0.249329467723;
  BAS[ATNO][  2].a[ 12] =        14.874114065000;     BAS[ATNO][  2].d[ 12] =        -0.240096094700;
  BAS[ATNO][  2].a[ 13] =         2.464751761200;     BAS[ATNO][  2].d[ 13] =         0.744848905915;
  BAS[ATNO][  2].a[ 14] =         1.011327223800;     BAS[ATNO][  2].d[ 14] =         0.474931163661;
  BAS[ATNO][  2].a[ 15] =         0.149198520900;     BAS[ATNO][  2].d[ 15] =         0.017137834166;
  BAS[ATNO][  2].a[ 16] =         0.051441873000;     BAS[ATNO][  2].d[ 16] =        -0.005864849011;

  // Basis function   4 L = s
  InitBFNGauss(BAS[ATNO][  3]);
  BAS[ATNO][  3].l  = 0;
  BAS[ATNO][  3].ng = 17;
  BAS[ATNO][  3].a[  0] =    405924.310279999976;     BAS[ATNO][  3].d[  0] =        -0.000006855221;
  BAS[ATNO][  3].a[  1] =     60846.955735000003;     BAS[ATNO][  3].d[  1] =        -0.000053157044;
  BAS[ATNO][  3].a[  2] =     13847.343091999999;     BAS[ATNO][  3].d[  2] =        -0.000276485319;
  BAS[ATNO][  3].a[  3] =      3919.615855100000;     BAS[ATNO][  3].d[  3] =        -0.001124635815;
  BAS[ATNO][  3].a[  4] =      1276.359416700000;     BAS[ATNO][  3].d[  4] =        -0.003667044943;
  BAS[ATNO][  3].a[  5] =       458.672544350000;     BAS[ATNO][  3].d[  5] =        -0.008728945827;
  BAS[ATNO][  3].a[  6] =       178.287252460000;     BAS[ATNO][  3].d[  6] =        -0.012550724640;
  BAS[ATNO][  3].a[  7] =        70.612192837000;     BAS[ATNO][  3].d[  7] =        -0.006664288194;
  BAS[ATNO][  3].a[  8] =       443.880779500000;     BAS[ATNO][  3].d[  8] =        -0.002315958837;
  BAS[ATNO][  3].a[  9] =       137.558752670000;     BAS[ATNO][  3].d[  9] =        -0.010976817694;
  BAS[ATNO][  3].a[ 10] =        22.268083479000;     BAS[ATNO][  3].d[ 10] =         0.051426572657;
  BAS[ATNO][  3].a[ 11] =         9.521731060600;     BAS[ATNO][  3].d[ 11] =         0.048883092433;
  BAS[ATNO][  3].a[ 12] =        14.874114065000;     BAS[ATNO][  3].d[ 12] =         0.081549631227;
  BAS[ATNO][  3].a[ 13] =         2.464751761200;     BAS[ATNO][  3].d[ 13] =        -0.252991010427;
  BAS[ATNO][  3].a[ 14] =         1.011327223800;     BAS[ATNO][  3].d[ 14] =        -0.243180194960;
  BAS[ATNO][  3].a[ 15] =         0.149198520900;     BAS[ATNO][  3].d[ 15] =         0.698940443145;
  BAS[ATNO][  3].a[ 16] =         0.051441873000;     BAS[ATNO][  3].d[ 16] =         0.441633876176;

  // Basis function   5 L = s
  InitBFNGauss(BAS[ATNO][  4]);
  BAS[ATNO][  4].l  = 0;
  BAS[ATNO][  4].ng = 17;
  BAS[ATNO][  4].a[  0] =    405924.310279999976;     BAS[ATNO][  4].d[  0] =        -0.000005519076;
  BAS[ATNO][  4].a[  1] =     60846.955735000003;     BAS[ATNO][  4].d[  1] =        -0.000042796256;
  BAS[ATNO][  4].a[  2] =     13847.343091999999;     BAS[ATNO][  4].d[  2] =        -0.000222595834;
  BAS[ATNO][  4].a[  3] =      3919.615855100000;     BAS[ATNO][  4].d[  3] =        -0.000905434141;
  BAS[ATNO][  4].a[  4] =      1276.359416700000;     BAS[ATNO][  4].d[  4] =        -0.002952304777;
  BAS[ATNO][  4].a[  5] =       458.672544350000;     BAS[ATNO][  4].d[  5] =        -0.007027595479;
  BAS[ATNO][  4].a[  6] =       178.287252460000;     BAS[ATNO][  4].d[  6] =        -0.010104475098;
  BAS[ATNO][  4].a[  7] =        70.612192837000;     BAS[ATNO][  4].d[  7] =        -0.005365358259;
  BAS[ATNO][  4].a[  8] =       443.880779500000;     BAS[ATNO][  4].d[  8] =        -0.002198845315;
  BAS[ATNO][  4].a[  9] =       137.558752670000;     BAS[ATNO][  4].d[  9] =        -0.010421741428;
  BAS[ATNO][  4].a[ 10] =        22.268083479000;     BAS[ATNO][  4].d[ 10] =         0.048826031158;
  BAS[ATNO][  4].a[ 11] =         9.521731060600;     BAS[ATNO][  4].d[ 11] =         0.046411169769;
  BAS[ATNO][  4].a[ 12] =        14.874114065000;     BAS[ATNO][  4].d[ 12] =         0.057633355787;
  BAS[ATNO][  4].a[ 13] =         2.464751761200;     BAS[ATNO][  4].d[ 13] =        -0.178795669525;
  BAS[ATNO][  4].a[ 14] =         1.011327223800;     BAS[ATNO][  4].d[ 14] =        -0.348613766010;
  BAS[ATNO][  4].a[ 15] =         0.149198520900;     BAS[ATNO][  4].d[ 15] =         1.900315375803;
  BAS[ATNO][  4].a[ 16] =         0.051441873000;     BAS[ATNO][  4].d[ 16] =        -1.770089414321;

  // Basis function   6 L = s
  InitBFNGauss(BAS[ATNO][  5]);
  BAS[ATNO][  5].l  = 0;
  BAS[ATNO][  5].ng = 17;
  BAS[ATNO][  5].a[  0] =    405924.310279999976;     BAS[ATNO][  5].d[  0] =        -0.000039566681;
  BAS[ATNO][  5].a[  1] =     60846.955735000003;     BAS[ATNO][  5].d[  1] =        -0.000306809648;
  BAS[ATNO][  5].a[  2] =     13847.343091999999;     BAS[ATNO][  5].d[  2] =        -0.001595806639;
  BAS[ATNO][  5].a[  3] =      3919.615855100000;     BAS[ATNO][  5].d[  3] =        -0.006491126925;
  BAS[ATNO][  5].a[  4] =      1276.359416700000;     BAS[ATNO][  5].d[  4] =        -0.021165299773;
  BAS[ATNO][  5].a[  5] =       458.672544350000;     BAS[ATNO][  5].d[  5] =        -0.050381371925;
  BAS[ATNO][  5].a[  6] =       178.287252460000;     BAS[ATNO][  5].d[  6] =        -0.072439758313;
  BAS[ATNO][  5].a[  7] =        70.612192837000;     BAS[ATNO][  5].d[  7] =        -0.038464665581;
  BAS[ATNO][  5].a[  8] =       443.880779500000;     BAS[ATNO][  5].d[  8] =         0.001727290407;
  BAS[ATNO][  5].a[  9] =       137.558752670000;     BAS[ATNO][  5].d[  9] =         0.008186739589;
  BAS[ATNO][  5].a[ 10] =        22.268083479000;     BAS[ATNO][  5].d[ 10] =        -0.038355010537;
  BAS[ATNO][  5].a[ 11] =         9.521731060600;     BAS[ATNO][  5].d[ 11] =        -0.036458029934;
  BAS[ATNO][  5].a[ 12] =        14.874114065000;     BAS[ATNO][  5].d[ 12] =         0.881958226265;
  BAS[ATNO][  5].a[ 13] =         2.464751761200;     BAS[ATNO][  5].d[ 13] =        -2.736094565461;
  BAS[ATNO][  5].a[ 14] =         1.011327223800;     BAS[ATNO][  5].d[ 14] =         2.812821266615;
  BAS[ATNO][  5].a[ 15] =         0.149198520900;     BAS[ATNO][  5].d[ 15] =        -1.141589620438;
  BAS[ATNO][  5].a[ 16] =         0.051441873000;     BAS[ATNO][  5].d[ 16] =         0.520900305577;

  // Basis function   7 L = p
  InitBFNGauss(BAS[ATNO][  6]);
  BAS[ATNO][  6].l  = 1;
  BAS[ATNO][  6].ng = 13;
  BAS[ATNO][  6].a[  0] =      2205.350853400000;     BAS[ATNO][  6].d[  0] =         0.002617829581;
  BAS[ATNO][  6].a[  1] =       522.353006990000;     BAS[ATNO][  6].d[  1] =         0.021330476958;
  BAS[ATNO][  6].a[  2] =       167.730555420000;     BAS[ATNO][  6].d[  2] =         0.100824810023;
  BAS[ATNO][  6].a[  3] =        62.670045373000;     BAS[ATNO][  6].d[  3] =         0.292684245038;
  BAS[ATNO][  6].a[  4] =        25.109749456000;     BAS[ATNO][  6].d[  4] =         0.474652685187;
  BAS[ATNO][  6].a[  5] =        10.225142681000;     BAS[ATNO][  6].d[  5] =         0.275935489013;
  BAS[ATNO][  6].a[  6] =        40.713442521000;     BAS[ATNO][  6].d[  6] =        -0.000527306988;
  BAS[ATNO][  6].a[  7] =         5.624709069600;     BAS[ATNO][  6].d[  7] =         0.009758756123;
  BAS[ATNO][  6].a[  8] =         2.227994911600;     BAS[ATNO][  6].d[  8] =         0.016783581154;
  BAS[ATNO][  6].a[  9] =         0.833547416900;     BAS[ATNO][  6].d[  9] =        -0.005745361702;
  BAS[ATNO][  6].a[ 10] =         0.162455000000;     BAS[ATNO][  6].d[ 10] =         0.001779572015;
  BAS[ATNO][  6].a[ 11] =         0.047769000000;     BAS[ATNO][  6].d[ 11] =        -0.001185293269;
  BAS[ATNO][  6].a[ 12] =         0.021234841500;     BAS[ATNO][  6].d[ 12] =         0.000557682963;

  // Basis function   8 L = p
  InitBFNGauss(BAS[ATNO][  7]);
  BAS[ATNO][  7].l  = 1;
  BAS[ATNO][  7].ng = 13;
  BAS[ATNO][  7].a[  0] =      2205.350853400000;     BAS[ATNO][  7].d[  0] =        -0.001022286383;
  BAS[ATNO][  7].a[  1] =       522.353006990000;     BAS[ATNO][  7].d[  1] =        -0.008329746251;
  BAS[ATNO][  7].a[  2] =       167.730555420000;     BAS[ATNO][  7].d[  2] =        -0.039373010035;
  BAS[ATNO][  7].a[  3] =        62.670045373000;     BAS[ATNO][  7].d[  3] =        -0.114295873351;
  BAS[ATNO][  7].a[  4] =        25.109749456000;     BAS[ATNO][  7].d[  4] =        -0.185356212749;
  BAS[ATNO][  7].a[  5] =        10.225142681000;     BAS[ATNO][  7].d[  5] =        -0.107755331009;
  BAS[ATNO][  7].a[  6] =        40.713442521000;     BAS[ATNO][  7].d[  6] =        -0.018526173705;
  BAS[ATNO][  7].a[  7] =         5.624709069600;     BAS[ATNO][  7].d[  7] =         0.342859880749;
  BAS[ATNO][  7].a[  8] =         2.227994911600;     BAS[ATNO][  7].d[  8] =         0.589667019116;
  BAS[ATNO][  7].a[  9] =         0.833547416900;     BAS[ATNO][  7].d[  9] =         0.258576392628;
  BAS[ATNO][  7].a[ 10] =         0.162455000000;     BAS[ATNO][  7].d[ 10] =         0.011065509704;
  BAS[ATNO][  7].a[ 11] =         0.047769000000;     BAS[ATNO][  7].d[ 11] =        -0.003719978380;
  BAS[ATNO][  7].a[ 12] =         0.021234841500;     BAS[ATNO][  7].d[ 12] =         0.001658980105;

  // Basis function   9 L = p
  InitBFNGauss(BAS[ATNO][  8]);
  BAS[ATNO][  8].l  = 1;
  BAS[ATNO][  8].ng = 13;
  BAS[ATNO][  8].a[  0] =      2205.350853400000;     BAS[ATNO][  8].d[  0] =         0.000087760366;
  BAS[ATNO][  8].a[  1] =       522.353006990000;     BAS[ATNO][  8].d[  1] =         0.000715084922;
  BAS[ATNO][  8].a[  2] =       167.730555420000;     BAS[ATNO][  8].d[  2] =         0.003380060444;
  BAS[ATNO][  8].a[  3] =        62.670045373000;     BAS[ATNO][  8].d[  3] =         0.009811974247;
  BAS[ATNO][  8].a[  4] =        25.109749456000;     BAS[ATNO][  8].d[  4] =         0.015912301404;
  BAS[ATNO][  8].a[  5] =        10.225142681000;     BAS[ATNO][  8].d[  5] =         0.009250487369;
  BAS[ATNO][  8].a[  6] =        40.713442521000;     BAS[ATNO][  8].d[  6] =         0.001938801900;
  BAS[ATNO][  8].a[  7] =         5.624709069600;     BAS[ATNO][  8].d[  7] =        -0.035880986481;
  BAS[ATNO][  8].a[  8] =         2.227994911600;     BAS[ATNO][  8].d[  8] =        -0.061709857377;
  BAS[ATNO][  8].a[  9] =         0.833547416900;     BAS[ATNO][  8].d[  9] =        -0.012549518700;
  BAS[ATNO][  8].a[ 10] =         0.162455000000;     BAS[ATNO][  8].d[ 10] =         0.264100141366;
  BAS[ATNO][  8].a[ 11] =         0.047769000000;     BAS[ATNO][  8].d[ 11] =         0.045156617849;
  BAS[ATNO][  8].a[ 12] =         0.021234841500;     BAS[ATNO][  8].d[ 12] =         0.842479173612;

  // Basis function  10 L = p
  InitBFNGauss(BAS[ATNO][  9]);
  BAS[ATNO][  9].l  = 1;
  BAS[ATNO][  9].ng = 13;
  BAS[ATNO][  9].a[  0] =      2205.350853400000;     BAS[ATNO][  9].d[  0] =        -0.000116484268;
  BAS[ATNO][  9].a[  1] =       522.353006990000;     BAS[ATNO][  9].d[  1] =        -0.000949131685;
  BAS[ATNO][  9].a[  2] =       167.730555420000;     BAS[ATNO][  9].d[  2] =        -0.004486351715;
  BAS[ATNO][  9].a[  3] =        62.670045373000;     BAS[ATNO][  9].d[  3] =        -0.013023426121;
  BAS[ATNO][  9].a[  4] =        25.109749456000;     BAS[ATNO][  9].d[  4] =        -0.021120385821;
  BAS[ATNO][  9].a[  5] =        10.225142681000;     BAS[ATNO][  9].d[  5] =        -0.012278165007;
  BAS[ATNO][  9].a[  6] =        40.713442521000;     BAS[ATNO][  9].d[  6] =        -0.002637115952;
  BAS[ATNO][  9].a[  7] =         5.624709069600;     BAS[ATNO][  9].d[  7] =         0.048804533269;
  BAS[ATNO][  9].a[  8] =         2.227994911600;     BAS[ATNO][  9].d[  8] =         0.083936398709;
  BAS[ATNO][  9].a[  9] =         0.833547416900;     BAS[ATNO][  9].d[  9] =        -0.003738123607;
  BAS[ATNO][  9].a[ 10] =         0.162455000000;     BAS[ATNO][  9].d[ 10] =        -0.186698719859;
  BAS[ATNO][  9].a[ 11] =         0.047769000000;     BAS[ATNO][  9].d[ 11] =        -1.472069800777;
  BAS[ATNO][  9].a[ 12] =         0.021234841500;     BAS[ATNO][  9].d[ 12] =         1.485831468155;

  // Basis function  11 L = p
  InitBFNGauss(BAS[ATNO][ 10]);
  BAS[ATNO][ 10].l  = 1;
  BAS[ATNO][ 10].ng = 13;
  BAS[ATNO][ 10].a[  0] =      2205.350853400000;     BAS[ATNO][ 10].d[  0] =        -0.000218368166;
  BAS[ATNO][ 10].a[  1] =       522.353006990000;     BAS[ATNO][ 10].d[  1] =        -0.001779297313;
  BAS[ATNO][ 10].a[  2] =       167.730555420000;     BAS[ATNO][ 10].d[  2] =        -0.008410375159;
  BAS[ATNO][ 10].a[  3] =        62.670045373000;     BAS[ATNO][ 10].d[  3] =        -0.024414470044;
  BAS[ATNO][ 10].a[  4] =        25.109749456000;     BAS[ATNO][ 10].d[  4] =        -0.039593500368;
  BAS[ATNO][ 10].a[  5] =        10.225142681000;     BAS[ATNO][ 10].d[  5] =        -0.023017360328;
  BAS[ATNO][ 10].a[  6] =        40.713442521000;     BAS[ATNO][ 10].d[  6] =        -0.004809466603;
  BAS[ATNO][ 10].a[  7] =         5.624709069600;     BAS[ATNO][ 10].d[  7] =         0.089007755846;
  BAS[ATNO][ 10].a[  8] =         2.227994911600;     BAS[ATNO][ 10].d[  8] =         0.153079846942;
  BAS[ATNO][ 10].a[  9] =         0.833547416900;     BAS[ATNO][ 10].d[  9] =         0.075750645612;
  BAS[ATNO][ 10].a[ 10] =         0.162455000000;     BAS[ATNO][ 10].d[ 10] =        -1.487950425573;
  BAS[ATNO][ 10].a[ 11] =         0.047769000000;     BAS[ATNO][ 10].d[ 11] =         1.950188532913;
  BAS[ATNO][ 10].a[ 12] =         0.021234841500;     BAS[ATNO][ 10].d[ 12] =        -0.971507020987;

  // Basis function  12 L = p
  InitBFNGauss(BAS[ATNO][ 11]);
  BAS[ATNO][ 11].l  = 1;
  BAS[ATNO][ 11].ng = 13;
  BAS[ATNO][ 11].a[  0] =      2205.350853400000;     BAS[ATNO][ 11].d[  0] =         0.000856499647;
  BAS[ATNO][ 11].a[  1] =       522.353006990000;     BAS[ATNO][ 11].d[  1] =         0.006978890497;
  BAS[ATNO][ 11].a[  2] =       167.730555420000;     BAS[ATNO][ 11].d[  2] =         0.032987790656;
  BAS[ATNO][ 11].a[  3] =        62.670045373000;     BAS[ATNO][ 11].d[  3] =         0.095760226095;
  BAS[ATNO][ 11].a[  4] =        25.109749456000;     BAS[ATNO][ 11].d[  4] =         0.155296532767;
  BAS[ATNO][ 11].a[  5] =        10.225142681000;     BAS[ATNO][ 11].d[  5] =         0.090280379841;
  BAS[ATNO][ 11].a[  6] =        40.713442521000;     BAS[ATNO][ 11].d[  6] =         0.025211275638;
  BAS[ATNO][ 11].a[  7] =         5.624709069600;     BAS[ATNO][ 11].d[  7] =        -0.466579613061;
  BAS[ATNO][ 11].a[  8] =         2.227994911600;     BAS[ATNO][ 11].d[  8] =        -0.802446203426;
  BAS[ATNO][ 11].a[  9] =         0.833547416900;     BAS[ATNO][ 11].d[  9] =         1.602313536298;
  BAS[ATNO][ 11].a[ 10] =         0.162455000000;     BAS[ATNO][ 11].d[ 10] =        -0.903366129653;
  BAS[ATNO][ 11].a[ 11] =         0.047769000000;     BAS[ATNO][ 11].d[ 11] =         0.620391012175;
  BAS[ATNO][ 11].a[ 12] =         0.021234841500;     BAS[ATNO][ 11].d[ 12] =        -0.287075253524;

  // Basis function  13 L = d
  InitBFNGauss(BAS[ATNO][ 12]);
  BAS[ATNO][ 12].l  = 2;
  BAS[ATNO][ 12].ng = 7;
  BAS[ATNO][ 12].a[  0] =        88.554315311000;     BAS[ATNO][ 12].d[  0] =         0.012731640979;
  BAS[ATNO][ 12].a[  1] =        25.721525557000;     BAS[ATNO][ 12].d[  1] =         0.079416150722;
  BAS[ATNO][ 12].a[  2] =         9.127836762400;     BAS[ATNO][ 12].d[  2] =         0.244981856469;
  BAS[ATNO][ 12].a[  3] =         3.431236406400;     BAS[ATNO][ 12].d[  3] =         0.404015409980;
  BAS[ATNO][ 12].a[  4] =         1.230892064500;     BAS[ATNO][ 12].d[  4] =         0.385461304885;
  BAS[ATNO][ 12].a[  5] =         0.390318451100;     BAS[ATNO][ 12].d[  5] =         0.226589076758;
  BAS[ATNO][ 12].a[  6] =         0.124000000000;     BAS[ATNO][ 12].d[  6] =         0.035083217779;

  // Basis function  14 L = d
  InitBFNGauss(BAS[ATNO][ 13]);
  BAS[ATNO][ 13].l  = 2;
  BAS[ATNO][ 13].ng = 7;
  BAS[ATNO][ 13].a[  0] =        88.554315311000;     BAS[ATNO][ 13].d[  0] =        -0.002939296310;
  BAS[ATNO][ 13].a[  1] =        25.721525557000;     BAS[ATNO][ 13].d[  1] =        -0.018334447158;
  BAS[ATNO][ 13].a[  2] =         9.127836762400;     BAS[ATNO][ 13].d[  2] =        -0.056557852040;
  BAS[ATNO][ 13].a[  3] =         3.431236406400;     BAS[ATNO][ 13].d[  3] =        -0.093273208509;
  BAS[ATNO][ 13].a[  4] =         1.230892064500;     BAS[ATNO][ 13].d[  4] =        -0.048529219841;
  BAS[ATNO][ 13].a[  5] =         0.390318451100;     BAS[ATNO][ 13].d[  5] =        -0.157344608818;
  BAS[ATNO][ 13].a[  6] =         0.124000000000;     BAS[ATNO][ 13].d[  6] =         1.070826344444;

  // Basis function  15 L = d
  InitBFNGauss(BAS[ATNO][ 14]);
  BAS[ATNO][ 14].l  = 2;
  BAS[ATNO][ 14].ng = 7;
  BAS[ATNO][ 14].a[  0] =        88.554315311000;     BAS[ATNO][ 14].d[  0] =        -0.006978906684;
  BAS[ATNO][ 14].a[  1] =        25.721525557000;     BAS[ATNO][ 14].d[  1] =        -0.043532322819;
  BAS[ATNO][ 14].a[  2] =         9.127836762400;     BAS[ATNO][ 14].d[  2] =        -0.134287914532;
  BAS[ATNO][ 14].a[  3] =         3.431236406400;     BAS[ATNO][ 14].d[  3] =        -0.221462877403;
  BAS[ATNO][ 14].a[  4] =         1.230892064500;     BAS[ATNO][ 14].d[  4] =        -0.341304784179;
  BAS[ATNO][ 14].a[  5] =         0.390318451100;     BAS[ATNO][ 14].d[  5] =         1.345261182243;
  BAS[ATNO][ 14].a[  6] =         0.124000000000;     BAS[ATNO][ 14].d[  6] =        -0.657749663752;

  // Basis function  16 L = d
  InitBFNGauss(BAS[ATNO][ 15]);
  BAS[ATNO][ 15].l  = 2;
  BAS[ATNO][ 15].ng = 7;
  BAS[ATNO][ 15].a[  0] =        88.554315311000;     BAS[ATNO][ 15].d[  0] =        -0.018790611611;
  BAS[ATNO][ 15].a[  1] =        25.721525557000;     BAS[ATNO][ 15].d[  1] =        -0.117210188881;
  BAS[ATNO][ 15].a[  2] =         9.127836762400;     BAS[ATNO][ 15].d[  2] =        -0.361568388899;
  BAS[ATNO][ 15].a[  3] =         3.431236406400;     BAS[ATNO][ 15].d[  3] =        -0.596285794313;
  BAS[ATNO][ 15].a[  4] =         1.230892064500;     BAS[ATNO][ 15].d[  4] =         1.418522054806;
  BAS[ATNO][ 15].a[  5] =         0.390318451100;     BAS[ATNO][ 15].d[  5] =        -0.821674909619;
  BAS[ATNO][ 15].a[  6] =         0.124000000000;     BAS[ATNO][ 15].d[  6] =         0.273766600944;

  // Basis function  17 L = f
  InitBFNGauss(BAS[ATNO][ 16]);
  BAS[ATNO][ 16].l  = 3;
  BAS[ATNO][ 16].ng = 2;
  BAS[ATNO][ 16].a[  0] =         1.433000000000;     BAS[ATNO][ 16].d[  0] =         0.983013915110;
  BAS[ATNO][ 16].a[  1] =         5.694000000000;     BAS[ATNO][ 16].d[  1] =         0.043718180091;

  // Basis function  18 L = f
  InitBFNGauss(BAS[ATNO][ 17]);
  BAS[ATNO][ 17].l  = 3;
  BAS[ATNO][ 17].ng = 2;
  BAS[ATNO][ 17].a[  0] =         1.433000000000;     BAS[ATNO][ 17].d[  0] =        -0.438128409591;
  BAS[ATNO][ 17].a[  1] =         5.694000000000;     BAS[ATNO][ 17].d[  1] =         1.075342541389;

  // Basis function  19 L = g
  InitBFNGauss(BAS[ATNO][ 18]);
  BAS[ATNO][ 18].l  = 4;
  BAS[ATNO][ 18].ng = 1;
  BAS[ATNO][ 18].a[  0] =         3.617000000000;     BAS[ATNO][ 18].d[  0] =         1.000000000000;

-------
TIMINGS
-------

Total SCF time: 0 days 0 hours 0 min 2 sec 

Total time                  ....       2.289 sec
Sum of individual times     ....       2.093 sec  ( 91.5%)

Fock matrix formation       ....       1.853 sec  ( 80.9%)
  XC integration            ....       0.082 sec  (  4.4% of F)
    Basis function eval.    ....       0.007 sec  (  8.6% of XC)
    Density eval.           ....       0.005 sec  (  6.1% of XC)
    XC-Functional eval.     ....       0.007 sec  (  8.6% of XC)
    XC-Potential eval.      ....       0.005 sec  (  6.7% of XC)
Diagonalization             ....       0.008 sec  (  0.3%)
Density matrix formation    ....       0.002 sec  (  0.1%)
Population analysis         ....       0.002 sec  (  0.1%)
Initial guess               ....       0.092 sec  (  4.0%)
Orbital Transformation      ....       0.000 sec  (  0.0%)
Orbital Orthonormalization  ....       0.000 sec  (  0.0%)
DIIS solution               ....       0.005 sec  (  0.2%)
Grid generation             ....       0.131 sec  (  5.7%)

-------------------------   --------------------
FINAL SINGLE POINT ENERGY     -1779.219371484876
-------------------------   --------------------


                            ***************************************
                            *     ORCA property calculations      *
                            ***************************************

                                    ---------------------
                                    Active property flags
                                    ---------------------
   (+) Dipole Moment


------------------------------------------------------------------------------
                       ORCA ELECTRIC PROPERTIES CALCULATION
------------------------------------------------------------------------------

Dipole Moment Calculation                       ... on
Quadrupole Moment Calculation                   ... off
Polarizability Calculation                      ... off
GBWName                                         ... TMD14_Zn.gbw
Electron density file                           ... TMD14_Zn.scfp
The origin for moment calculation is the CENTER OF MASS  = ( 0.000000,  0.000000  0.000000)

-------------
DIPOLE MOMENT
-------------
                                X             Y             Z
Electronic contribution:      0.00000       0.00000       0.00000
Nuclear contribution   :      0.00000       0.00000       0.00000
                        -----------------------------------------
Total Dipole Moment    :      0.00000       0.00000       0.00000
                        -----------------------------------------
Magnitude (a.u.)       :      0.00000
Magnitude (Debye)      :      0.00000



--------------------
Rotational spectrum 
--------------------
 
Rotational constants in cm-1:     0.000000     0.000000     0.000000 
Rotational constants in MHz :     0.000000     0.000000     0.000000 

 Dipole components along the rotational axes: 
x,y,z [a.u.] :     0.000000     0.000000     0.000000 
x,y,z [Debye]:     0.000000     0.000000     0.000000 

 

Timings for individual modules:

Sum of individual times         ...        3.298 sec (=   0.055 min)
GTO integral calculation        ...        0.657 sec (=   0.011 min)  19.9 %
SCF iterations                  ...        2.641 sec (=   0.044 min)  80.1 %
                             ****ORCA TERMINATED NORMALLY****
TOTAL RUN TIME: 0 days 0 hours 0 minutes 3 seconds 730 msec
