
                                 *****************
                                 * O   R   C   A *
                                 *****************

           --- An Ab Initio, DFT and Semiempirical electronic structure package ---

                  #######################################################
                  #                        -***-                        #
                  #          Department of theory and spectroscopy      #
                  #               Directorship: Frank Neese             #
                  #        Max Planck Institute fuer Kohlenforschung    #
                  #                Kaiser Wilhelm Platz 1               #
                  #                 D-45470 Muelheim/Ruhr               #
                  #                      Germany                        #
                  #                                                     #
                  #                  All rights reserved                #
                  #                        -***-                        #
                  #######################################################


                         Program Version 4.2.0 -  RELEASE  -


 With contributions from (in alphabetic order):
   Daniel Aravena         : Magnetic Suceptibility
   Michael Atanasov       : Ab Initio Ligand Field Theory (pilot matlab implementation)
   Alexander A. Auer      : GIAO ZORA, VPT2
   Ute Becker             : Parallelization
   Giovanni Bistoni       : ED, misc. LED, open-shell LED, HFLED
   Martin Brehm           : Molecular dynamics
   Dmytro Bykov           : SCF Hessian
   Vijay G. Chilkuri      : MRCI spin determinant printing, contributions to CSF-ICE
   Dipayan Datta          : RHF DLPNO-CCSD density
   Achintya Kumar Dutta   : EOM-CC, STEOM-CC
   Dmitry Ganyushin       : Spin-Orbit,Spin-Spin,Magnetic field MRCI
   Miquel Garcia          : C-PCM Hessian, Gaussian charge scheme
   Yang Guo               : DLPNO-NEVPT2, CIM, IAO-localization
   Andreas Hansen         : Spin unrestricted coupled pair/coupled cluster methods
   Benjamin Helmich-Paris : CASSCF linear response (MC-RPA)
   Lee Huntington         : MR-EOM, pCC
   Robert Izsak           : Overlap fitted RIJCOSX, COSX-SCS-MP3, EOM
   Christian Kollmar      : KDIIS, OOCD, Brueckner-CCSD(T), CCSD density
   Simone Kossmann        : Meta GGA functionals, TD-DFT gradient, OOMP2, MP2 Hessian
   Martin Krupicka        : AUTO-CI
   Lucas Lang             : DCDCAS
   Dagmar Lenk            : GEPOL surface, SMD
   Dimitrios Liakos       : Extrapolation schemes; Compound Job, initial MDCI parallelization
   Dimitrios Manganas     : Further ROCIS development; embedding schemes
   Dimitrios Pantazis     : SARC Basis sets
   Taras Petrenko         : DFT Hessian,TD-DFT gradient, ASA, ECA, R-Raman, ABS, FL, XAS/XES, NRVS
   Peter Pinski           : DLPNO-MP2, DLPNO-MP2 Gradient
   Christoph Reimann      : Effective Core Potentials
   Marius Retegan         : Local ZFS, SOC
   Christoph Riplinger    : Optimizer, TS searches, QM/MM, DLPNO-CCSD(T), (RO)-DLPNO pert. Triples
   Tobias Risthaus        : Range-separated hybrids, TD-DFT gradient, RPA, STAB
   Michael Roemelt        : Original ROCIS implementation
   Masaaki Saitow         : Open-shell DLPNO-CCSD energy and density
   Barbara Sandhoefer     : DKH picture change effects
   Avijit Sen             : IP-ROCIS
   Kantharuban Sivalingam : CASSCF convergence, NEVPT2, FIC-MRCI
   Bernardo de Souza      : ESD, SOC TD-DFT
   Georgi Stoychev        : AutoAux, RI-MP2 NMR
   Willem Van den Heuvel  : Paramagnetic NMR
   Boris Wezisla          : Elementary symmetry handling
   Frank Wennmohs         : Technical directorship


 We gratefully acknowledge several colleagues who have allowed us to
 interface, adapt or use parts of their codes:
   Stefan Grimme, W. Hujo, H. Kruse,             : VdW corrections, initial TS optimization,
                  C. Bannwarth                     DFT functionals, gCP, sTDA/sTD-DF
   Ed Valeev, F. Pavosevic, A. Kumar             : LibInt (2-el integral package), F12 methods
   Garnet Chan, S. Sharma, J. Yang, R. Olivares  : DMRG
   Ulf Ekstrom                                   : XCFun DFT Library
   Mihaly Kallay                                 : mrcc  (arbitrary order and MRCC methods)
   Andreas Klamt, Michael Diedenhofen            : otool_cosmo (COSMO solvation model)
   Jiri Pittner, Ondrej Demel                    : Mk-CCSD
   Frank Weinhold                                : gennbo (NPA and NBO analysis)
   Christopher J. Cramer and Donald G. Truhlar   : smd solvation model
   Lars Goerigk                                  : TD-DFT with DH, B97 family of functionals
   V. Asgeirsson, H. Jonsson                     : NEB implementation
   FAccTs GmbH                                   : IRC, NEB, NEB-TS, Multilevel, MM, QM/MM, CI optimization
   S Lehtola, MJT Oliveira, MAL Marques          : LibXC Library


 Your calculation uses the libint2 library for the computation of 2-el integrals
 For citations please refer to: http://libint.valeyev.net

 Your ORCA version has been built with support for libXC version: 4.2.3
 For citations please refer to: https://tddft.org/programs/libxc/

 This ORCA versions uses:
   CBLAS   interface :  Fast vector & matrix operations
   LAPACKE interface :  Fast linear algebra routines
   SCALAPACK package :  Parallel linear algebra routines


Your calculation utilizes the DFT-NL dispersion correction.
Cite in your paper:
Vydrov, O. A.; Van Voorhis, T. J. Chem. Phys. 2010, 133, 244103
Hujo, W.; Grimme, S. J. Chem. Theory Comput. 2011, 7, 3866 
   

----- Orbital basis set information -----
Your calculation utilizes the basis: def2-TZVPPD
   F. Weigend and R. Ahlrichs, Phys. Chem. Chem. Phys. 7, 3297 (2005).
   D. Rappoport and F. Furche, J. Chem. Phys. 133 134105 (2010).

----- AuxJK basis set information -----
Your calculation utilizes the auxiliary basis: def2/JK
   H-Ba, Hf-Rn: F. Weigend, J. Comput. Chem. 29, 167 (2008).

================================================================================
                                        WARNINGS
                       Please study these warnings very carefully!
================================================================================


WARNING: your system is open-shell and RHF/RKS was chosen
  ===> : WILL SWITCH to UHF/UKS


INFO   : the flag for use of LIBINT has been found!

================================================================================
                                       INPUT FILE
================================================================================
NAME = TMD13_Cu.in
|  1> #
|  2> # TMD13_Cu wB97X-V/Def2-TZVPPD
|  3> #
|  4> ! wb97x-v def2-tzvppd def2/jk grid4 nofinalgrid
|  5> 
|  6> *xyz 0 2
|  7> Cu       0.000000    0.000000    0.000000 
|  8> *
|  9> 
| 10> %maxcore 5000
| 11> 
| 12> %pal
| 13> nprocs = 24
| 14> end
| 15> 
| 16> 
| 17>                          ****END OF INPUT****
================================================================================

                       ****************************
                       * Single Point Calculation *
                       ****************************

---------------------------------
CARTESIAN COORDINATES (ANGSTROEM)
---------------------------------
  Cu     0.000000    0.000000    0.000000

----------------------------
CARTESIAN COORDINATES (A.U.)
----------------------------
  NO LB      ZA    FRAG     MASS         X           Y           Z
   0 Cu   29.0000    0    63.550    0.000000    0.000000    0.000000

--------------------------------
INTERNAL COORDINATES (ANGSTROEM)
--------------------------------
 Cu     0   0   0     0.000000000000     0.00000000     0.00000000

---------------------------
INTERNAL COORDINATES (A.U.)
---------------------------
 Cu     0   0   0     0.000000000000     0.00000000     0.00000000

---------------------
BASIS SET INFORMATION
---------------------
There are 1 groups of distinct atoms

 Group   1 Type Cu  : 17s13p7d2f1g contracted to 6s6p4d2f1g pattern {842111/631111/4111/11/1}

Atom   0Cu   basis set group =>   1
----------------------------------
AUXILIARY/JK BASIS SET INFORMATION
----------------------------------
There are 1 groups of distinct atoms

 Group   1 Type Cu  : 19s14p12d10f7g3h1i contracted to 16s13p11d9f5g3h1i pattern {4111111111111111/2111111111111/21111111111/211111111/31111/111/1}

Atom   0Cu   basis set group =>   1


           ************************************************************
           *        Program running with 24 parallel MPI-processes    *
           *              working on a common directory               *
           ************************************************************
------------------------------------------------------------------------------
                           ORCA GTO INTEGRAL CALCULATION
------------------------------------------------------------------------------

                         BASIS SET STATISTICS AND STARTUP INFO

 # of primitive gaussian shells          ...   40
 # of primitive gaussian functions       ...  114
 # of contracted shells                  ...   19
 # of contracted basis functions         ...   67
 Highest angular momentum                ...    4
 Maximum contraction depth               ...    8
 Integral package used                   ... LIBINT
 Integral threshhold            Thresh   ...  1.000e-10
 Primitive cut-off              TCut     ...  1.000e-11


------------------------------ INTEGRAL EVALUATION ----------------------------


 * One electron integrals 
 Pre-screening matrix                    ... done
 Shell pair data                         ... done (   0.000 sec)



           ************************************************************
           *        Program running with 24 parallel MPI-processes    *
           *              working on a common directory               *
           ************************************************************
-------------------------------------------------------------------------------
                                 ORCA SCF
-------------------------------------------------------------------------------

------------
SCF SETTINGS
------------
Hamiltonian:
 Density Functional     Method          .... DFT(GTOs)
 Exchange Functional    Exchange        .... WB97X-V
 Correlation Functional Correlation     .... WB97X-V
 Gradients option       PostSCFGGA      .... off
 Hybrid DFT is turned on
   Fraction HF Exchange ScalHFX         ....  0.167000
   Scaling of DF-GGA-X  ScalDFX         ....  0.000000
   Scaling of DF-GGA-C  ScalDFC         ....  1.000000
   Scaling of DF-LDA-C  ScalLDAC        ....  1.000000
   Perturbative correction              ....  0.000000
   Density functional embedding theory  .... OFF
 Long-range corrected/Screened/Range-Separated Hybrid DFT is turned on
   Amount of maximum screened exact exchange              ....  0.833000
   Range separation parameter mu (erf(mu*r12)/r12)        ....  0.300000
   NL short-range parameter             ....  6.000000
   NL long-range parameter              ....  0.010000


General Settings:
 Integral files         IntName         .... TMD13_Cu
 Hartree-Fock type      HFTyp           .... UHF
 Total Charge           Charge          ....    0
 Multiplicity           Mult            ....    2
 Number of Electrons    NEL             ....   29
 Basis Dimension        Dim             ....   67
 Nuclear Repulsion      ENuc            ....      0.0000000000 Eh

Convergence Acceleration:
 DIIS                   CNVDIIS         .... on
   Start iteration      DIISMaxIt       ....    12
   Startup error        DIISStart       ....  0.200000
   # of expansion vecs  DIISMaxEq       ....     5
   Bias factor          DIISBfac        ....   1.050
   Max. coefficient     DIISMaxC        ....  10.000
 Newton-Raphson         CNVNR           .... off
 SOSCF                  CNVSOSCF        .... off
 Level Shifting         CNVShift        .... on
   Level shift para.    LevelShift      ....    0.2500
   Turn off err/grad.   ShiftErr        ....    0.0010
 Zerner damping         CNVZerner       .... off
 Static damping         CNVDamp         .... on
   Fraction old density DampFac         ....    0.7000
   Max. Damping (<1)    DampMax         ....    0.9800
   Min. Damping (>=0)   DampMin         ....    0.0000
   Turn off err/grad.   DampErr         ....    0.1000
 Fernandez-Rico         CNVRico         .... off

SCF Procedure:
 Maximum # iterations   MaxIter         ....   125
 SCF integral mode      SCFMode         .... Direct
   Integral package                     .... LIBINT
 Reset frequency        DirectResetFreq ....    20
 Integral Threshold     Thresh          ....  1.000e-10 Eh
 Primitive CutOff       TCut            ....  1.000e-11 Eh

Convergence Tolerance:
 Convergence Check Mode ConvCheckMode   .... Total+1el-Energy
 Convergence forced     ConvForced      .... 0
 Energy Change          TolE            ....  1.000e-06 Eh
 1-El. energy change                    ....  1.000e-03 Eh
 DIIS Error             TolErr          ....  1.000e-06


Diagonalization of the overlap matrix:
Smallest eigenvalue                        ... 5.235e-02
Time for diagonalization                   ...    0.002 sec
Threshold for overlap eigenvalues          ... 1.000e-08
Number of eigenvalues below threshold      ... 0
Time for construction of square roots      ...    0.001 sec
Total time needed                          ...    0.004 sec

-------------------
DFT GRID GENERATION
-------------------

General Integration Accuracy     IntAcc      ...  4.670
Radial Grid Type                 RadialGrid  ... Gauss-Chebyshev
Angular Grid (max. acc.)         AngularGrid ... Lebedev-302
Angular grid pruning method      GridPruning ... 3 (G Style)
Weight generation scheme         WeightScheme... Becke
Basis function cutoff            BFCut       ...    1.0000e-10
Integration weight cutoff        WCut        ...    1.0000e-14
Grids for H and He will be reduced by one unit

# of grid points (after initial pruning)     ...   9556 (   0.0 sec)
# of grid points (after weights+screening)   ...   9556 (   0.0 sec)
Grid point division into batches done        ...    0.1 sec
Reduced shell lists constructed in    0.1 sec

Total number of grid points                  ...     9556
Total number of batches                      ...      150
Average number of points per batch           ...       63
Average number of grid points per atom       ...     9556
Average number of shells per batch           ...     3.62 (19.08%)
Average number of basis functions per batch  ...    10.62 (15.86%)
Average number of large shells per batch     ...     2.75 (75.86%)
Average number of large basis fcns per batch ...     8.25 (77.65%)
Maximum spatial batch extension              ...  22.45, 20.42, 20.42 au
Average spatial batch extension              ...   0.87,  0.82,  0.80 au

Time for grid setup =    0.121 sec

------------------------------
INITIAL GUESS: MODEL POTENTIAL
------------------------------
Loading Hartree-Fock densities                     ... done
Calculating cut-offs                               ... done
Setting up the integral package                    ... done
Initializing the effective Hamiltonian             ... done
Starting the Coulomb interaction                   ... done (   0.0 sec)
Reading the grid                                   ... done
Mapping shells                                     ... done
Starting the XC term evaluation                    ... done (   0.0 sec)
  promolecular density results
     # of electrons  =     29.000019956
     EX              =    -50.336995560
     EC              =     -1.785205608
     EX+EC           =    -52.122201168
Transforming the Hamiltonian                       ... done (   0.0 sec)
Diagonalizing the Hamiltonian                      ... done (   0.0 sec)
Back transforming the eigenvectors                 ... done (   0.0 sec)
Now organizing SCF variables                       ... done
                      ------------------
                      INITIAL GUESS DONE (   0.2 sec)
                      ------------------
--------------
SCF ITERATIONS
--------------
ITER       Energy         Delta-E        Max-DP      RMS-DP      [F,P]     Damp
               ***  Starting incremental Fock matrix formation  ***
  0  -1639.1688058779   0.000000000000 0.14420446  0.00497523  1.2901534 0.7000
  1  -1639.8143770746  -0.645571196744 0.12356205  0.00264386  0.3196723 0.7000
                               ***Turning on DIIS***
  2  -1639.9911097240  -0.176732649384 0.06663291  0.00155687  0.1880018 0.7000
  3  -1640.1116204443  -0.120510720338 0.03392393  0.00103206  0.1853024 0.7000
  4  -1640.2030866836  -0.091466239242 0.02373280  0.00071912  0.1473814 0.7000
  5  -1640.2723912088  -0.069304525259 0.05536155  0.00167561  0.0935520 0.0000
  6  -1640.4454124952  -0.173021286336 0.03616709  0.00045180  0.0099235 0.0000
  7  -1640.4457448726  -0.000332377371 0.02242041  0.00027663  0.0030475 0.0000
  8  -1640.4458183017  -0.000073429107 0.00959137  0.00011859  0.0021580 0.0000
  9  -1640.4458391940  -0.000020892373 0.01557865  0.00019257  0.0009233 0.0000
 10  -1640.4458540595  -0.000014865481 0.00429497  0.00005346  0.0007323 0.0000
 11  -1640.4458556902  -0.000001630671 0.00140634  0.00001752  0.0000601 0.0000
                 **** Energy Check signals convergence ****

               *****************************************************
               *                     SUCCESS                       *
               *           SCF CONVERGED AFTER  12 CYCLES          *
               *****************************************************


Setting up the DFT-NL grid :

General Integration Accuracy     IntAcc      ...  4.340
Radial Grid Type                 RadialGrid  ... Gauss-Chebyshev
Angular Grid (max. acc.)         AngularGrid ... Lebedev-110
Angular grid pruning method      GridPruning ... 3 (G Style)
Weight generation scheme         WeightScheme... Becke
Basis function cutoff            BFCut       ...    1.0000e-10
Integration weight cutoff        WCut        ...    1.0000e-14
Grids for H and He will be reduced by one unit

# of grid points (after initial pruning)     ...   2912 (   0.0 sec)
# of grid points (after weights+screening)   ...   2912 (   0.0 sec)
Grid point division into batches done        ...    0.0 sec
Reduced shell lists constructed in    0.0 sec

Total number of grid points                  ...     2912
Total number of batches                      ...       46
Average number of points per batch           ...       63
Average number of grid points per atom       ...     2912
Average number of shells per batch           ...     4.67 (24.56%)
Average number of basis functions per batch  ...    14.00 (20.90%)
Average number of large shells per batch     ...     4.67 (100.00%)
Average number of large basis fcns per batch ...    14.00 (100.00%)
Maximum spatial batch extension              ...  17.39, 26.34, 26.34 au
Average spatial batch extension              ...   0.76,  1.15,  1.15 au

Final grid set up in    0.0 sec

-------------------------------------------------------------------------------
                         DFT-NL dispersion correction                          
-------------------------------------------------------------------------------

SC Energy -1640.445855779 
NL    Energy 0.124059791 
SC+NL Energy -1640.321795988 
NL done in    0.0 sec
-------------------------------------------------------------------------------

----------------
TOTAL SCF ENERGY
----------------

Total Energy       :        -1640.32179599 Eh          -44635.42529 eV

Components:
Nuclear Repulsion  :            0.00000000 Eh               0.00000 eV
Electronic Energy  :        -1640.32179599 Eh          -44635.42529 eV
One Electron Energy:        -2287.88323081 Eh          -62256.46777 eV
Two Electron Energy:          647.56143482 Eh           17621.04248 eV

Virial components:
Potential Energy   :        -3278.33279258 Eh          -89207.97053 eV
Kinetic Energy     :         1638.01099659 Eh           44572.54524 eV
Virial Ratio       :            2.00141073


DFT components:
N(Alpha)           :       15.000000135321 electrons
N(Beta)            :       14.000000137963 electrons
N(Total)           :       29.000000273285 electrons
E(X)               :      -50.466995007788 Eh       
E(C)               :       -1.789175077619 Eh       
NL Energy, E(C,NL) :        0.124059790773 Eh       
E(XC)              :      -52.132110294635 Eh       
DFET-embed. en.    :        0.000000000000 Eh       

---------------
SCF CONVERGENCE
---------------

  Last Energy change         ...   -8.9076e-08  Tolerance :   1.0000e-06
  Last MAX-Density change    ...    1.7912e-05  Tolerance :   1.0000e-05
  Last RMS-Density change    ...    4.3372e-07  Tolerance :   1.0000e-06
  Last DIIS Error            ...    7.5104e-06  Tolerance :   1.0000e-06

             **** THE GBW FILE WAS UPDATED (TMD13_Cu.gbw) ****
             **** DENSITY FILE WAS UPDATED (TMD13_Cu.scfp) ****
             **** ENERGY FILE WAS UPDATED (TMD13_Cu.en.tmp) ****
----------------------
UHF SPIN CONTAMINATION
----------------------

Warning: in a DFT calculation there is little theoretical justification to 
         calculate <S**2> as in Hartree-Fock theory. We will do it anyways
         but you should keep in mind that the values have only limited relevance

Expectation value of <S**2>     :     0.750401
Ideal value S*(S+1) for S=0.5   :     0.750000
Deviation                       :     0.000401

             **** THE GBW FILE WAS UPDATED (TMD13_Cu.gbw) ****
             **** DENSITY FILE WAS UPDATED (TMD13_Cu.scfp) ****
----------------
ORBITAL ENERGIES
----------------
                 SPIN UP ORBITALS
  NO   OCC          E(Eh)            E(eV) 
   0   1.0000    -322.843884     -8785.0287 
   1   1.0000     -38.820708     -1056.3652 
   2   1.0000     -34.017899      -925.6741 
   3   1.0000     -34.017898      -925.6741 
   4   1.0000     -34.017897      -925.6740 
   5   1.0000      -4.373925      -119.0206 
   6   1.0000      -2.868775       -78.0633 
   7   1.0000      -2.868774       -78.0633 
   8   1.0000      -2.868773       -78.0633 
   9   1.0000      -0.365556        -9.9473 
  10   1.0000      -0.365556        -9.9473 
  11   1.0000      -0.365556        -9.9473 
  12   1.0000      -0.365555        -9.9473 
  13   1.0000      -0.365555        -9.9473 
  14   1.0000      -0.266163        -7.2427 
  15   0.0000       0.037996         1.0339 
  16   0.0000       0.037998         1.0340 
  17   0.0000       0.038000         1.0340 
  18   0.0000       0.150097         4.0844 
  19   0.0000       0.190411         5.1814 
  20   0.0000       0.190414         5.1814 
  21   0.0000       0.190416         5.1815 
  22   0.0000       0.251379         6.8404 
  23   0.0000       0.251379         6.8404 
  24   0.0000       0.251380         6.8404 
  25   0.0000       0.251381         6.8404 
  26   0.0000       0.251382         6.8404 
  27   0.0000       0.764590        20.8056 
  28   0.0000       0.764595        20.8057 
  29   0.0000       0.764598        20.8058 
  30   0.0000       0.995422        27.0868 
  31   0.0000       0.995422        27.0868 
  32   0.0000       0.995424        27.0869 
  33   0.0000       0.995427        27.0869 
  34   0.0000       0.995427        27.0869 
  35   0.0000       3.033230        82.5384 
  36   0.0000       3.122735        84.9739 
  37   0.0000       3.122740        84.9741 
  38   0.0000       3.122742        84.9741 
  39   0.0000       3.554754        96.7298 
  40   0.0000       3.554754        96.7298 
  41   0.0000       3.554758        96.7299 
  42   0.0000       3.554760        96.7299 
  43   0.0000       3.554761        96.7300 
  44   0.0000       3.554765        96.7301 
  45   0.0000       3.554765        96.7301 
  46   0.0000       3.796120       103.2977 
  47   0.0000       3.796121       103.2977 
  48   0.0000       3.796122       103.2977 
  49   0.0000       3.796125       103.2978 
  50   0.0000       3.796125       103.2978 
  51   0.0000      13.092797       356.2731 
  52   0.0000      13.092797       356.2731 
  53   0.0000      13.092797       356.2731 
  54   0.0000      13.092798       356.2731 
  55   0.0000      13.092798       356.2731 
  56   0.0000      13.092799       356.2732 
  57   0.0000      13.092799       356.2732 
  58   0.0000      13.092801       356.2732 
  59   0.0000      13.092801       356.2732 
  60   0.0000      13.270557       361.1102 
  61   0.0000      13.270557       361.1102 
  62   0.0000      13.270558       361.1102 
  63   0.0000      13.270559       361.1103 
  64   0.0000      13.270559       361.1103 
  65   0.0000      13.270561       361.1103 
  66   0.0000      13.270561       361.1103 

                 SPIN DOWN ORBITALS
  NO   OCC          E(Eh)            E(eV) 
   0   1.0000    -322.842733     -8784.9974 
   1   1.0000     -38.820554     -1056.3610 
   2   1.0000     -34.017942      -925.6753 
   3   1.0000     -34.017940      -925.6752 
   4   1.0000     -34.017940      -925.6752 
   5   1.0000      -4.372852      -118.9914 
   6   1.0000      -2.868526       -78.0566 
   7   1.0000      -2.868522       -78.0565 
   8   1.0000      -2.868522       -78.0564 
   9   1.0000      -0.362922        -9.8756 
  10   1.0000      -0.362922        -9.8756 
  11   1.0000      -0.362922        -9.8756 
  12   1.0000      -0.362920        -9.8756 
  13   1.0000      -0.362920        -9.8756 
  14   0.0000      -0.029348        -0.7986 
  15   0.0000       0.063202         1.7198 
  16   0.0000       0.063206         1.7199 
  17   0.0000       0.063209         1.7200 
  18   0.0000       0.179062         4.8725 
  19   0.0000       0.210004         5.7145 
  20   0.0000       0.210006         5.7145 
  21   0.0000       0.210006         5.7146 
  22   0.0000       0.261497         7.1157 
  23   0.0000       0.261498         7.1157 
  24   0.0000       0.261501         7.1158 
  25   0.0000       0.261504         7.1159 
  26   0.0000       0.261504         7.1159 
  27   0.0000       0.779083        21.1999 
  28   0.0000       0.779087        21.2000 
  29   0.0000       0.779089        21.2001 
  30   0.0000       1.009293        27.4643 
  31   0.0000       1.009293        27.4643 
  32   0.0000       1.009294        27.4643 
  33   0.0000       1.009295        27.4643 
  34   0.0000       1.009295        27.4643 
  35   0.0000       3.039879        82.7193 
  36   0.0000       3.128828        85.1397 
  37   0.0000       3.128830        85.1398 
  38   0.0000       3.128831        85.1398 
  39   0.0000       3.561133        96.9034 
  40   0.0000       3.561133        96.9034 
  41   0.0000       3.561133        96.9034 
  42   0.0000       3.561133        96.9034 
  43   0.0000       3.561133        96.9034 
  44   0.0000       3.561134        96.9034 
  45   0.0000       3.561134        96.9034 
  46   0.0000       3.800338       103.4125 
  47   0.0000       3.800338       103.4125 
  48   0.0000       3.800338       103.4125 
  49   0.0000       3.800340       103.4125 
  50   0.0000       3.800340       103.4125 
  51   0.0000      13.091707       356.2435 
  52   0.0000      13.091707       356.2435 
  53   0.0000      13.091708       356.2435 
  54   0.0000      13.091708       356.2435 
  55   0.0000      13.091709       356.2435 
  56   0.0000      13.091710       356.2435 
  57   0.0000      13.091710       356.2435 
  58   0.0000      13.091712       356.2436 
  59   0.0000      13.091712       356.2436 
  60   0.0000      13.271209       361.1280 
  61   0.0000      13.271210       361.1280 
  62   0.0000      13.271210       361.1280 
  63   0.0000      13.271211       361.1280 
  64   0.0000      13.271211       361.1280 
  65   0.0000      13.271213       361.1281 
  66   0.0000      13.271213       361.1281 

                    ********************************
                    * MULLIKEN POPULATION ANALYSIS *
                    ********************************

--------------------------------------------
MULLIKEN ATOMIC CHARGES AND SPIN POPULATIONS
--------------------------------------------
   0 Cu:   -0.000000    1.000000
Sum of atomic charges         :   -0.0000000
Sum of atomic spin populations:    1.0000000

-----------------------------------------------------
MULLIKEN REDUCED ORBITAL CHARGES AND SPIN POPULATIONS
-----------------------------------------------------
CHARGE
  0 Cus       :     7.000000  s :     7.000000
      pz      :     4.000000  p :    12.000000
      px      :     4.000000
      py      :     4.000000
      dz2     :     2.000000  d :    10.000000
      dxz     :     2.000000
      dyz     :     2.000000
      dx2y2   :     2.000000
      dxy     :     2.000000
      f0      :     0.000000  f :     0.000000
      f+1     :     0.000000
      f-1     :     0.000000
      f+2     :     0.000000
      f-2     :     0.000000
      f+3     :     0.000000
      f-3     :     0.000000
      g0      :     0.000000  g :     0.000000
      g+1     :     0.000000
      g-1     :     0.000000
      g+2     :     0.000000
      g-2     :     0.000000
      g+3     :     0.000000
      g-3     :     0.000000
      g+4     :     0.000000
      g-4     :     0.000000

SPIN
  0 Cus       :     1.000000  s :     1.000000
      pz      :    -0.000000  p :    -0.000000
      px      :    -0.000000
      py      :    -0.000000
      dz2     :     0.000000  d :     0.000000
      dxz     :     0.000000
      dyz     :     0.000000
      dx2y2   :     0.000000
      dxy     :     0.000000
      f0      :     0.000000  f :     0.000000
      f+1     :     0.000000
      f-1     :     0.000000
      f+2     :     0.000000
      f-2     :     0.000000
      f+3     :     0.000000
      f-3     :     0.000000
      g0      :    -0.000000  g :    -0.000000
      g+1     :    -0.000000
      g-1     :    -0.000000
      g+2     :    -0.000000
      g-2     :    -0.000000
      g+3     :    -0.000000
      g-3     :    -0.000000
      g+4     :    -0.000000
      g-4     :    -0.000000


                     *******************************
                     * LOEWDIN POPULATION ANALYSIS *
                     *******************************

-------------------------------------------
LOEWDIN ATOMIC CHARGES AND SPIN POPULATIONS
-------------------------------------------
   0 Cu:   -0.000000    1.000000

----------------------------------------------------
LOEWDIN REDUCED ORBITAL CHARGES AND SPIN POPULATIONS
----------------------------------------------------
CHARGE
  0 Cus       :     7.000000  s :     7.000000
      pz      :     4.000000  p :    12.000000
      px      :     4.000000
      py      :     4.000000
      dz2     :     2.000000  d :    10.000000
      dxz     :     2.000000
      dyz     :     2.000000
      dx2y2   :     2.000000
      dxy     :     2.000000
      f0      :     0.000000  f :     0.000000
      f+1     :     0.000000
      f-1     :     0.000000
      f+2     :     0.000000
      f-2     :     0.000000
      f+3     :     0.000000
      f-3     :     0.000000
      g0      :     0.000000  g :     0.000000
      g+1     :     0.000000
      g-1     :     0.000000
      g+2     :     0.000000
      g-2     :     0.000000
      g+3     :     0.000000
      g-3     :     0.000000
      g+4     :     0.000000
      g-4     :     0.000000

SPIN
  0 Cus       :     1.000000  s :     1.000000
      pz      :    -0.000000  p :    -0.000000
      px      :    -0.000000
      py      :    -0.000000
      dz2     :     0.000000  d :     0.000000
      dxz     :     0.000000
      dyz     :     0.000000
      dx2y2   :     0.000000
      dxy     :     0.000000
      f0      :     0.000000  f :     0.000000
      f+1     :     0.000000
      f-1     :     0.000000
      f+2     :     0.000000
      f-2     :     0.000000
      f+3     :     0.000000
      f-3     :     0.000000
      g0      :    -0.000000  g :    -0.000000
      g+1     :    -0.000000
      g-1     :    -0.000000
      g+2     :    -0.000000
      g-2     :    -0.000000
      g+3     :    -0.000000
      g-3     :    -0.000000
      g+4     :    -0.000000
      g-4     :    -0.000000


                      *****************************
                      * MAYER POPULATION ANALYSIS *
                      *****************************

  NA   - Mulliken gross atomic population
  ZA   - Total nuclear charge
  QA   - Mulliken gross atomic charge
  VA   - Mayer's total valence
  BVA  - Mayer's bonded valence
  FA   - Mayer's free valence

  ATOM       NA         ZA         QA         VA         BVA        FA
  0 Cu    29.0000    29.0000    -0.0000     1.0008     0.0000     1.0008

  Mayer bond orders larger than 0.100000


-------
TIMINGS
-------

Total SCF time: 0 days 0 hours 0 min 2 sec 

Total time                  ....       2.465 sec
Sum of individual times     ....       2.245 sec  ( 91.1%)

Fock matrix formation       ....       1.978 sec  ( 80.2%)
  XC integration            ....       0.107 sec  (  5.4% of F)
    Basis function eval.    ....       0.008 sec  (  7.8% of XC)
    Density eval.           ....       0.009 sec  (  8.0% of XC)
    XC-Functional eval.     ....       0.008 sec  (  7.9% of XC)
    XC-Potential eval.      ....       0.013 sec  ( 11.9% of XC)
Diagonalization             ....       0.017 sec  (  0.7%)
Density matrix formation    ....       0.004 sec  (  0.2%)
Population analysis         ....       0.004 sec  (  0.2%)
Initial guess               ....       0.103 sec  (  4.2%)
Orbital Transformation      ....       0.000 sec  (  0.0%)
Orbital Orthonormalization  ....       0.000 sec  (  0.0%)
DIIS solution               ....       0.009 sec  (  0.4%)
Grid generation             ....       0.130 sec  (  5.3%)

-------------------------   --------------------
FINAL SINGLE POINT ENERGY     -1640.321795988489
-------------------------   --------------------


                            ***************************************
                            *     ORCA property calculations      *
                            ***************************************

                                    ---------------------
                                    Active property flags
                                    ---------------------
   (+) Dipole Moment


------------------------------------------------------------------------------
                       ORCA ELECTRIC PROPERTIES CALCULATION
------------------------------------------------------------------------------

Dipole Moment Calculation                       ... on
Quadrupole Moment Calculation                   ... off
Polarizability Calculation                      ... off
GBWName                                         ... TMD13_Cu.gbw
Electron density file                           ... TMD13_Cu.scfp
The origin for moment calculation is the CENTER OF MASS  = ( 0.000000,  0.000000  0.000000)

-------------
DIPOLE MOMENT
-------------
                                X             Y             Z
Electronic contribution:      0.00000       0.00000      -0.00000
Nuclear contribution   :      0.00000       0.00000       0.00000
                        -----------------------------------------
Total Dipole Moment    :      0.00000       0.00000      -0.00000
                        -----------------------------------------
Magnitude (a.u.)       :      0.00000
Magnitude (Debye)      :      0.00000



--------------------
Rotational spectrum 
--------------------
 
Rotational constants in cm-1:     0.000000     0.000000     0.000000 
Rotational constants in MHz :     0.000000     0.000000     0.000000 

 Dipole components along the rotational axes: 
x,y,z [a.u.] :     0.000000     0.000000    -0.000000 
x,y,z [Debye]:     0.000000     0.000000    -0.000000 

 

Timings for individual modules:

Sum of individual times         ...        3.478 sec (=   0.058 min)
GTO integral calculation        ...        0.653 sec (=   0.011 min)  18.8 %
SCF iterations                  ...        2.824 sec (=   0.047 min)  81.2 %
                             ****ORCA TERMINATED NORMALLY****
TOTAL RUN TIME: 0 days 0 hours 0 minutes 3 seconds 943 msec
