
                                 *****************
                                 * O   R   C   A *
                                 *****************

           --- An Ab Initio, DFT and Semiempirical electronic structure package ---

                  #######################################################
                  #                        -***-                        #
                  #          Department of theory and spectroscopy      #
                  #               Directorship: Frank Neese             #
                  #        Max Planck Institute fuer Kohlenforschung    #
                  #                Kaiser Wilhelm Platz 1               #
                  #                 D-45470 Muelheim/Ruhr               #
                  #                      Germany                        #
                  #                                                     #
                  #                  All rights reserved                #
                  #                        -***-                        #
                  #######################################################


                         Program Version 4.2.0 -  RELEASE  -


 With contributions from (in alphabetic order):
   Daniel Aravena         : Magnetic Suceptibility
   Michael Atanasov       : Ab Initio Ligand Field Theory (pilot matlab implementation)
   Alexander A. Auer      : GIAO ZORA, VPT2
   Ute Becker             : Parallelization
   Giovanni Bistoni       : ED, misc. LED, open-shell LED, HFLED
   Martin Brehm           : Molecular dynamics
   Dmytro Bykov           : SCF Hessian
   Vijay G. Chilkuri      : MRCI spin determinant printing, contributions to CSF-ICE
   Dipayan Datta          : RHF DLPNO-CCSD density
   Achintya Kumar Dutta   : EOM-CC, STEOM-CC
   Dmitry Ganyushin       : Spin-Orbit,Spin-Spin,Magnetic field MRCI
   Miquel Garcia          : C-PCM Hessian, Gaussian charge scheme
   Yang Guo               : DLPNO-NEVPT2, CIM, IAO-localization
   Andreas Hansen         : Spin unrestricted coupled pair/coupled cluster methods
   Benjamin Helmich-Paris : CASSCF linear response (MC-RPA)
   Lee Huntington         : MR-EOM, pCC
   Robert Izsak           : Overlap fitted RIJCOSX, COSX-SCS-MP3, EOM
   Christian Kollmar      : KDIIS, OOCD, Brueckner-CCSD(T), CCSD density
   Simone Kossmann        : Meta GGA functionals, TD-DFT gradient, OOMP2, MP2 Hessian
   Martin Krupicka        : AUTO-CI
   Lucas Lang             : DCDCAS
   Dagmar Lenk            : GEPOL surface, SMD
   Dimitrios Liakos       : Extrapolation schemes; Compound Job, initial MDCI parallelization
   Dimitrios Manganas     : Further ROCIS development; embedding schemes
   Dimitrios Pantazis     : SARC Basis sets
   Taras Petrenko         : DFT Hessian,TD-DFT gradient, ASA, ECA, R-Raman, ABS, FL, XAS/XES, NRVS
   Peter Pinski           : DLPNO-MP2, DLPNO-MP2 Gradient
   Christoph Reimann      : Effective Core Potentials
   Marius Retegan         : Local ZFS, SOC
   Christoph Riplinger    : Optimizer, TS searches, QM/MM, DLPNO-CCSD(T), (RO)-DLPNO pert. Triples
   Tobias Risthaus        : Range-separated hybrids, TD-DFT gradient, RPA, STAB
   Michael Roemelt        : Original ROCIS implementation
   Masaaki Saitow         : Open-shell DLPNO-CCSD energy and density
   Barbara Sandhoefer     : DKH picture change effects
   Avijit Sen             : IP-ROCIS
   Kantharuban Sivalingam : CASSCF convergence, NEVPT2, FIC-MRCI
   Bernardo de Souza      : ESD, SOC TD-DFT
   Georgi Stoychev        : AutoAux, RI-MP2 NMR
   Willem Van den Heuvel  : Paramagnetic NMR
   Boris Wezisla          : Elementary symmetry handling
   Frank Wennmohs         : Technical directorship


 We gratefully acknowledge several colleagues who have allowed us to
 interface, adapt or use parts of their codes:
   Stefan Grimme, W. Hujo, H. Kruse,             : VdW corrections, initial TS optimization,
                  C. Bannwarth                     DFT functionals, gCP, sTDA/sTD-DF
   Ed Valeev, F. Pavosevic, A. Kumar             : LibInt (2-el integral package), F12 methods
   Garnet Chan, S. Sharma, J. Yang, R. Olivares  : DMRG
   Ulf Ekstrom                                   : XCFun DFT Library
   Mihaly Kallay                                 : mrcc  (arbitrary order and MRCC methods)
   Andreas Klamt, Michael Diedenhofen            : otool_cosmo (COSMO solvation model)
   Jiri Pittner, Ondrej Demel                    : Mk-CCSD
   Frank Weinhold                                : gennbo (NPA and NBO analysis)
   Christopher J. Cramer and Donald G. Truhlar   : smd solvation model
   Lars Goerigk                                  : TD-DFT with DH, B97 family of functionals
   V. Asgeirsson, H. Jonsson                     : NEB implementation
   FAccTs GmbH                                   : IRC, NEB, NEB-TS, Multilevel, MM, QM/MM, CI optimization
   S Lehtola, MJT Oliveira, MAL Marques          : LibXC Library


 Your calculation uses the libint2 library for the computation of 2-el integrals
 For citations please refer to: http://libint.valeyev.net

 Your ORCA version has been built with support for libXC version: 4.2.3
 For citations please refer to: https://tddft.org/programs/libxc/

 This ORCA versions uses:
   CBLAS   interface :  Fast vector & matrix operations
   LAPACKE interface :  Fast linear algebra routines
   SCALAPACK package :  Parallel linear algebra routines


Your calculation utilizes the DFT-NL dispersion correction.
Cite in your paper:
Vydrov, O. A.; Van Voorhis, T. J. Chem. Phys. 2010, 133, 244103
Hujo, W.; Grimme, S. J. Chem. Theory Comput. 2011, 7, 3866 
   

----- Orbital basis set information -----
Your calculation utilizes the basis: def2-TZVPPD
   F. Weigend and R. Ahlrichs, Phys. Chem. Chem. Phys. 7, 3297 (2005).
   D. Rappoport and F. Furche, J. Chem. Phys. 133 134105 (2010).

----- AuxJK basis set information -----
Your calculation utilizes the auxiliary basis: def2/JK
   H-Ba, Hf-Rn: F. Weigend, J. Comput. Chem. 29, 167 (2008).

================================================================================
                                        WARNINGS
                       Please study these warnings very carefully!
================================================================================


WARNING: your system is open-shell and RHF/RKS was chosen
  ===> : WILL SWITCH to UHF/UKS


INFO   : the flag for use of LIBINT has been found!

================================================================================
                                       INPUT FILE
================================================================================
NAME = TMD20_FeS.in
|  1> #
|  2> # TMD20_FeS wB97X-V/Def2-TZVPPD
|  3> #
|  4> ! wb97x-v def2-tzvppd def2/jk grid4 nofinalgrid
|  5> 
|  6> *xyz 0 5
|  7> Fe       0.000000    0.000000    0.769524 
|  8> S        0.000000    0.000000   -1.250476 
|  9> *
| 10> 
| 11> %maxcore 5000
| 12> 
| 13> %pal
| 14> nprocs = 24
| 15> end
| 16> 
| 17> 
| 18>                          ****END OF INPUT****
================================================================================

                       ****************************
                       * Single Point Calculation *
                       ****************************

---------------------------------
CARTESIAN COORDINATES (ANGSTROEM)
---------------------------------
  Fe     0.000000    0.000000    0.769524
  S      0.000000    0.000000   -1.250476

----------------------------
CARTESIAN COORDINATES (A.U.)
----------------------------
  NO LB      ZA    FRAG     MASS         X           Y           Z
   0 Fe   26.0000    0    55.850    0.000000    0.000000    1.454190
   1 S    16.0000    0    32.060    0.000000    0.000000   -2.363057

--------------------------------
INTERNAL COORDINATES (ANGSTROEM)
--------------------------------
 Fe     0   0   0     0.000000000000     0.00000000     0.00000000
 S      1   0   0     2.020000000000     0.00000000     0.00000000

---------------------------
INTERNAL COORDINATES (A.U.)
---------------------------
 Fe     0   0   0     0.000000000000     0.00000000     0.00000000
 S      1   0   0     3.817246790521     0.00000000     0.00000000

---------------------
BASIS SET INFORMATION
---------------------
There are 2 groups of distinct atoms

 Group   1 Type Fe  : 17s13p7d2f1g contracted to 6s6p4d2f1g pattern {842111/631111/4111/11/1}
 Group   2 Type S   : 15s10p4d1f contracted to 6s6p4d1f pattern {732111/511111/1111/1}

Atom   0Fe   basis set group =>   1
Atom   1S    basis set group =>   2
----------------------------------
AUXILIARY/JK BASIS SET INFORMATION
----------------------------------
There are 2 groups of distinct atoms

 Group   1 Type Fe  : 19s14p12d10f7g3h1i contracted to 16s13p11d9f5g3h1i pattern {4111111111111111/2111111111111/21111111111/211111111/31111/111/1}
 Group   2 Type S   : 16s12p10d4f1g contracted to 13s11p9d4f1g pattern {4111111111111/21111111111/211111111/1111/1}

Atom   0Fe   basis set group =>   1
Atom   1S    basis set group =>   2


           ************************************************************
           *        Program running with 24 parallel MPI-processes    *
           *              working on a common directory               *
           ************************************************************
------------------------------------------------------------------------------
                           ORCA GTO INTEGRAL CALCULATION
------------------------------------------------------------------------------

                         BASIS SET STATISTICS AND STARTUP INFO

 # of primitive gaussian shells          ...   70
 # of primitive gaussian functions       ...  186
 # of contracted shells                  ...   36
 # of contracted basis functions         ...  118
 Highest angular momentum                ...    4
 Maximum contraction depth               ...    8
 Integral package used                   ... LIBINT
 Integral threshhold            Thresh   ...  1.000e-10
 Primitive cut-off              TCut     ...  1.000e-11


------------------------------ INTEGRAL EVALUATION ----------------------------


 * One electron integrals 
 Pre-screening matrix                    ... done
 Shell pair data                         ... done (   0.000 sec)



           ************************************************************
           *        Program running with 24 parallel MPI-processes    *
           *              working on a common directory               *
           ************************************************************
-------------------------------------------------------------------------------
                                 ORCA SCF
-------------------------------------------------------------------------------

------------
SCF SETTINGS
------------
Hamiltonian:
 Density Functional     Method          .... DFT(GTOs)
 Exchange Functional    Exchange        .... WB97X-V
 Correlation Functional Correlation     .... WB97X-V
 Gradients option       PostSCFGGA      .... off
 Hybrid DFT is turned on
   Fraction HF Exchange ScalHFX         ....  0.167000
   Scaling of DF-GGA-X  ScalDFX         ....  0.000000
   Scaling of DF-GGA-C  ScalDFC         ....  1.000000
   Scaling of DF-LDA-C  ScalLDAC        ....  1.000000
   Perturbative correction              ....  0.000000
   Density functional embedding theory  .... OFF
 Long-range corrected/Screened/Range-Separated Hybrid DFT is turned on
   Amount of maximum screened exact exchange              ....  0.833000
   Range separation parameter mu (erf(mu*r12)/r12)        ....  0.300000
   NL short-range parameter             ....  6.000000
   NL long-range parameter              ....  0.010000


General Settings:
 Integral files         IntName         .... TMD20_FeS
 Hartree-Fock type      HFTyp           .... UHF
 Total Charge           Charge          ....    0
 Multiplicity           Mult            ....    5
 Number of Electrons    NEL             ....   42
 Basis Dimension        Dim             ....  118
 Nuclear Repulsion      ENuc            ....    108.9790686400 Eh

Convergence Acceleration:
 DIIS                   CNVDIIS         .... on
   Start iteration      DIISMaxIt       ....    12
   Startup error        DIISStart       ....  0.200000
   # of expansion vecs  DIISMaxEq       ....     5
   Bias factor          DIISBfac        ....   1.050
   Max. coefficient     DIISMaxC        ....  10.000
 Newton-Raphson         CNVNR           .... off
 SOSCF                  CNVSOSCF        .... off
 Level Shifting         CNVShift        .... on
   Level shift para.    LevelShift      ....    0.2500
   Turn off err/grad.   ShiftErr        ....    0.0010
 Zerner damping         CNVZerner       .... off
 Static damping         CNVDamp         .... on
   Fraction old density DampFac         ....    0.7000
   Max. Damping (<1)    DampMax         ....    0.9800
   Min. Damping (>=0)   DampMin         ....    0.0000
   Turn off err/grad.   DampErr         ....    0.1000
 Fernandez-Rico         CNVRico         .... off

SCF Procedure:
 Maximum # iterations   MaxIter         ....   125
 SCF integral mode      SCFMode         .... Direct
   Integral package                     .... LIBINT
 Reset frequency        DirectResetFreq ....    20
 Integral Threshold     Thresh          ....  1.000e-10 Eh
 Primitive CutOff       TCut            ....  1.000e-11 Eh

Convergence Tolerance:
 Convergence Check Mode ConvCheckMode   .... Total+1el-Energy
 Convergence forced     ConvForced      .... 0
 Energy Change          TolE            ....  1.000e-06 Eh
 1-El. energy change                    ....  1.000e-03 Eh
 DIIS Error             TolErr          ....  1.000e-06


Diagonalization of the overlap matrix:
Smallest eigenvalue                        ... 1.056e-03
Time for diagonalization                   ...    0.004 sec
Threshold for overlap eigenvalues          ... 1.000e-08
Number of eigenvalues below threshold      ... 0
Time for construction of square roots      ...    0.002 sec
Total time needed                          ...    0.005 sec

-------------------
DFT GRID GENERATION
-------------------

General Integration Accuracy     IntAcc      ...  4.670
Radial Grid Type                 RadialGrid  ... Gauss-Chebyshev
Angular Grid (max. acc.)         AngularGrid ... Lebedev-302
Angular grid pruning method      GridPruning ... 3 (G Style)
Weight generation scheme         WeightScheme... Becke
Basis function cutoff            BFCut       ...    1.0000e-10
Integration weight cutoff        WCut        ...    1.0000e-14
Grids for H and He will be reduced by one unit

# of grid points (after initial pruning)     ...  16486 (   0.0 sec)
# of grid points (after weights+screening)   ...  16457 (   0.0 sec)
nearest neighbour list constructed           ...    0.0 sec
Grid point re-assignment to atoms done       ...    0.0 sec
Grid point division into batches done        ...    0.1 sec
Reduced shell lists constructed in    0.1 sec

Total number of grid points                  ...    16457
Total number of batches                      ...      258
Average number of points per batch           ...       63
Average number of grid points per atom       ...     8228
Average number of shells per batch           ...     7.08 (19.68%)
Average number of basis functions per batch  ...    20.25 (17.16%)
Average number of large shells per batch     ...     4.58 (64.71%)
Average number of large basis fcns per batch ...    11.92 (58.85%)
Maximum spatial batch extension              ...  24.49, 24.19, 18.13 au
Average spatial batch extension              ...   0.84,  0.83,  0.65 au

Time for grid setup =    0.157 sec

------------------------------
INITIAL GUESS: MODEL POTENTIAL
------------------------------
Loading Hartree-Fock densities                     ... done
Calculating cut-offs                               ... done
Setting up the integral package                    ... done
Initializing the effective Hamiltonian             ... done
Starting the Coulomb interaction                   ... done (   0.0 sec)
Reading the grid                                   ... done
Mapping shells                                     ... done
Starting the XC term evaluation                    ... done (   0.0 sec)
  promolecular density results
     # of electrons  =     42.000003885
     EX              =    -59.908206640
     EC              =     -2.363809223
     EX+EC           =    -62.272015864
Transforming the Hamiltonian                       ... done (   0.0 sec)
Diagonalizing the Hamiltonian                      ... done (   0.0 sec)
Back transforming the eigenvectors                 ... done (   0.0 sec)
Now organizing SCF variables                       ... done
                      ------------------
                      INITIAL GUESS DONE (   0.2 sec)
                      ------------------
--------------
SCF ITERATIONS
--------------
ITER       Energy         Delta-E        Max-DP      RMS-DP      [F,P]     Damp
               ***  Starting incremental Fock matrix formation  ***
  0  -1659.1428105113   0.000000000000 0.39766352  0.00651168  0.9154221 0.7000
  1  -1660.3000461465  -1.157235635239 0.25040256  0.00305196  0.2400731 0.7000
  2  -1660.6634623397  -0.363416193148 0.17611901  0.00244661  0.2609535 0.7000
                               ***Turning on DIIS***
  3  -1661.0053010010  -0.341838661283 0.12856473  0.00172336  0.1239918 0.7000
  4  -1661.2342101144  -0.228909113423 0.32918989  0.00411246  0.0604524 0.0000
  5  -1661.8233176247  -0.589107510299 0.03274836  0.00076603  0.0461613 0.0000
  6  -1661.8370637011  -0.013746076437 0.02933560  0.00057568  0.0273735 0.0000
  7  -1661.8440187264  -0.006955025285 0.01759372  0.00036013  0.0214802 0.0000
  8  -1661.8484258682  -0.004407141800 0.01651221  0.00037360  0.0162991 0.0000
  9  -1661.8517776235  -0.003351755284 0.00709519  0.00017687  0.0097042 0.0000
 10  -1661.8528422902  -0.001064666683 0.00634226  0.00014759  0.0083993 0.0000
 11  -1661.8534601786  -0.000617888452 0.00583534  0.00012152  0.0039523 0.0000
 12  -1661.8537379083  -0.000277729634 0.00205435  0.00004793  0.0017814 0.0000
 13  -1661.8538097510  -0.000071842782 0.00117046  0.00003140  0.0011171 0.0000
 14  -1661.8538383860  -0.000028634976 0.00190800  0.00003461  0.0008125 0.0000
 15  -1661.8538559511  -0.000017565089 0.00192693  0.00002205  0.0006241 0.0000
 16  -1661.8538615120  -0.000005560890 0.00109940  0.00001339  0.0002163 0.0000
 17  -1661.8538637134  -0.000002201434 0.00099229  0.00001060  0.0004327 0.0000
 18  -1661.8538647511  -0.000001037628 0.00067848  0.00000717  0.0000692 0.0000
                 **** Energy Check signals convergence ****

               *****************************************************
               *                     SUCCESS                       *
               *           SCF CONVERGED AFTER  19 CYCLES          *
               *****************************************************


Setting up the DFT-NL grid :

General Integration Accuracy     IntAcc      ...  4.340
Radial Grid Type                 RadialGrid  ... Gauss-Chebyshev
Angular Grid (max. acc.)         AngularGrid ... Lebedev-110
Angular grid pruning method      GridPruning ... 3 (G Style)
Weight generation scheme         WeightScheme... Becke
Basis function cutoff            BFCut       ...    1.0000e-10
Integration weight cutoff        WCut        ...    1.0000e-14
Grids for H and He will be reduced by one unit

# of grid points (after initial pruning)     ...   4718 (   0.0 sec)
# of grid points (after weights+screening)   ...   4693 (   0.0 sec)
nearest neighbour list constructed           ...    0.0 sec
Grid point re-assignment to atoms done       ...    0.0 sec
Grid point division into batches done        ...    0.0 sec
Reduced shell lists constructed in    0.0 sec

Total number of grid points                  ...     4693
Total number of batches                      ...       75
Average number of points per batch           ...       62
Average number of grid points per atom       ...     2346
Average number of shells per batch           ...    11.20 (31.11%)
Average number of basis functions per batch  ...    33.60 (28.47%)
Average number of large shells per batch     ...     9.20 (82.14%)
Average number of large basis fcns per batch ...    25.20 (75.00%)
Maximum spatial batch extension              ...  18.98, 28.73, 16.15 au
Average spatial batch extension              ...   0.95,  1.29,  0.86 au

Final grid set up in    0.0 sec

-------------------------------------------------------------------------------
                         DFT-NL dispersion correction                          
-------------------------------------------------------------------------------

SC Energy -1661.853865065 
NL    Energy 0.175599809 
SC+NL Energy -1661.678265257 
NL done in    0.1 sec
-------------------------------------------------------------------------------

----------------
TOTAL SCF ENERGY
----------------

Total Energy       :        -1661.67826526 Eh          -45216.56436 eV

Components:
Nuclear Repulsion  :          108.97906864 Eh            2965.47122 eV
Electronic Energy  :        -1770.65733390 Eh          -48182.03558 eV
One Electron Energy:        -2514.33855522 Eh          -68418.63042 eV
Two Electron Energy:          743.68122133 Eh           20236.59484 eV

Virial components:
Potential Energy   :        -3320.88262821 Eh          -90365.81042 eV
Kinetic Energy     :         1659.20436295 Eh           45149.24606 eV
Virial Ratio       :            2.00149102


DFT components:
N(Alpha)           :       23.000004636152 electrons
N(Beta)            :       19.000003091229 electrons
N(Total)           :       42.000007727381 electrons
E(X)               :      -60.096979348502 Eh       
E(C)               :       -2.346745906656 Eh       
NL Energy, E(C,NL) :        0.175599808684 Eh       
E(XC)              :      -62.268125446474 Eh       
DFET-embed. en.    :        0.000000000000 Eh       

---------------
SCF CONVERGENCE
---------------

  Last Energy change         ...   -3.1429e-07  Tolerance :   1.0000e-06
  Last MAX-Density change    ...    2.4158e-04  Tolerance :   1.0000e-05
  Last RMS-Density change    ...    2.7893e-06  Tolerance :   1.0000e-06
  Last DIIS Error            ...    9.3625e-05  Tolerance :   1.0000e-06

             **** THE GBW FILE WAS UPDATED (TMD20_FeS.gbw) ****
             **** DENSITY FILE WAS UPDATED (TMD20_FeS.scfp) ****
             **** ENERGY FILE WAS UPDATED (TMD20_FeS.en.tmp) ****
----------------------
UHF SPIN CONTAMINATION
----------------------

Warning: in a DFT calculation there is little theoretical justification to 
         calculate <S**2> as in Hartree-Fock theory. We will do it anyways
         but you should keep in mind that the values have only limited relevance

Expectation value of <S**2>     :     6.028054
Ideal value S*(S+1) for S=2.0   :     6.000000
Deviation                       :     0.028054

             **** THE GBW FILE WAS UPDATED (TMD20_FeS.gbw) ****
             **** DENSITY FILE WAS UPDATED (TMD20_FeS.scfp) ****
----------------
ORBITAL ENERGIES
----------------
                 SPIN UP ORBITALS
  NO   OCC          E(Eh)            E(eV) 
   0   1.0000    -256.003561     -6966.2111 
   1   1.0000     -88.800938     -2416.3964 
   2   1.0000     -30.131649      -819.9239 
   3   1.0000     -25.995586      -707.3759 
   4   1.0000     -25.974145      -706.7924 
   5   1.0000     -25.974145      -706.7924 
   6   1.0000      -7.979287      -217.1274 
   7   1.0000      -5.931658      -161.4086 
   8   1.0000      -5.931587      -161.4067 
   9   1.0000      -5.931587      -161.4067 
  10   1.0000      -3.662078       -99.6502 
  11   1.0000      -2.470863       -67.2356 
  12   1.0000      -2.423542       -65.9479 
  13   1.0000      -2.423542       -65.9479 
  14   1.0000      -0.754232       -20.5237 
  15   1.0000      -0.487624       -13.2689 
  16   1.0000      -0.486536       -13.2393 
  17   1.0000      -0.486536       -13.2393 
  18   1.0000      -0.460844       -12.5402 
  19   1.0000      -0.428265       -11.6537 
  20   1.0000      -0.342778        -9.3275 
  21   1.0000      -0.311732        -8.4827 
  22   1.0000      -0.311732        -8.4827 
  23   0.0000      -0.052782        -1.4363 
  24   0.0000       0.036512         0.9936 
  25   0.0000       0.036512         0.9936 
  26   0.0000       0.060597         1.6489 
  27   0.0000       0.095946         2.6108 
  28   0.0000       0.108133         2.9424 
  29   0.0000       0.108133         2.9424 
  30   0.0000       0.144556         3.9336 
  31   0.0000       0.156337         4.2541 
  32   0.0000       0.156337         4.2541 
  33   0.0000       0.215882         5.8745 
  34   0.0000       0.217180         5.9098 
  35   0.0000       0.221809         6.0357 
  36   0.0000       0.249954         6.8016 
  37   0.0000       0.278965         7.5910 
  38   0.0000       0.278965         7.5910 
  39   0.0000       0.301587         8.2066 
  40   0.0000       0.302196         8.2232 
  41   0.0000       0.342572         9.3219 
  42   0.0000       0.358840         9.7645 
  43   0.0000       0.358840         9.7645 
  44   0.0000       0.440482        11.9861 
  45   0.0000       0.556609        15.1461 
  46   0.0000       0.556609        15.1461 
  47   0.0000       0.577262        15.7081 
  48   0.0000       0.608705        16.5637 
  49   0.0000       0.608705        16.5637 
  50   0.0000       0.627635        17.0788 
  51   0.0000       0.627932        17.0869 
  52   0.0000       0.670866        18.2552 
  53   0.0000       0.675115        18.3708 
  54   0.0000       0.675115        18.3708 
  55   0.0000       0.781474        21.2650 
  56   0.0000       0.968365        26.3505 
  57   0.0000       0.976446        26.5705 
  58   0.0000       1.062398        28.9093 
  59   0.0000       1.064636        28.9702 
  60   0.0000       1.064636        28.9702 
  61   0.0000       1.274165        34.6718 
  62   0.0000       1.739945        47.3463 
  63   0.0000       1.743034        47.4304 
  64   0.0000       1.743315        47.4380 
  65   0.0000       1.767790        48.1040 
  66   0.0000       1.767790        48.1040 
  67   0.0000       1.806100        49.1465 
  68   0.0000       1.806689        49.1625 
  69   0.0000       1.822654        49.5969 
  70   0.0000       1.822654        49.5969 
  71   0.0000       1.866228        50.7826 
  72   0.0000       1.866228        50.7826 
  73   0.0000       2.037219        55.4355 
  74   0.0000       2.092388        56.9368 
  75   0.0000       2.092388        56.9368 
  76   0.0000       2.192288        59.6552 
  77   0.0000       2.397893        65.2500 
  78   0.0000       2.397893        65.2500 
  79   0.0000       2.435663        66.2778 
  80   0.0000       2.446129        66.5625 
  81   0.0000       2.468044        67.1589 
  82   0.0000       2.468044        67.1589 
  83   0.0000       2.577296        70.1318 
  84   0.0000       2.798948        76.1633 
  85   0.0000       2.798948        76.1633 
  86   0.0000       3.011517        81.9475 
  87   0.0000       3.267362        88.9094 
  88   0.0000       3.521574        95.8269 
  89   0.0000       3.544148        96.4412 
  90   0.0000       3.566525        97.0501 
  91   0.0000       3.566525        97.0501 
  92   0.0000       3.798909       103.3736 
  93   0.0000       6.915840       188.1896 
  94   0.0000       6.915973       188.1932 
  95   0.0000       6.949897       189.1163 
  96   0.0000       6.949897       189.1163 
  97   0.0000       7.011948       190.8048 
  98   0.0000       8.517782       231.7806 
  99   0.0000       8.526084       232.0065 
 100   0.0000       8.526084       232.0065 
 101   0.0000       8.537046       232.3048 
 102   0.0000       8.540909       232.4099 
 103   0.0000       8.543582       232.4827 
 104   0.0000       8.543582       232.4827 
 105   0.0000       8.554525       232.7805 
 106   0.0000       8.558708       232.8943 
 107   0.0000       9.084244       247.1948 
 108   0.0000       9.084244       247.1948 
 109   0.0000       9.202759       250.4198 
 110   0.0000       9.229031       251.1347 
 111   0.0000       9.235586       251.3131 
 112   0.0000       9.235586       251.3131 
 113   0.0000       9.302382       253.1307 
 114   0.0000       9.317942       253.5541 
 115   0.0000       9.317942       253.5541 
 116   0.0000       9.596464       261.1331 
 117   0.0000      18.727915       509.6125 

                 SPIN DOWN ORBITALS
  NO   OCC          E(Eh)            E(eV) 
   0   1.0000    -256.002331     -6966.1776 
   1   1.0000     -88.799101     -2416.3464 
   2   1.0000     -30.069136      -818.2228 
   3   1.0000     -25.939462      -705.8487 
   4   1.0000     -25.926346      -705.4917 
   5   1.0000     -25.926346      -705.4917 
   6   1.0000      -7.977735      -217.0852 
   7   1.0000      -5.931623      -161.4077 
   8   1.0000      -5.927629      -161.2990 
   9   1.0000      -5.927629      -161.2990 
  10   1.0000      -3.511590       -95.5552 
  11   1.0000      -2.284234       -62.1572 
  12   1.0000      -2.272718       -61.8438 
  13   1.0000      -2.272718       -61.8438 
  14   1.0000      -0.737136       -20.0585 
  15   1.0000      -0.373561       -10.1651 
  16   1.0000      -0.356104        -9.6901 
  17   1.0000      -0.325621        -8.8606 
  18   1.0000      -0.325621        -8.8606 
  19   0.0000      -0.049196        -1.3387 
  20   0.0000       0.000022         0.0006 
  21   0.0000       0.000022         0.0006 
  22   0.0000       0.000290         0.0079 
  23   0.0000       0.044445         1.2094 
  24   0.0000       0.056943         1.5495 
  25   0.0000       0.056943         1.5495 
  26   0.0000       0.067756         1.8437 
  27   0.0000       0.103074         2.8048 
  28   0.0000       0.111043         3.0216 
  29   0.0000       0.111043         3.0216 
  30   0.0000       0.163019         4.4360 
  31   0.0000       0.171228         4.6593 
  32   0.0000       0.171228         4.6593 
  33   0.0000       0.222651         6.0586 
  34   0.0000       0.226794         6.1714 
  35   0.0000       0.234067         6.3693 
  36   0.0000       0.258905         7.0452 
  37   0.0000       0.295589         8.0434 
  38   0.0000       0.295589         8.0434 
  39   0.0000       0.305095         8.3020 
  40   0.0000       0.309703         8.4275 
  41   0.0000       0.353451         9.6179 
  42   0.0000       0.360220         9.8021 
  43   0.0000       0.360220         9.8021 
  44   0.0000       0.448538        12.2053 
  45   0.0000       0.566336        15.4108 
  46   0.0000       0.566336        15.4108 
  47   0.0000       0.586622        15.9628 
  48   0.0000       0.617567        16.8049 
  49   0.0000       0.617567        16.8049 
  50   0.0000       0.641375        17.4527 
  51   0.0000       0.642057        17.4713 
  52   0.0000       0.684078        18.6147 
  53   0.0000       0.696819        18.9614 
  54   0.0000       0.696819        18.9614 
  55   0.0000       0.797351        21.6970 
  56   0.0000       1.002184        27.2708 
  57   0.0000       1.021348        27.7923 
  58   0.0000       1.083306        29.4782 
  59   0.0000       1.106516        30.1098 
  60   0.0000       1.106516        30.1098 
  61   0.0000       1.301166        35.4065 
  62   0.0000       1.747024        47.5389 
  63   0.0000       1.754998        47.7559 
  64   0.0000       1.755331        47.7650 
  65   0.0000       1.771614        48.2081 
  66   0.0000       1.771614        48.2081 
  67   0.0000       1.816202        49.4214 
  68   0.0000       1.817233        49.4494 
  69   0.0000       1.838745        50.0348 
  70   0.0000       1.838745        50.0348 
  71   0.0000       1.887544        51.3627 
  72   0.0000       1.887544        51.3627 
  73   0.0000       2.054290        55.9001 
  74   0.0000       2.104509        57.2666 
  75   0.0000       2.104509        57.2666 
  76   0.0000       2.208504        60.0964 
  77   0.0000       2.471243        67.2460 
  78   0.0000       2.471243        67.2460 
  79   0.0000       2.504794        68.1589 
  80   0.0000       2.527011        68.7635 
  81   0.0000       2.535827        69.0034 
  82   0.0000       2.535827        69.0034 
  83   0.0000       2.654924        72.2442 
  84   0.0000       2.859413        77.8086 
  85   0.0000       2.859413        77.8086 
  86   0.0000       3.085726        83.9669 
  87   0.0000       3.329242        90.5933 
  88   0.0000       3.599666        97.9519 
  89   0.0000       3.644585        99.1742 
  90   0.0000       3.670446        99.8779 
  91   0.0000       3.670446        99.8779 
  92   0.0000       3.888745       105.8181 
  93   0.0000       6.919415       188.2868 
  94   0.0000       6.919524       188.2898 
  95   0.0000       6.951155       189.1505 
  96   0.0000       6.951155       189.1505 
  97   0.0000       7.013574       190.8491 
  98   0.0000       8.624185       234.6760 
  99   0.0000       8.631050       234.8628 
 100   0.0000       8.631050       234.8628 
 101   0.0000       8.643062       235.1897 
 102   0.0000       8.643341       235.1973 
 103   0.0000       8.643588       235.2040 
 104   0.0000       8.647442       235.3089 
 105   0.0000       8.647442       235.3089 
 106   0.0000       8.658151       235.6003 
 107   0.0000       9.099226       247.6025 
 108   0.0000       9.099226       247.6025 
 109   0.0000       9.325094       253.7487 
 110   0.0000       9.346831       254.3402 
 111   0.0000       9.355101       254.5652 
 112   0.0000       9.355101       254.5652 
 113   0.0000       9.374117       255.0827 
 114   0.0000       9.459865       257.4160 
 115   0.0000       9.459865       257.4160 
 116   0.0000       9.722154       264.5533 
 117   0.0000      18.730601       509.6856 

                    ********************************
                    * MULLIKEN POPULATION ANALYSIS *
                    ********************************

--------------------------------------------
MULLIKEN ATOMIC CHARGES AND SPIN POPULATIONS
--------------------------------------------
   0 Fe:    0.464203    3.597309
   1 S :   -0.464203    0.402691
Sum of atomic charges         :   -0.0000000
Sum of atomic spin populations:    4.0000000

-----------------------------------------------------
MULLIKEN REDUCED ORBITAL CHARGES AND SPIN POPULATIONS
-----------------------------------------------------
CHARGE
  0 Fes       :     6.650421  s :     6.650421
      pz      :     4.056680  p :    12.273085
      px      :     4.108203
      py      :     4.108203
      dz2     :     1.125127  d :     6.609519
      dxz     :     1.243253
      dyz     :     1.243253
      dx2y2   :     1.998426
      dxy     :     0.999460
      f0      :     0.000886  f :     0.002709
      f+1     :     0.000805
      f-1     :     0.000805
      f+2     :     0.000091
      f-2     :     0.000054
      f+3     :     0.000034
      f-3     :     0.000034
      g0      :     0.000019  g :     0.000062
      g+1     :     0.000013
      g-1     :     0.000013
      g+2     :     0.000005
      g-2     :     0.000001
      g+3     :     0.000001
      g-3     :     0.000001
      g+4     :     0.000008
      g-4     :     0.000000
  1 S s       :     5.887223  s :     5.887223
      pz      :     3.268268  p :    10.522232
      px      :     3.626982
      py      :     3.626982
      dz2     :     0.009009  d :     0.048121
      dxz     :     0.018756
      dyz     :     0.018756
      dx2y2   :     0.001209
      dxy     :     0.000391
      f0      :     0.002358  f :     0.006628
      f+1     :     0.001953
      f-1     :     0.001953
      f+2     :     0.000270
      f-2     :     0.000093
      f+3     :     0.000000
      f-3     :     0.000000

SPIN
  0 Fes       :     0.283142  s :     0.283142
      pz      :    -0.005307  p :     0.056728
      px      :     0.031017
      py      :     0.031017
      dz2     :     0.770926  d :     3.257223
      dxz     :     0.743272
      dyz     :     0.743272
      dx2y2   :     0.000294
      dxy     :     0.999460
      f0      :     0.000016  f :     0.000199
      f+1     :     0.000076
      f-1     :     0.000076
      f+2     :     0.000020
      f-2     :     0.000054
      f+3     :    -0.000022
      f-3     :    -0.000022
      g0      :     0.000004  g :     0.000017
      g+1     :     0.000002
      g-1     :     0.000002
      g+2     :     0.000005
      g-2     :     0.000001
      g+3     :     0.000001
      g-3     :     0.000001
      g+4     :     0.000002
      g-4     :     0.000000
  1 S s       :    -0.010275  s :    -0.010275
      pz      :    -0.037644  p :     0.430218
      px      :     0.233931
      py      :     0.233931
      dz2     :    -0.001338  d :    -0.016982
      dxz     :    -0.007885
      dyz     :    -0.007885
      dx2y2   :    -0.000265
      dxy     :     0.000391
      f0      :     0.000473  f :    -0.000270
      f+1     :    -0.000392
      f-1     :    -0.000392
      f+2     :    -0.000054
      f-2     :     0.000093
      f+3     :    -0.000000
      f-3     :    -0.000000


                     *******************************
                     * LOEWDIN POPULATION ANALYSIS *
                     *******************************

-------------------------------------------
LOEWDIN ATOMIC CHARGES AND SPIN POPULATIONS
-------------------------------------------
   0 Fe:    0.144772    3.518540
   1 S :   -0.144772    0.481460

----------------------------------------------------
LOEWDIN REDUCED ORBITAL CHARGES AND SPIN POPULATIONS
----------------------------------------------------
CHARGE
  0 Fes       :     6.392577  s :     6.392577
      pz      :     4.236482  p :    12.558304
      px      :     4.160911
      py      :     4.160911
      dz2     :     1.270790  d :     6.896745
      dxz     :     1.317008
      dyz     :     1.317008
      dx2y2   :     1.993973
      dxy     :     0.997965
      f0      :     0.003583  f :     0.007513
      f+1     :     0.001848
      f-1     :     0.001848
      f+2     :     0.000105
      f-2     :     0.000061
      f+3     :     0.000034
      f-3     :     0.000034
      g0      :     0.000037  g :     0.000089
      g+1     :     0.000018
      g-1     :     0.000018
      g+2     :     0.000005
      g-2     :     0.000001
      g+3     :     0.000001
      g-3     :     0.000001
      g+4     :     0.000008
      g-4     :     0.000000
  1 S s       :     5.556745  s :     5.556745
      pz      :     3.463941  p :    10.453554
      px      :     3.494807
      py      :     3.494807
      dz2     :     0.068264  d :     0.118199
      dxz     :     0.021547
      dyz     :     0.021547
      dx2y2   :     0.005158
      dxy     :     0.001684
      f0      :     0.007573  f :     0.016274
      f+1     :     0.003826
      f-1     :     0.003826
      f+2     :     0.000759
      f-2     :     0.000289
      f+3     :     0.000000
      f-3     :     0.000000

SPIN
  0 Fes       :     0.181236  s :     0.181236
      pz      :    -0.006280  p :     0.089377
      px      :     0.047829
      py      :     0.047829
      dz2     :     0.762412  d :     3.247346
      dxz     :     0.742909
      dyz     :     0.742909
      dx2y2   :     0.001152
      dxy     :     0.997965
      f0      :    -0.000136  f :     0.000567
      f+1     :     0.000332
      f-1     :     0.000332
      f+2     :     0.000021
      f-2     :     0.000061
      f+3     :    -0.000022
      f-3     :    -0.000022
      g0      :     0.000001  g :     0.000013
      g+1     :     0.000001
      g-1     :     0.000001
      g+2     :     0.000005
      g-2     :     0.000001
      g+3     :     0.000001
      g-3     :     0.000001
      g+4     :     0.000002
      g-4     :     0.000000
  1 S s       :     0.016335  s :     0.016335
      pz      :     0.035530  p :     0.456436
      px      :     0.210453
      py      :     0.210453
      dz2     :     0.008973  d :     0.004110
      dxz     :    -0.002737
      dyz     :    -0.002737
      dx2y2   :    -0.001073
      dxy     :     0.001684
      f0      :     0.001926  f :     0.004579
      f+1     :     0.001234
      f-1     :     0.001234
      f+2     :    -0.000103
      f-2     :     0.000289
      f+3     :    -0.000000
      f-3     :    -0.000000


                      *****************************
                      * MAYER POPULATION ANALYSIS *
                      *****************************

  NA   - Mulliken gross atomic population
  ZA   - Total nuclear charge
  QA   - Mulliken gross atomic charge
  VA   - Mayer's total valence
  BVA  - Mayer's bonded valence
  FA   - Mayer's free valence

  ATOM       NA         ZA         QA         VA         BVA        FA
  0 Fe    25.5358    26.0000     0.4642     5.2486     2.0588     3.1898
  1 S     16.4642    16.0000    -0.4642     2.1803     2.0588     0.1215

  Mayer bond orders larger than 0.100000
B(  0-Fe,  1-S ) :   2.0588 

-------
TIMINGS
-------

Total SCF time: 0 days 0 hours 0 min 5 sec 

Total time                  ....       5.546 sec
Sum of individual times     ....       5.262 sec  ( 94.9%)

Fock matrix formation       ....       4.893 sec  ( 88.2%)
  XC integration            ....       0.305 sec  (  6.2% of F)
    Basis function eval.    ....       0.032 sec  ( 10.4% of XC)
    Density eval.           ....       0.035 sec  ( 11.3% of XC)
    XC-Functional eval.     ....       0.023 sec  (  7.4% of XC)
    XC-Potential eval.      ....       0.077 sec  ( 25.3% of XC)
Diagonalization             ....       0.070 sec  (  1.3%)
Density matrix formation    ....       0.010 sec  (  0.2%)
Population analysis         ....       0.006 sec  (  0.1%)
Initial guess               ....       0.084 sec  (  1.5%)
Orbital Transformation      ....       0.000 sec  (  0.0%)
Orbital Orthonormalization  ....       0.000 sec  (  0.0%)
DIIS solution               ....       0.027 sec  (  0.5%)
Grid generation             ....       0.172 sec  (  3.1%)

-------------------------   --------------------
FINAL SINGLE POINT ENERGY     -1661.678265256664
-------------------------   --------------------


                            ***************************************
                            *     ORCA property calculations      *
                            ***************************************

                                    ---------------------
                                    Active property flags
                                    ---------------------
   (+) Dipole Moment


------------------------------------------------------------------------------
                       ORCA ELECTRIC PROPERTIES CALCULATION
------------------------------------------------------------------------------

Dipole Moment Calculation                       ... on
Quadrupole Moment Calculation                   ... off
Polarizability Calculation                      ... off
GBWName                                         ... TMD20_FeS.gbw
Electron density file                           ... TMD20_FeS.scfp
The origin for moment calculation is the CENTER OF MASS  = ( 0.000000,  0.000000  0.062073)

-------------
DIPOLE MOMENT
-------------
                                X             Y             Z
Electronic contribution:      0.00000      -0.00000       5.23448
Nuclear contribution   :      0.00000       0.00000      -2.60707
                        -----------------------------------------
Total Dipole Moment    :      0.00000      -0.00000       2.62741
                        -----------------------------------------
Magnitude (a.u.)       :      2.62741
Magnitude (Debye)      :      6.67835



--------------------
Rotational spectrum 
--------------------
 
Rotational constants in cm-1:     0.000000     0.202836     0.202836 
Rotational constants in MHz :     0.000000  6080.880231  6080.880231 

 Dipole components along the rotational axes: 
x,y,z [a.u.] :     2.627412    -0.000000     0.000000 
x,y,z [Debye]:     6.678351    -0.000000     0.000000 

 

Timings for individual modules:

Sum of individual times         ...        6.560 sec (=   0.109 min)
GTO integral calculation        ...        0.642 sec (=   0.011 min)   9.8 %
SCF iterations                  ...        5.918 sec (=   0.099 min)  90.2 %
                             ****ORCA TERMINATED NORMALLY****
TOTAL RUN TIME: 0 days 0 hours 0 minutes 6 seconds 996 msec
