
                                 *****************
                                 * O   R   C   A *
                                 *****************

           --- An Ab Initio, DFT and Semiempirical electronic structure package ---

                  #######################################################
                  #                        -***-                        #
                  #          Department of theory and spectroscopy      #
                  #               Directorship: Frank Neese             #
                  #        Max Planck Institute fuer Kohlenforschung    #
                  #                Kaiser Wilhelm Platz 1               #
                  #                 D-45470 Muelheim/Ruhr               #
                  #                      Germany                        #
                  #                                                     #
                  #                  All rights reserved                #
                  #                        -***-                        #
                  #######################################################


                         Program Version 4.2.0 -  RELEASE  -


 With contributions from (in alphabetic order):
   Daniel Aravena         : Magnetic Suceptibility
   Michael Atanasov       : Ab Initio Ligand Field Theory (pilot matlab implementation)
   Alexander A. Auer      : GIAO ZORA, VPT2
   Ute Becker             : Parallelization
   Giovanni Bistoni       : ED, misc. LED, open-shell LED, HFLED
   Martin Brehm           : Molecular dynamics
   Dmytro Bykov           : SCF Hessian
   Vijay G. Chilkuri      : MRCI spin determinant printing, contributions to CSF-ICE
   Dipayan Datta          : RHF DLPNO-CCSD density
   Achintya Kumar Dutta   : EOM-CC, STEOM-CC
   Dmitry Ganyushin       : Spin-Orbit,Spin-Spin,Magnetic field MRCI
   Miquel Garcia          : C-PCM Hessian, Gaussian charge scheme
   Yang Guo               : DLPNO-NEVPT2, CIM, IAO-localization
   Andreas Hansen         : Spin unrestricted coupled pair/coupled cluster methods
   Benjamin Helmich-Paris : CASSCF linear response (MC-RPA)
   Lee Huntington         : MR-EOM, pCC
   Robert Izsak           : Overlap fitted RIJCOSX, COSX-SCS-MP3, EOM
   Christian Kollmar      : KDIIS, OOCD, Brueckner-CCSD(T), CCSD density
   Simone Kossmann        : Meta GGA functionals, TD-DFT gradient, OOMP2, MP2 Hessian
   Martin Krupicka        : AUTO-CI
   Lucas Lang             : DCDCAS
   Dagmar Lenk            : GEPOL surface, SMD
   Dimitrios Liakos       : Extrapolation schemes; Compound Job, initial MDCI parallelization
   Dimitrios Manganas     : Further ROCIS development; embedding schemes
   Dimitrios Pantazis     : SARC Basis sets
   Taras Petrenko         : DFT Hessian,TD-DFT gradient, ASA, ECA, R-Raman, ABS, FL, XAS/XES, NRVS
   Peter Pinski           : DLPNO-MP2, DLPNO-MP2 Gradient
   Christoph Reimann      : Effective Core Potentials
   Marius Retegan         : Local ZFS, SOC
   Christoph Riplinger    : Optimizer, TS searches, QM/MM, DLPNO-CCSD(T), (RO)-DLPNO pert. Triples
   Tobias Risthaus        : Range-separated hybrids, TD-DFT gradient, RPA, STAB
   Michael Roemelt        : Original ROCIS implementation
   Masaaki Saitow         : Open-shell DLPNO-CCSD energy and density
   Barbara Sandhoefer     : DKH picture change effects
   Avijit Sen             : IP-ROCIS
   Kantharuban Sivalingam : CASSCF convergence, NEVPT2, FIC-MRCI
   Bernardo de Souza      : ESD, SOC TD-DFT
   Georgi Stoychev        : AutoAux, RI-MP2 NMR
   Willem Van den Heuvel  : Paramagnetic NMR
   Boris Wezisla          : Elementary symmetry handling
   Frank Wennmohs         : Technical directorship


 We gratefully acknowledge several colleagues who have allowed us to
 interface, adapt or use parts of their codes:
   Stefan Grimme, W. Hujo, H. Kruse,             : VdW corrections, initial TS optimization,
                  C. Bannwarth                     DFT functionals, gCP, sTDA/sTD-DF
   Ed Valeev, F. Pavosevic, A. Kumar             : LibInt (2-el integral package), F12 methods
   Garnet Chan, S. Sharma, J. Yang, R. Olivares  : DMRG
   Ulf Ekstrom                                   : XCFun DFT Library
   Mihaly Kallay                                 : mrcc  (arbitrary order and MRCC methods)
   Andreas Klamt, Michael Diedenhofen            : otool_cosmo (COSMO solvation model)
   Jiri Pittner, Ondrej Demel                    : Mk-CCSD
   Frank Weinhold                                : gennbo (NPA and NBO analysis)
   Christopher J. Cramer and Donald G. Truhlar   : smd solvation model
   Lars Goerigk                                  : TD-DFT with DH, B97 family of functionals
   V. Asgeirsson, H. Jonsson                     : NEB implementation
   FAccTs GmbH                                   : IRC, NEB, NEB-TS, Multilevel, MM, QM/MM, CI optimization
   S Lehtola, MJT Oliveira, MAL Marques          : LibXC Library


 Your calculation uses the libint2 library for the computation of 2-el integrals
 For citations please refer to: http://libint.valeyev.net

 Your ORCA version has been built with support for libXC version: 4.2.3
 For citations please refer to: https://tddft.org/programs/libxc/

 This ORCA versions uses:
   CBLAS   interface :  Fast vector & matrix operations
   LAPACKE interface :  Fast linear algebra routines
   SCALAPACK package :  Parallel linear algebra routines


Your calculation utilizes the DFT-NL dispersion correction.
Cite in your paper:
Vydrov, O. A.; Van Voorhis, T. J. Chem. Phys. 2010, 133, 244103
Hujo, W.; Grimme, S. J. Chem. Theory Comput. 2011, 7, 3866 
   

----- Orbital basis set information -----
Your calculation utilizes the basis: def2-TZVPPD
   F. Weigend and R. Ahlrichs, Phys. Chem. Chem. Phys. 7, 3297 (2005).
   D. Rappoport and F. Furche, J. Chem. Phys. 133 134105 (2010).

----- AuxJK basis set information -----
Your calculation utilizes the auxiliary basis: def2/JK
   H-Ba, Hf-Rn: F. Weigend, J. Comput. Chem. 29, 167 (2008).

================================================================================
                                        WARNINGS
                       Please study these warnings very carefully!
================================================================================


WARNING: your system is open-shell and RHF/RKS was chosen
  ===> : WILL SWITCH to UHF/UKS


INFO   : the flag for use of LIBINT has been found!

================================================================================
                                       INPUT FILE
================================================================================
NAME = TMD22_CoF.in
|  1> #
|  2> # TMD22_CoF wB97X-V/Def2-TZVPPD
|  3> #
|  4> ! wb97x-v def2-tzvppd def2/jk grid4 nofinalgrid
|  5> 
|  6> *xyz 0 3
|  7> Co       0.000000    0.000000    0.440000 
|  8> F        0.000000    0.000000   -1.320000 
|  9> *
| 10> 
| 11> %maxcore 5000
| 12> 
| 13> %pal
| 14> nprocs = 24
| 15> end
| 16> 
| 17> 
| 18>                          ****END OF INPUT****
================================================================================

                       ****************************
                       * Single Point Calculation *
                       ****************************

---------------------------------
CARTESIAN COORDINATES (ANGSTROEM)
---------------------------------
  Co     0.000000    0.000000    0.440000
  F      0.000000    0.000000   -1.320000

----------------------------
CARTESIAN COORDINATES (A.U.)
----------------------------
  NO LB      ZA    FRAG     MASS         X           Y           Z
   0 Co   27.0000    0    58.930    0.000000    0.000000    0.831479
   1 F     9.0000    0    18.998    0.000000    0.000000   -2.494438

--------------------------------
INTERNAL COORDINATES (ANGSTROEM)
--------------------------------
 Co     0   0   0     0.000000000000     0.00000000     0.00000000
 F      1   0   0     1.760000000000     0.00000000     0.00000000

---------------------------
INTERNAL COORDINATES (A.U.)
---------------------------
 Co     0   0   0     0.000000000000     0.00000000     0.00000000
 F      1   0   0     3.325917995701     0.00000000     0.00000000

---------------------
BASIS SET INFORMATION
---------------------
There are 2 groups of distinct atoms

 Group   1 Type Co  : 17s13p7d2f1g contracted to 6s6p4d2f1g pattern {842111/631111/4111/11/1}
 Group   2 Type F   : 12s7p3d1f contracted to 6s4p3d1f pattern {621111/4111/111/1}

Atom   0Co   basis set group =>   1
Atom   1F    basis set group =>   2
----------------------------------
AUXILIARY/JK BASIS SET INFORMATION
----------------------------------
There are 2 groups of distinct atoms

 Group   1 Type Co  : 19s14p12d10f7g3h1i contracted to 16s13p11d9f5g3h1i pattern {4111111111111111/2111111111111/21111111111/211111111/31111/111/1}
 Group   2 Type F   : 14s10p6d2f1g contracted to 10s8p4d2f1g pattern {5111111111/31111111/3111/11/1}

Atom   0Co   basis set group =>   1
Atom   1F    basis set group =>   2


           ************************************************************
           *        Program running with 24 parallel MPI-processes    *
           *              working on a common directory               *
           ************************************************************
------------------------------------------------------------------------------
                           ORCA GTO INTEGRAL CALCULATION
------------------------------------------------------------------------------

                         BASIS SET STATISTICS AND STARTUP INFO

 # of primitive gaussian shells          ...   63
 # of primitive gaussian functions       ...  169
 # of contracted shells                  ...   33
 # of contracted basis functions         ...  107
 Highest angular momentum                ...    4
 Maximum contraction depth               ...    8
 Integral package used                   ... LIBINT
 Integral threshhold            Thresh   ...  1.000e-10
 Primitive cut-off              TCut     ...  1.000e-11


------------------------------ INTEGRAL EVALUATION ----------------------------


 * One electron integrals 
 Pre-screening matrix                    ... done
 Shell pair data                         ... done (   0.000 sec)



           ************************************************************
           *        Program running with 24 parallel MPI-processes    *
           *              working on a common directory               *
           ************************************************************
-------------------------------------------------------------------------------
                                 ORCA SCF
-------------------------------------------------------------------------------

------------
SCF SETTINGS
------------
Hamiltonian:
 Density Functional     Method          .... DFT(GTOs)
 Exchange Functional    Exchange        .... WB97X-V
 Correlation Functional Correlation     .... WB97X-V
 Gradients option       PostSCFGGA      .... off
 Hybrid DFT is turned on
   Fraction HF Exchange ScalHFX         ....  0.167000
   Scaling of DF-GGA-X  ScalDFX         ....  0.000000
   Scaling of DF-GGA-C  ScalDFC         ....  1.000000
   Scaling of DF-LDA-C  ScalLDAC        ....  1.000000
   Perturbative correction              ....  0.000000
   Density functional embedding theory  .... OFF
 Long-range corrected/Screened/Range-Separated Hybrid DFT is turned on
   Amount of maximum screened exact exchange              ....  0.833000
   Range separation parameter mu (erf(mu*r12)/r12)        ....  0.300000
   NL short-range parameter             ....  6.000000
   NL long-range parameter              ....  0.010000


General Settings:
 Integral files         IntName         .... TMD22_CoF
 Hartree-Fock type      HFTyp           .... UHF
 Total Charge           Charge          ....    0
 Multiplicity           Mult            ....    3
 Number of Electrons    NEL             ....   36
 Basis Dimension        Dim             ....  107
 Nuclear Repulsion      ENuc            ....     73.0625350096 Eh

Convergence Acceleration:
 DIIS                   CNVDIIS         .... on
   Start iteration      DIISMaxIt       ....    12
   Startup error        DIISStart       ....  0.200000
   # of expansion vecs  DIISMaxEq       ....     5
   Bias factor          DIISBfac        ....   1.050
   Max. coefficient     DIISMaxC        ....  10.000
 Newton-Raphson         CNVNR           .... off
 SOSCF                  CNVSOSCF        .... off
 Level Shifting         CNVShift        .... on
   Level shift para.    LevelShift      ....    0.2500
   Turn off err/grad.   ShiftErr        ....    0.0010
 Zerner damping         CNVZerner       .... off
 Static damping         CNVDamp         .... on
   Fraction old density DampFac         ....    0.7000
   Max. Damping (<1)    DampMax         ....    0.9800
   Min. Damping (>=0)   DampMin         ....    0.0000
   Turn off err/grad.   DampErr         ....    0.1000
 Fernandez-Rico         CNVRico         .... off

SCF Procedure:
 Maximum # iterations   MaxIter         ....   125
 SCF integral mode      SCFMode         .... Direct
   Integral package                     .... LIBINT
 Reset frequency        DirectResetFreq ....    20
 Integral Threshold     Thresh          ....  1.000e-10 Eh
 Primitive CutOff       TCut            ....  1.000e-11 Eh

Convergence Tolerance:
 Convergence Check Mode ConvCheckMode   .... Total+1el-Energy
 Convergence forced     ConvForced      .... 0
 Energy Change          TolE            ....  1.000e-06 Eh
 1-El. energy change                    ....  1.000e-03 Eh
 DIIS Error             TolErr          ....  1.000e-06


Diagonalization of the overlap matrix:
Smallest eigenvalue                        ... 2.298e-03
Time for diagonalization                   ...    0.003 sec
Threshold for overlap eigenvalues          ... 1.000e-08
Number of eigenvalues below threshold      ... 0
Time for construction of square roots      ...    0.002 sec
Total time needed                          ...    0.005 sec

-------------------
DFT GRID GENERATION
-------------------

General Integration Accuracy     IntAcc      ...  4.670
Radial Grid Type                 RadialGrid  ... Gauss-Chebyshev
Angular Grid (max. acc.)         AngularGrid ... Lebedev-302
Angular grid pruning method      GridPruning ... 3 (G Style)
Weight generation scheme         WeightScheme... Becke
Basis function cutoff            BFCut       ...    1.0000e-10
Integration weight cutoff        WCut        ...    1.0000e-14
Grids for H and He will be reduced by one unit

# of grid points (after initial pruning)     ...  15912 (   0.0 sec)
# of grid points (after weights+screening)   ...  15863 (   0.0 sec)
nearest neighbour list constructed           ...    0.0 sec
Grid point re-assignment to atoms done       ...    0.0 sec
Grid point division into batches done        ...    0.1 sec
Reduced shell lists constructed in    0.1 sec

Total number of grid points                  ...    15863
Total number of batches                      ...      249
Average number of points per batch           ...       63
Average number of grid points per atom       ...     7932
Average number of shells per batch           ...     5.92 (17.93%)
Average number of basis functions per batch  ...    16.08 (15.03%)
Average number of large shells per batch     ...     3.42 (57.75%)
Average number of large basis fcns per batch ...     8.58 (53.37%)
Maximum spatial batch extension              ...  28.57, 31.41, 18.45 au
Average spatial batch extension              ...   0.89,  0.95,  0.67 au

Time for grid setup =    0.152 sec

------------------------------
INITIAL GUESS: MODEL POTENTIAL
------------------------------
Loading Hartree-Fock densities                     ... done
Calculating cut-offs                               ... done
Setting up the integral package                    ... done
Initializing the effective Hamiltonian             ... done
Starting the Coulomb interaction                   ... done (   0.0 sec)
Reading the grid                                   ... done
Mapping shells                                     ... done
Starting the XC term evaluation                    ... done (   0.0 sec)
  promolecular density results
     # of electrons  =     36.000020312
     EX              =    -51.310883834
     EC              =     -2.031645130
     EX+EC           =    -53.342528964
Transforming the Hamiltonian                       ... done (   0.0 sec)
Diagonalizing the Hamiltonian                      ... done (   0.0 sec)
Back transforming the eigenvectors                 ... done (   0.0 sec)
Now organizing SCF variables                       ... done
                      ------------------
                      INITIAL GUESS DONE (   0.2 sec)
                      ------------------
--------------
SCF ITERATIONS
--------------
ITER       Energy         Delta-E        Max-DP      RMS-DP      [F,P]     Damp
               ***  Starting incremental Fock matrix formation  ***
  0  -1480.1721561779   0.000000000000 0.29477391  0.00526158  1.5658056 0.7000
  1  -1481.2779564330  -1.105800255146 0.20766033  0.00292857  0.3252064 0.7000
  2  -1481.6415166900  -0.363560257013 0.13959078  0.00201408  0.2694857 0.7000
                               ***Turning on DIIS***
  3  -1481.9162755730  -0.274758882941 0.09546474  0.00138089  0.1816718 0.7000
  4  -1482.1108418037  -0.194566230699 0.06903157  0.00099134  0.1047193 0.7000
  5  -1482.2519898434  -0.141148039677 0.17009520  0.00254909  0.0727610 0.0000
  6  -1482.6046821883  -0.352692344944 0.01341501  0.00034048  0.0165491 0.0000
  7  -1482.6077303748  -0.003048186547 0.01084515  0.00023411  0.0090253 0.0000
  8  -1482.6092606958  -0.001530320952 0.00861314  0.00018471  0.0064719 0.0000
  9  -1482.6100920775  -0.000831381682 0.00636475  0.00011790  0.0045798 0.0000
 10  -1482.6104437625  -0.000351685003 0.00578287  0.00009104  0.0032891 0.0000
 11  -1482.6106381649  -0.000194402423 0.00529038  0.00008119  0.0022787 0.0000
 12  -1482.6107763044  -0.000138139510 0.00448754  0.00007132  0.0017580 0.0000
 13  -1482.6108762678  -0.000099963393 0.00529864  0.00009790  0.0008298 0.0000
 14  -1482.6109859623  -0.000109694506 0.00244370  0.00005064  0.0007912 0.0000
 15  -1482.6110321930  -0.000046230701 0.00143385  0.00003341  0.0001839 0.0000
 16  -1482.6110588663  -0.000026673289 0.00086079  0.00001725  0.0004692 0.0000
 17  -1482.6110717007  -0.000012834364 0.00111019  0.00002164  0.0003809 0.0000
 18  -1482.6110868072  -0.000015106544 0.00120238  0.00002535  0.0003559 0.0000
 19  -1482.6111034698  -0.000016662637 0.00026038  0.00000440  0.0003521 0.0000
               *** Restarting incremental Fock matrix formation ***
                                   *** Resetting DIIS ***
 20  -1482.6111060319  -0.000002562057 0.00128143  0.00002540  0.0001512 0.0000
 21  -1482.6111211129  -0.000015081028 0.00052837  0.00001066  0.0001877 0.0000
 22  -1482.6111270625  -0.000005949556 0.00094546  0.00001846  0.0001626 0.0000
 23  -1482.6111166389   0.000010423601 0.00106724  0.00002066  0.0002006 0.0000
 24  -1482.6111282229  -0.000011583995 0.00121585  0.00002328  0.0002537 0.0000
 25  -1482.6111150344   0.000013188469 0.00247730  0.00004782  0.0004239 0.0000
 26  -1482.6111408347  -0.000025800307 0.00144261  0.00002753  0.0003604 0.0000
 27  -1482.6111265541   0.000014280622 0.00006542  0.00000132  0.0004213 0.0000
 28  -1482.6111258593   0.000000694823 0.00266801  0.00005061  0.0003836 0.0000
 29  -1482.6111510419  -0.000025182619 0.00433412  0.00008048  0.0002464 0.0000
 30  -1482.6111800344  -0.000028992519 0.00526311  0.00009438  0.0003311 0.0000
 31  -1482.6111967197  -0.000016685274 0.01068863  0.00018451  0.0002050 0.0000
 32  -1482.6111730974   0.000023622245 0.00181133  0.00003020  0.0003470 0.0000
 33  -1482.6111620282   0.000011069261 0.00163985  0.00002890  0.0002764 0.0000
 34  -1482.6111730058  -0.000010977610 0.00375689  0.00006473  0.0001386 0.0000
 35  -1482.6111901221  -0.000017116304 0.00080960  0.00001342  0.0001835 0.0000
 36  -1482.6111874462   0.000002675856 0.00019905  0.00000329  0.0002250 0.0000
 37  -1482.6111867357   0.000000710550 0.00036461  0.00000609  0.0002272 0.0000
 38  -1482.6111853264   0.000001409333 0.00056494  0.00000888  0.0002436 0.0000
 39  -1482.6111871971  -0.000001870704 0.00046141  0.00000739  0.0000766 0.0000
               *** Restarting incremental Fock matrix formation ***
                                   *** Resetting DIIS ***
 40  -1482.6111857252   0.000001471812 0.00053157  0.00000995  0.0001866 0.0000
 41  -1482.6111879915  -0.000002266251 0.00025915  0.00000506  0.0001859 0.0000
 42  -1482.6111890260  -0.000001034478 0.00017085  0.00000310  0.0002095 0.0000
                 **** Energy Check signals convergence ****

               *****************************************************
               *                     SUCCESS                       *
               *           SCF CONVERGED AFTER  43 CYCLES          *
               *****************************************************


Setting up the DFT-NL grid :

General Integration Accuracy     IntAcc      ...  4.340
Radial Grid Type                 RadialGrid  ... Gauss-Chebyshev
Angular Grid (max. acc.)         AngularGrid ... Lebedev-110
Angular grid pruning method      GridPruning ... 3 (G Style)
Weight generation scheme         WeightScheme... Becke
Basis function cutoff            BFCut       ...    1.0000e-10
Integration weight cutoff        WCut        ...    1.0000e-14
Grids for H and He will be reduced by one unit

# of grid points (after initial pruning)     ...   4652 (   0.0 sec)
# of grid points (after weights+screening)   ...   4627 (   0.0 sec)
nearest neighbour list constructed           ...    0.0 sec
Grid point re-assignment to atoms done       ...    0.0 sec
Grid point division into batches done        ...    0.0 sec
Reduced shell lists constructed in    0.0 sec

Total number of grid points                  ...     4627
Total number of batches                      ...       73
Average number of points per batch           ...       63
Average number of grid points per atom       ...     2314
Average number of shells per batch           ...     9.60 (29.09%)
Average number of basis functions per batch  ...    27.20 (25.42%)
Average number of large shells per batch     ...     8.80 (91.67%)
Average number of large basis fcns per batch ...    26.40 (97.06%)
Maximum spatial batch extension              ...  19.55, 28.73, 15.95 au
Average spatial batch extension              ...   0.99,  1.33,  0.87 au

Final grid set up in    0.0 sec

-------------------------------------------------------------------------------
                         DFT-NL dispersion correction                          
-------------------------------------------------------------------------------

SC Energy -1482.611189653 
NL    Energy 0.152394490 
SC+NL Energy -1482.458795163 
NL done in    0.1 sec
-------------------------------------------------------------------------------

----------------
TOTAL SCF ENERGY
----------------

Total Energy       :        -1482.45879516 Eh          -40339.75465 eV

Components:
Nuclear Repulsion  :           73.06253501 Eh            1988.13265 eV
Electronic Energy  :        -1555.52133017 Eh          -42327.88730 eV
One Electron Energy:        -2203.24068909 Eh          -59953.22711 eV
Two Electron Energy:          647.71935891 Eh           17625.33981 eV

Virial components:
Potential Energy   :        -2962.63737782 Eh          -80617.46156 eV
Kinetic Energy     :         1480.17858265 Eh           40277.70691 eV
Virial Ratio       :            2.00154050


DFT components:
N(Alpha)           :       18.999988354151 electrons
N(Beta)            :       16.999988463097 electrons
N(Total)           :       35.999976817249 electrons
E(X)               :      -51.567735357888 Eh       
E(C)               :       -2.034114037510 Eh       
NL Energy, E(C,NL) :        0.152394489762 Eh       
E(XC)              :      -53.449454905636 Eh       
DFET-embed. en.    :        0.000000000000 Eh       

---------------
SCF CONVERGENCE
---------------

  Last Energy change         ...   -6.2700e-07  Tolerance :   1.0000e-06
  Last MAX-Density change    ...    6.5737e-05  Tolerance :   1.0000e-05
  Last RMS-Density change    ...    1.1848e-06  Tolerance :   1.0000e-06
  Last DIIS Error            ...    1.9583e-04  Tolerance :   1.0000e-06

             **** THE GBW FILE WAS UPDATED (TMD22_CoF.gbw) ****
             **** DENSITY FILE WAS UPDATED (TMD22_CoF.scfp) ****
             **** ENERGY FILE WAS UPDATED (TMD22_CoF.en.tmp) ****
----------------------
UHF SPIN CONTAMINATION
----------------------

Warning: in a DFT calculation there is little theoretical justification to 
         calculate <S**2> as in Hartree-Fock theory. We will do it anyways
         but you should keep in mind that the values have only limited relevance

Expectation value of <S**2>     :     2.097406
Ideal value S*(S+1) for S=1.0   :     2.000000
Deviation                       :     0.097406

             **** THE GBW FILE WAS UPDATED (TMD22_CoF.gbw) ****
             **** DENSITY FILE WAS UPDATED (TMD22_CoF.scfp) ****
----------------
ORBITAL ENERGIES
----------------
                 SPIN UP ORBITALS
  NO   OCC          E(Eh)            E(eV) 
   0   1.0000    -277.390534     -7548.1802 
   1   1.0000     -32.877475      -894.6416 
   2   1.0000     -28.533677      -776.4408 
   3   1.0000     -28.500490      -775.5378 
   4   1.0000     -28.500490      -775.5378 
   5   1.0000     -24.665989      -671.1957 
   6   1.0000      -3.862420      -105.1018 
   7   1.0000      -2.597623       -70.6849 
   8   1.0000      -2.524250       -68.6883 
   9   1.0000      -2.524250       -68.6883 
  10   1.0000      -1.196743       -32.5650 
  11   1.0000      -0.512982       -13.9590 
  12   1.0000      -0.483984       -13.1699 
  13   1.0000      -0.483984       -13.1699 
  14   1.0000      -0.399758       -10.8780 
  15   1.0000      -0.399758       -10.8780 
  16   1.0000      -0.370360       -10.0780 
  17   1.0000      -0.370360       -10.0780 
  18   1.0000      -0.368269       -10.0211 
  19   0.0000      -0.041487        -1.1289 
  20   0.0000       0.049534         1.3479 
  21   0.0000       0.049534         1.3479 
  22   0.0000       0.079858         2.1730 
  23   0.0000       0.129071         3.5122 
  24   0.0000       0.190291         5.1781 
  25   0.0000       0.190291         5.1781 
  26   0.0000       0.208515         5.6740 
  27   0.0000       0.208515         5.6740 
  28   0.0000       0.208908         5.6847 
  29   0.0000       0.276707         7.5296 
  30   0.0000       0.277445         7.5497 
  31   0.0000       0.277445         7.5497 
  32   0.0000       0.346208         9.4208 
  33   0.0000       0.346208         9.4208 
  34   0.0000       0.359924         9.7940 
  35   0.0000       0.469132        12.7657 
  36   0.0000       0.646100        17.5813 
  37   0.0000       0.646102        17.5813 
  38   0.0000       0.678178        18.4541 
  39   0.0000       0.678178        18.4541 
  40   0.0000       0.731923        19.9166 
  41   0.0000       0.748775        20.3752 
  42   0.0000       0.795904        21.6576 
  43   0.0000       0.795904        21.6576 
  44   0.0000       0.924473        25.1562 
  45   0.0000       0.924473        25.1562 
  46   0.0000       1.090958        29.6865 
  47   0.0000       1.090958        29.6865 
  48   0.0000       1.166513        31.7424 
  49   0.0000       1.196683        32.5634 
  50   0.0000       1.196683        32.5634 
  51   0.0000       1.245589        33.8942 
  52   0.0000       1.505274        40.9606 
  53   0.0000       2.232250        60.7426 
  54   0.0000       2.396422        65.2100 
  55   0.0000       2.396422        65.2100 
  56   0.0000       2.422897        65.9304 
  57   0.0000       2.422910        65.9307 
  58   0.0000       2.768279        75.3287 
  59   0.0000       2.768279        75.3287 
  60   0.0000       2.800851        76.2150 
  61   0.0000       2.800852        76.2151 
  62   0.0000       2.826409        76.9105 
  63   0.0000       2.826409        76.9105 
  64   0.0000       2.883770        78.4714 
  65   0.0000       2.982693        81.1632 
  66   0.0000       2.982693        81.1632 
  67   0.0000       3.106398        84.5294 
  68   0.0000       3.328897        90.5839 
  69   0.0000       3.530807        96.0781 
  70   0.0000       3.530807        96.0781 
  71   0.0000       3.915784       106.5539 
  72   0.0000       3.926691       106.8507 
  73   0.0000       3.926692       106.8507 
  74   0.0000       3.952739       107.5595 
  75   0.0000       3.952739       107.5595 
  76   0.0000       4.084778       111.1524 
  77   0.0000       4.401393       119.7680 
  78   0.0000       7.047984       191.7854 
  79   0.0000       7.048024       191.7865 
  80   0.0000       7.058327       192.0668 
  81   0.0000       7.058327       192.0668 
  82   0.0000       7.098641       193.1638 
  83   0.0000       7.098641       193.1638 
  84   0.0000       7.202300       195.9845 
  85   0.0000       8.625263       234.7053 
  86   0.0000       8.625848       234.7213 
  87   0.0000       8.677454       236.1255 
  88   0.0000       8.677454       236.1255 
  89   0.0000       8.891833       241.9591 
  90   0.0000      10.050268       273.4817 
  91   0.0000      10.050272       273.4818 
  92   0.0000      10.062119       273.8042 
  93   0.0000      10.062119       273.8042 
  94   0.0000      10.066860       273.9332 
  95   0.0000      10.066860       273.9332 
  96   0.0000      10.101963       274.8884 
  97   0.0000      10.123904       275.4854 
  98   0.0000      10.123944       275.4865 
  99   0.0000      10.575566       287.7758 
 100   0.0000      10.575576       287.7761 
 101   0.0000      10.636553       289.4353 
 102   0.0000      10.636553       289.4353 
 103   0.0000      10.644496       289.6515 
 104   0.0000      10.644496       289.6515 
 105   0.0000      10.962539       298.3059 
 106   0.0000      57.079397      1553.2094 

                 SPIN DOWN ORBITALS
  NO   OCC          E(Eh)            E(eV) 
   0   1.0000    -277.390252     -7548.1725 
   1   1.0000     -32.834249      -893.4653 
   2   1.0000     -28.486042      -775.1446 
   3   1.0000     -28.471964      -774.7615 
   4   1.0000     -28.471964      -774.7615 
   5   1.0000     -24.662814      -671.1093 
   6   1.0000      -3.763223      -102.4025 
   7   1.0000      -2.452958       -66.7484 
   8   1.0000      -2.435425       -66.2713 
   9   1.0000      -2.435425       -66.2713 
  10   1.0000      -1.188170       -32.3317 
  11   1.0000      -0.491282       -13.3685 
  12   1.0000      -0.447154       -12.1677 
  13   1.0000      -0.447154       -12.1677 
  14   1.0000      -0.318124        -8.6566 
  15   1.0000      -0.318124        -8.6566 
  16   1.0000      -0.314871        -8.5681 
  17   0.0000      -0.026814        -0.7297 
  18   0.0000       0.034505         0.9389 
  19   0.0000       0.034505         0.9389 
  20   0.0000       0.076007         2.0683 
  21   0.0000       0.076007         2.0683 
  22   0.0000       0.081837         2.2269 
  23   0.0000       0.130181         3.5424 
  24   0.0000       0.190699         5.1892 
  25   0.0000       0.190699         5.1892 
  26   0.0000       0.209317         5.6958 
  27   0.0000       0.209317         5.6958 
  28   0.0000       0.212512         5.7827 
  29   0.0000       0.281457         7.6588 
  30   0.0000       0.282764         7.6944 
  31   0.0000       0.282764         7.6944 
  32   0.0000       0.358644         9.7592 
  33   0.0000       0.358644         9.7592 
  34   0.0000       0.361988         9.8502 
  35   0.0000       0.474559        12.9134 
  36   0.0000       0.646798        17.6003 
  37   0.0000       0.646799        17.6003 
  38   0.0000       0.685946        18.6655 
  39   0.0000       0.685946        18.6655 
  40   0.0000       0.739947        20.1350 
  41   0.0000       0.762191        20.7403 
  42   0.0000       0.798999        21.7419 
  43   0.0000       0.798999        21.7419 
  44   0.0000       0.934660        25.4334 
  45   0.0000       0.934660        25.4334 
  46   0.0000       1.101022        29.9603 
  47   0.0000       1.101023        29.9604 
  48   0.0000       1.169841        31.8330 
  49   0.0000       1.230781        33.4913 
  50   0.0000       1.230781        33.4913 
  51   0.0000       1.256146        34.1815 
  52   0.0000       1.512608        41.1602 
  53   0.0000       2.251894        61.2772 
  54   0.0000       2.407417        65.5091 
  55   0.0000       2.407417        65.5091 
  56   0.0000       2.427019        66.0425 
  57   0.0000       2.427034        66.0430 
  58   0.0000       2.813444        76.5577 
  59   0.0000       2.813444        76.5577 
  60   0.0000       2.841781        77.3288 
  61   0.0000       2.841781        77.3288 
  62   0.0000       2.874405        78.2165 
  63   0.0000       2.874405        78.2165 
  64   0.0000       2.938073        79.9490 
  65   0.0000       3.025330        82.3234 
  66   0.0000       3.025330        82.3234 
  67   0.0000       3.154800        85.8465 
  68   0.0000       3.354641        91.2844 
  69   0.0000       3.538330        96.2828 
  70   0.0000       3.538330        96.2828 
  71   0.0000       3.944006       107.3219 
  72   0.0000       3.964921       107.8910 
  73   0.0000       3.964923       107.8911 
  74   0.0000       4.052420       110.2720 
  75   0.0000       4.052420       110.2720 
  76   0.0000       4.106763       111.7507 
  77   0.0000       4.419563       120.2624 
  78   0.0000       7.052717       191.9142 
  79   0.0000       7.052759       191.9153 
  80   0.0000       7.064279       192.2288 
  81   0.0000       7.064279       192.2288 
  82   0.0000       7.103412       193.2937 
  83   0.0000       7.103412       193.2937 
  84   0.0000       7.208039       196.1407 
  85   0.0000       8.635288       234.9781 
  86   0.0000       8.635869       234.9940 
  87   0.0000       8.686568       236.3735 
  88   0.0000       8.686568       236.3735 
  89   0.0000       8.903930       242.2882 
  90   0.0000      10.133708       275.7522 
  91   0.0000      10.133708       275.7522 
  92   0.0000      10.141339       275.9599 
  93   0.0000      10.141341       275.9599 
  94   0.0000      10.153062       276.2789 
  95   0.0000      10.153099       276.2799 
  96   0.0000      10.154089       276.3068 
  97   0.0000      10.154089       276.3068 
  98   0.0000      10.168681       276.7039 
  99   0.0000      10.688130       290.8388 
 100   0.0000      10.688130       290.8388 
 101   0.0000      10.706046       291.3263 
 102   0.0000      10.706056       291.3266 
 103   0.0000      10.748788       292.4894 
 104   0.0000      10.748788       292.4894 
 105   0.0000      11.040094       300.4162 
 106   0.0000      57.083248      1553.3142 

                    ********************************
                    * MULLIKEN POPULATION ANALYSIS *
                    ********************************

--------------------------------------------
MULLIKEN ATOMIC CHARGES AND SPIN POPULATIONS
--------------------------------------------
   0 Co:    0.680037    1.924810
   1 F :   -0.680037    0.075190
Sum of atomic charges         :   -0.0000000
Sum of atomic spin populations:    2.0000000

-----------------------------------------------------
MULLIKEN REDUCED ORBITAL CHARGES AND SPIN POPULATIONS
-----------------------------------------------------
CHARGE
  0 Cos       :     6.396717  s :     6.396717
      pz      :     4.046717  p :    12.090191
      px      :     4.021737
      py      :     4.021737
      dz2     :     1.757808  d :     7.828974
      dxz     :     1.034966
      dyz     :     1.034966
      dx2y2   :     2.000617
      dxy     :     2.000617
      f0      :     0.002022  f :     0.003986
      f+1     :     0.000907
      f-1     :     0.000907
      f+2     :     0.000075
      f-2     :     0.000075
      f+3     :     0.000000
      f-3     :     0.000000
      g0      :     0.000035  g :     0.000095
      g+1     :     0.000015
      g-1     :     0.000015
      g+2     :     0.000015
      g-2     :     0.000015
      g+3     :     0.000000
      g-3     :     0.000000
      g+4     :     0.000000
      g-4     :     0.000000
  1 F s       :     3.991651  s :     3.991651
      pz      :     1.799082  p :     5.680123
      px      :     1.940520
      py      :     1.940520
      dz2     :     0.005838  d :     0.008034
      dxz     :     0.001811
      dyz     :     0.001811
      dx2y2   :    -0.000713
      dxy     :    -0.000713
      f0      :     0.000129  f :     0.000229
      f+1     :     0.000044
      f-1     :     0.000044
      f+2     :     0.000006
      f-2     :     0.000006
      f+3     :     0.000000
      f-3     :     0.000000

SPIN
  0 Cos       :    -0.184877  s :    -0.184877
      pz      :     0.005196  p :     0.012848
      px      :     0.003826
      py      :     0.003826
      dz2     :     0.170478  d :     2.096323
      dxz     :     0.963096
      dyz     :     0.963096
      dx2y2   :    -0.000173
      dxy     :    -0.000173
      f0      :     0.000066  f :     0.000474
      f+1     :     0.000201
      f-1     :     0.000201
      f+2     :     0.000003
      f-2     :     0.000003
      f+3     :     0.000000
      f-3     :     0.000000
      g0      :    -0.000003  g :     0.000041
      g+1     :     0.000008
      g-1     :     0.000008
      g+2     :     0.000015
      g-2     :     0.000015
      g+3     :     0.000000
      g-3     :     0.000000
      g+4     :     0.000000
      g-4     :     0.000000
  1 F s       :    -0.006349  s :    -0.006349
      pz      :     0.015936  p :     0.086156
      px      :     0.035110
      py      :     0.035110
      dz2     :    -0.000444  d :    -0.004640
      dxz     :    -0.002254
      dyz     :    -0.002254
      dx2y2   :     0.000156
      dxy     :     0.000156
      f0      :    -0.000003  f :     0.000023
      f+1     :     0.000014
      f-1     :     0.000014
      f+2     :    -0.000001
      f-2     :    -0.000001
      f+3     :     0.000000
      f-3     :     0.000000


                     *******************************
                     * LOEWDIN POPULATION ANALYSIS *
                     *******************************

-------------------------------------------
LOEWDIN ATOMIC CHARGES AND SPIN POPULATIONS
-------------------------------------------
   0 Co:    0.542858    1.938793
   1 F :   -0.542858    0.061207

----------------------------------------------------
LOEWDIN REDUCED ORBITAL CHARGES AND SPIN POPULATIONS
----------------------------------------------------
CHARGE
  0 Cos       :     6.278123  s :     6.278123
      pz      :     4.122677  p :    12.211871
      px      :     4.044597
      py      :     4.044597
      dz2     :     1.829220  d :     7.958627
      dxz     :     1.069454
      dyz     :     1.069454
      dx2y2   :     1.995249
      dxy     :     1.995249
      f0      :     0.004865  f :     0.008404
      f+1     :     0.001680
      f-1     :     0.001680
      f+2     :     0.000090
      f-2     :     0.000090
      f+3     :     0.000000
      f-3     :     0.000000
      g0      :     0.000052  g :     0.000117
      g+1     :     0.000019
      g-1     :     0.000019
      g+2     :     0.000014
      g-2     :     0.000014
      g+3     :     0.000000
      g-3     :     0.000000
      g+4     :     0.000000
      g-4     :     0.000000
  1 F s       :     3.837034  s :     3.837034
      pz      :     1.869897  p :     5.617262
      px      :     1.873682
      py      :     1.873682
      dz2     :     0.057867  d :     0.088088
      dxz     :     0.010483
      dyz     :     0.010483
      dx2y2   :     0.004628
      dxy     :     0.004628
      f0      :     0.000265  f :     0.000474
      f+1     :     0.000086
      f-1     :     0.000086
      f+2     :     0.000019
      f-2     :     0.000019
      f+3     :     0.000000
      f-3     :     0.000000

SPIN
  0 Cos       :    -0.153416  s :    -0.153416
      pz      :     0.010506  p :     0.027463
      px      :     0.008479
      py      :     0.008479
      dz2     :     0.163656  d :     2.063944
      dxz     :     0.949543
      dyz     :     0.949543
      dx2y2   :     0.000601
      dxy     :     0.000601
      f0      :     0.000171  f :     0.000763
      f+1     :     0.000294
      f-1     :     0.000294
      f+2     :     0.000002
      f-2     :     0.000002
      f+3     :     0.000000
      f-3     :     0.000000
      g0      :    -0.000004  g :     0.000039
      g+1     :     0.000007
      g-1     :     0.000007
      g+2     :     0.000014
      g-2     :     0.000014
      g+3     :     0.000000
      g-3     :     0.000000
      g+4     :     0.000000
      g-4     :     0.000000
  1 F s       :    -0.014751  s :    -0.014751
      pz      :    -0.005245  p :     0.068682
      px      :     0.036963
      py      :     0.036963
      dz2     :    -0.000937  d :     0.007126
      dxz     :     0.004647
      dyz     :     0.004647
      dx2y2   :    -0.000615
      dxy     :    -0.000615
      f0      :     0.000019  f :     0.000150
      f+1     :     0.000068
      f-1     :     0.000068
      f+2     :    -0.000002
      f-2     :    -0.000002
      f+3     :     0.000000
      f-3     :     0.000000


                      *****************************
                      * MAYER POPULATION ANALYSIS *
                      *****************************

  NA   - Mulliken gross atomic population
  ZA   - Total nuclear charge
  QA   - Mulliken gross atomic charge
  VA   - Mayer's total valence
  BVA  - Mayer's bonded valence
  FA   - Mayer's free valence

  ATOM       NA         ZA         QA         VA         BVA        FA
  0 Co    26.3200    27.0000     0.6800     2.8112     0.7458     2.0654
  1 F      9.6800     9.0000    -0.6800     0.7499     0.7458     0.0041

  Mayer bond orders larger than 0.100000
B(  0-Co,  1-F ) :   0.7458 

-------
TIMINGS
-------

Total SCF time: 0 days 0 hours 0 min 10 sec 

Total time                  ....      10.070 sec
Sum of individual times     ....       9.666 sec  ( 96.0%)

Fock matrix formation       ....       9.208 sec  ( 91.4%)
  XC integration            ....       0.567 sec  (  6.2% of F)
    Basis function eval.    ....       0.063 sec  ( 11.1% of XC)
    Density eval.           ....       0.067 sec  ( 11.8% of XC)
    XC-Functional eval.     ....       0.046 sec  (  8.2% of XC)
    XC-Potential eval.      ....       0.128 sec  ( 22.7% of XC)
Diagonalization             ....       0.133 sec  (  1.3%)
Density matrix formation    ....       0.020 sec  (  0.2%)
Population analysis         ....       0.005 sec  (  0.1%)
Initial guess               ....       0.084 sec  (  0.8%)
Orbital Transformation      ....       0.000 sec  (  0.0%)
Orbital Orthonormalization  ....       0.000 sec  (  0.0%)
DIIS solution               ....       0.051 sec  (  0.5%)
Grid generation             ....       0.165 sec  (  1.6%)

-------------------------   --------------------
FINAL SINGLE POINT ENERGY     -1482.458795163214
-------------------------   --------------------


                            ***************************************
                            *     ORCA property calculations      *
                            ***************************************

                                    ---------------------
                                    Active property flags
                                    ---------------------
   (+) Dipole Moment


------------------------------------------------------------------------------
                       ORCA ELECTRIC PROPERTIES CALCULATION
------------------------------------------------------------------------------

Dipole Moment Calculation                       ... on
Quadrupole Moment Calculation                   ... off
Polarizability Calculation                      ... off
GBWName                                         ... TMD22_CoF.gbw
Electron density file                           ... TMD22_CoF.scfp
The origin for moment calculation is the CENTER OF MASS  = ( 0.000000,  0.000000  0.020657)

-------------
DIPOLE MOMENT
-------------
                                X             Y             Z
Electronic contribution:      0.00000       0.00000       2.86212
Nuclear contribution   :      0.00000       0.00000      -0.74365
                        -----------------------------------------
Total Dipole Moment    :      0.00000       0.00000       2.11847
                        -----------------------------------------
Magnitude (a.u.)       :      2.11847
Magnitude (Debye)      :      5.38472



--------------------
Rotational spectrum 
--------------------
 
Rotational constants in cm-1:     0.000000     0.378809     0.378809 
Rotational constants in MHz :     0.000000 11356.420741 11356.420741 

 Dipole components along the rotational axes: 
x,y,z [a.u.] :     2.118470     0.000000     0.000000 
x,y,z [Debye]:     5.384722     0.000000     0.000000 

 

Timings for individual modules:

Sum of individual times         ...       11.086 sec (=   0.185 min)
GTO integral calculation        ...        0.652 sec (=   0.011 min)   5.9 %
SCF iterations                  ...       10.434 sec (=   0.174 min)  94.1 %
                             ****ORCA TERMINATED NORMALLY****
TOTAL RUN TIME: 0 days 0 hours 0 minutes 11 seconds 528 msec
