
                                 *****************
                                 * O   R   C   A *
                                 *****************

           --- An Ab Initio, DFT and Semiempirical electronic structure package ---

                  #######################################################
                  #                        -***-                        #
                  #          Department of theory and spectroscopy      #
                  #               Directorship: Frank Neese             #
                  #        Max Planck Institute fuer Kohlenforschung    #
                  #                Kaiser Wilhelm Platz 1               #
                  #                 D-45470 Muelheim/Ruhr               #
                  #                      Germany                        #
                  #                                                     #
                  #                  All rights reserved                #
                  #                        -***-                        #
                  #######################################################


                         Program Version 4.2.0 -  RELEASE  -


 With contributions from (in alphabetic order):
   Daniel Aravena         : Magnetic Suceptibility
   Michael Atanasov       : Ab Initio Ligand Field Theory (pilot matlab implementation)
   Alexander A. Auer      : GIAO ZORA, VPT2
   Ute Becker             : Parallelization
   Giovanni Bistoni       : ED, misc. LED, open-shell LED, HFLED
   Martin Brehm           : Molecular dynamics
   Dmytro Bykov           : SCF Hessian
   Vijay G. Chilkuri      : MRCI spin determinant printing, contributions to CSF-ICE
   Dipayan Datta          : RHF DLPNO-CCSD density
   Achintya Kumar Dutta   : EOM-CC, STEOM-CC
   Dmitry Ganyushin       : Spin-Orbit,Spin-Spin,Magnetic field MRCI
   Miquel Garcia          : C-PCM Hessian, Gaussian charge scheme
   Yang Guo               : DLPNO-NEVPT2, CIM, IAO-localization
   Andreas Hansen         : Spin unrestricted coupled pair/coupled cluster methods
   Benjamin Helmich-Paris : CASSCF linear response (MC-RPA)
   Lee Huntington         : MR-EOM, pCC
   Robert Izsak           : Overlap fitted RIJCOSX, COSX-SCS-MP3, EOM
   Christian Kollmar      : KDIIS, OOCD, Brueckner-CCSD(T), CCSD density
   Simone Kossmann        : Meta GGA functionals, TD-DFT gradient, OOMP2, MP2 Hessian
   Martin Krupicka        : AUTO-CI
   Lucas Lang             : DCDCAS
   Dagmar Lenk            : GEPOL surface, SMD
   Dimitrios Liakos       : Extrapolation schemes; Compound Job, initial MDCI parallelization
   Dimitrios Manganas     : Further ROCIS development; embedding schemes
   Dimitrios Pantazis     : SARC Basis sets
   Taras Petrenko         : DFT Hessian,TD-DFT gradient, ASA, ECA, R-Raman, ABS, FL, XAS/XES, NRVS
   Peter Pinski           : DLPNO-MP2, DLPNO-MP2 Gradient
   Christoph Reimann      : Effective Core Potentials
   Marius Retegan         : Local ZFS, SOC
   Christoph Riplinger    : Optimizer, TS searches, QM/MM, DLPNO-CCSD(T), (RO)-DLPNO pert. Triples
   Tobias Risthaus        : Range-separated hybrids, TD-DFT gradient, RPA, STAB
   Michael Roemelt        : Original ROCIS implementation
   Masaaki Saitow         : Open-shell DLPNO-CCSD energy and density
   Barbara Sandhoefer     : DKH picture change effects
   Avijit Sen             : IP-ROCIS
   Kantharuban Sivalingam : CASSCF convergence, NEVPT2, FIC-MRCI
   Bernardo de Souza      : ESD, SOC TD-DFT
   Georgi Stoychev        : AutoAux, RI-MP2 NMR
   Willem Van den Heuvel  : Paramagnetic NMR
   Boris Wezisla          : Elementary symmetry handling
   Frank Wennmohs         : Technical directorship


 We gratefully acknowledge several colleagues who have allowed us to
 interface, adapt or use parts of their codes:
   Stefan Grimme, W. Hujo, H. Kruse,             : VdW corrections, initial TS optimization,
                  C. Bannwarth                     DFT functionals, gCP, sTDA/sTD-DF
   Ed Valeev, F. Pavosevic, A. Kumar             : LibInt (2-el integral package), F12 methods
   Garnet Chan, S. Sharma, J. Yang, R. Olivares  : DMRG
   Ulf Ekstrom                                   : XCFun DFT Library
   Mihaly Kallay                                 : mrcc  (arbitrary order and MRCC methods)
   Andreas Klamt, Michael Diedenhofen            : otool_cosmo (COSMO solvation model)
   Jiri Pittner, Ondrej Demel                    : Mk-CCSD
   Frank Weinhold                                : gennbo (NPA and NBO analysis)
   Christopher J. Cramer and Donald G. Truhlar   : smd solvation model
   Lars Goerigk                                  : TD-DFT with DH, B97 family of functionals
   V. Asgeirsson, H. Jonsson                     : NEB implementation
   FAccTs GmbH                                   : IRC, NEB, NEB-TS, Multilevel, MM, QM/MM, CI optimization
   S Lehtola, MJT Oliveira, MAL Marques          : LibXC Library


 Your calculation uses the libint2 library for the computation of 2-el integrals
 For citations please refer to: http://libint.valeyev.net

 Your ORCA version has been built with support for libXC version: 4.2.3
 For citations please refer to: https://tddft.org/programs/libxc/

 This ORCA versions uses:
   CBLAS   interface :  Fast vector & matrix operations
   LAPACKE interface :  Fast linear algebra routines
   SCALAPACK package :  Parallel linear algebra routines


Your calculation utilizes the atom-pairwise dispersion correction
with the Becke-Johnson damping scheme (D3BJ)
Cite in your paper:
S.Grimme, S.Ehrlich, L.Goerigk, J Comput Chem, (2011), 32, 1456–1465 
S.Grimme, J.Antony, S.Ehrlich and H.Krieg, J.Chem.Phys., 132, (2010), 154104 
   

----- Orbital basis set information -----
Your calculation utilizes the basis: def2-TZVPPD
   F. Weigend and R. Ahlrichs, Phys. Chem. Chem. Phys. 7, 3297 (2005).
   D. Rappoport and F. Furche, J. Chem. Phys. 133 134105 (2010).

----- AuxJ basis set information -----
Your calculation utilizes the auxiliary basis: def2/J
   F. Weigend, Phys. Chem. Chem. Phys. 8, 1057 (2006).

================================================================================
                                        WARNINGS
                       Please study these warnings very carefully!
================================================================================


INFO   : the flag for use of LIBINT has been found!

================================================================================
                                       INPUT FILE
================================================================================
NAME = MOR01_accl.in
|  1> #
|  2> # MOR01_accl TPSS-D3BJ/Def2-TZVPPD
|  3> #
|  4> ! tpss d3bj def2-tzvppd def2/j grid4 nofinalgrid
|  5> 
|  6> *xyz 0 1
|  7> C        1.306659   -1.017500   -0.000028 
|  8> C        0.488515    0.240833   -0.000079 
|  9> H        2.367301   -0.760167   -0.001300 
| 10> H        1.052624   -1.613812   -0.881062 
| 11> H        1.054555   -1.612076    0.882774 
| 12> O        0.865971    1.367720    0.000018 
| 13> Cl      -1.304312   -0.135041    0.000005 
| 14> *
| 15> 
| 16> %maxcore 5000
| 17> 
| 18> %pal
| 19> nprocs = 24
| 20> end
| 21> 
| 22> 
| 23>                          ****END OF INPUT****
================================================================================

                       ****************************
                       * Single Point Calculation *
                       ****************************

---------------------------------
CARTESIAN COORDINATES (ANGSTROEM)
---------------------------------
  C      1.306659   -1.017500   -0.000028
  C      0.488515    0.240833   -0.000079
  H      2.367301   -0.760167   -0.001300
  H      1.052624   -1.613812   -0.881062
  H      1.054555   -1.612076    0.882774
  O      0.865971    1.367720    0.000018
  Cl    -1.304312   -0.135041    0.000005

----------------------------
CARTESIAN COORDINATES (A.U.)
----------------------------
  NO LB      ZA    FRAG     MASS         X           Y           Z
   0 C     6.0000    0    12.011    2.469228   -1.922796   -0.000053
   1 C     6.0000    0    12.011    0.923160    0.455108   -0.000149
   2 H     1.0000    0     1.008    4.473551   -1.436507   -0.002457
   3 H     1.0000    0     1.008    1.989171   -3.049663   -1.664966
   4 H     1.0000    0     1.008    1.992820   -3.046382    1.668201
   5 O     8.0000    0    15.999    1.636448    2.584616    0.000034
   6 Cl   17.0000    0    35.453   -2.464792   -0.255191    0.000009

--------------------------------
INTERNAL COORDINATES (ANGSTROEM)
--------------------------------
 C      0   0   0     0.000000000000     0.00000000     0.00000000
 C      1   0   0     1.500920233132     0.00000000     0.00000000
 H      1   2   0     1.091413461085   109.39354470     0.00000000
 H      1   2   3     1.093774515942   109.29563365   238.66057659
 H      1   2   3     1.093808218014   109.27598563   121.31046809
 O      2   1   3     1.188422211217   128.45033757   359.92100454
 Cl     2   1   3     1.831805099584   111.19033989   179.93209452

---------------------------
INTERNAL COORDINATES (A.U.)
---------------------------
 C      0   0   0     0.000000000000     0.00000000     0.00000000
 C      1   0   0     2.836328189481     0.00000000     0.00000000
 H      1   2   0     2.062472540325   109.39354470     0.00000000
 H      1   2   3     2.066934287393   109.29563365   238.66057659
 H      1   2   3     2.066997975080   109.27598563   121.31046809
 O      2   1   3     2.245792510669   128.45033757   359.92100454
 Cl     2   1   3     3.461609968934   111.19033989   179.93209452

---------------------
BASIS SET INFORMATION
---------------------
There are 4 groups of distinct atoms

 Group   1 Type C   : 12s6p3d1f contracted to 6s3p3d1f pattern {621111/411/111/1}
 Group   2 Type H   : 5s3p1d contracted to 3s3p1d pattern {311/111/1}
 Group   3 Type O   : 12s7p3d1f contracted to 6s4p3d1f pattern {621111/4111/111/1}
 Group   4 Type Cl  : 15s10p4d1f contracted to 6s6p4d1f pattern {732111/511111/1111/1}

Atom   0C    basis set group =>   1
Atom   1C    basis set group =>   1
Atom   2H    basis set group =>   2
Atom   3H    basis set group =>   2
Atom   4H    basis set group =>   2
Atom   5O    basis set group =>   3
Atom   6Cl   basis set group =>   4
---------------------------------
AUXILIARY/J BASIS SET INFORMATION
---------------------------------
There are 4 groups of distinct atoms

 Group   1 Type C   : 12s5p4d2f1g contracted to 6s4p3d1f1g pattern {711111/2111/211/2/1}
 Group   2 Type H   : 5s2p1d contracted to 3s1p1d pattern {311/2/1}
 Group   3 Type O   : 12s5p4d2f1g contracted to 6s4p3d1f1g pattern {711111/2111/211/2/1}
 Group   4 Type Cl  : 14s5p5d2f1g contracted to 8s4p3d1f1g pattern {71111111/2111/311/2/1}

Atom   0C    basis set group =>   1
Atom   1C    basis set group =>   1
Atom   2H    basis set group =>   2
Atom   3H    basis set group =>   2
Atom   4H    basis set group =>   2
Atom   5O    basis set group =>   3
Atom   6Cl   basis set group =>   4


           ************************************************************
           *        Program running with 24 parallel MPI-processes    *
           *              working on a common directory               *
           ************************************************************
------------------------------------------------------------------------------
                           ORCA GTO INTEGRAL CALCULATION
                           -- RI-GTO INTEGRALS CHOSEN --
------------------------------------------------------------------------------

                         BASIS SET STATISTICS AND STARTUP INFO

Gaussian basis set:
 # of primitive gaussian shells          ...  124
 # of primitive gaussian functions       ...  288
 # of contracted shells                  ...   78
 # of contracted basis functions         ...  216
 Highest angular momentum                ...    3
 Maximum contraction depth               ...    7
Auxiliary gaussian basis set:
 # of primitive gaussian shells          ...  123
 # of primitive gaussian functions       ...  335
 # of contracted shells                  ...   77
 # of contracted aux-basis functions     ...  231
 Highest angular momentum                ...    4
 Maximum contraction depth               ...    7
Ratio of auxiliary to basis functions    ...  1.07
Integral package used                  ... LIBINT
 One Electron integrals                  ... done
 Ordering auxiliary basis shells         ... done
 Integral threshhold             Thresh  ...  1.000e-10
 Primitive cut-off               TCut    ...  1.000e-11
 Pre-screening matrix                    ... done
 Shell pair data                         ... 
 Ordering of the shell pairs             ... done (   0.000 sec) 2988 of 3081 pairs
 Determination of significant pairs      ... done (   0.000 sec)
 Creation of shell pair data             ... done (   0.000 sec)
 Storage of shell pair data              ... done (   0.019 sec)
 Shell pair data done in (   0.020 sec)
 Computing two index integrals           ... done
 Cholesky decomposition of the V-matrix  ... done


Timings:
 Total evaluation time                   ...   0.262 sec (  0.004 min)
 One electron matrix time                ...   0.041 sec (  0.001 min) = 15.8%
 Schwartz matrix evaluation time         ...   0.112 sec (  0.002 min) = 42.8%
 Two index repulsion integral time       ...   0.001 sec (  0.000 min) =  0.5%
 Cholesky decomposition of V             ...   0.069 sec (  0.001 min) = 26.3%
 Three index repulsion integral time     ...   0.000 sec (  0.000 min) =  0.0%



           ************************************************************
           *        Program running with 24 parallel MPI-processes    *
           *              working on a common directory               *
           ************************************************************
-------------------------------------------------------------------------------
                                 ORCA SCF
-------------------------------------------------------------------------------

------------
SCF SETTINGS
------------
Hamiltonian:
 Density Functional     Method          .... DFT(GTOs)
 Exchange Functional    Exchange        .... TPSS
 Correlation Functional Correlation     .... TPSS
 LDA part of GGA corr.  LDAOpt          .... PW91-LDA
 Gradients option       PostSCFGGA      .... off
   Density functional embedding theory  .... OFF
   NL short-range parameter             ....  5.000000
 RI-approximation to the Coulomb term is turned on
   Number of auxiliary basis functions  .... 231


General Settings:
 Integral files         IntName         .... MOR01_accl
 Hartree-Fock type      HFTyp           .... RHF
 Total Charge           Charge          ....    0
 Multiplicity           Mult            ....    1
 Number of Electrons    NEL             ....   40
 Basis Dimension        Dim             ....  216
 Nuclear Repulsion      ENuc            ....    147.8518070522 Eh

Convergence Acceleration:
 DIIS                   CNVDIIS         .... on
   Start iteration      DIISMaxIt       ....    12
   Startup error        DIISStart       ....  0.200000
   # of expansion vecs  DIISMaxEq       ....     5
   Bias factor          DIISBfac        ....   1.050
   Max. coefficient     DIISMaxC        ....  10.000
 Newton-Raphson         CNVNR           .... off
 SOSCF                  CNVSOSCF        .... on
   Start iteration      SOSCFMaxIt      ....   150
   Startup grad/error   SOSCFStart      ....  0.003300
 Level Shifting         CNVShift        .... on
   Level shift para.    LevelShift      ....    0.2500
   Turn off err/grad.   ShiftErr        ....    0.0010
 Zerner damping         CNVZerner       .... off
 Static damping         CNVDamp         .... on
   Fraction old density DampFac         ....    0.7000
   Max. Damping (<1)    DampMax         ....    0.9800
   Min. Damping (>=0)   DampMin         ....    0.0000
   Turn off err/grad.   DampErr         ....    0.1000
 Fernandez-Rico         CNVRico         .... off

SCF Procedure:
 Maximum # iterations   MaxIter         ....   125
 SCF integral mode      SCFMode         .... Direct
   Integral package                     .... LIBINT
 Reset frequency        DirectResetFreq ....    20
 Integral Threshold     Thresh          ....  1.000e-10 Eh
 Primitive CutOff       TCut            ....  1.000e-11 Eh

Convergence Tolerance:
 Convergence Check Mode ConvCheckMode   .... Total+1el-Energy
 Convergence forced     ConvForced      .... 0
 Energy Change          TolE            ....  1.000e-06 Eh
 1-El. energy change                    ....  1.000e-03 Eh
 Orbital Gradient       TolG            ....  5.000e-05
 Orbital Rotation angle TolX            ....  5.000e-05
 DIIS Error             TolErr          ....  1.000e-06


Diagonalization of the overlap matrix:
Smallest eigenvalue                        ... 1.309e-05
Time for diagonalization                   ...    0.010 sec
Threshold for overlap eigenvalues          ... 1.000e-08
Number of eigenvalues below threshold      ... 0
Time for construction of square roots      ...    0.006 sec
Total time needed                          ...    0.017 sec

-------------------
DFT GRID GENERATION
-------------------

General Integration Accuracy     IntAcc      ...  4.670
Radial Grid Type                 RadialGrid  ... Gauss-Chebyshev
Angular Grid (max. acc.)         AngularGrid ... Lebedev-302
Angular grid pruning method      GridPruning ... 3 (G Style)
Weight generation scheme         WeightScheme... Becke
Basis function cutoff            BFCut       ...    1.0000e-10
Integration weight cutoff        WCut        ...    1.0000e-14
Grids for H and He will be reduced by one unit

# of grid points (after initial pruning)     ...  35556 (   0.0 sec)
# of grid points (after weights+screening)   ...  34186 (   0.0 sec)
nearest neighbour list constructed           ...    0.0 sec
Grid point re-assignment to atoms done       ...    0.0 sec
Grid point division into batches done        ...    0.1 sec
Reduced shell lists constructed in    0.1 sec

Total number of grid points                  ...    34186
Total number of batches                      ...      536
Average number of points per batch           ...       63
Average number of grid points per atom       ...     4884
Average number of shells per batch           ...    64.17 (82.26%)
Average number of basis functions per batch  ...   183.17 (84.80%)
Average number of large shells per batch     ...    59.75 (93.12%)
Average number of large basis fcns per batch ...   168.50 (91.99%)
Maximum spatial batch extension              ...   1.41,  1.40,  1.88 au
Average spatial batch extension              ...   0.05,  0.04,  0.05 au

Time for grid setup =    0.197 sec

------------------------------
INITIAL GUESS: MODEL POTENTIAL
------------------------------
Loading Hartree-Fock densities                     ... done
Calculating cut-offs                               ... done
Setting up the integral package                    ... done
Initializing the effective Hamiltonian             ... done
Starting the Coulomb interaction                   ... done (   0.0 sec)
Reading the grid                                   ... done
Mapping shells                                     ... done
Starting the XC term evaluation                    ... done (   0.0 sec)
  promolecular density results
     # of electrons  =     39.998500665
     EX              =    -46.611347372
     EC              =     -1.417887915
     EX+EC           =    -48.029235287
Transforming the Hamiltonian                       ... done (   0.0 sec)
Diagonalizing the Hamiltonian                      ... done (   0.0 sec)
Back transforming the eigenvectors                 ... done (   0.0 sec)
Now organizing SCF variables                       ... done
                      ------------------
                      INITIAL GUESS DONE (   0.3 sec)
                      ------------------
--------------
SCF ITERATIONS
--------------
ITER       Energy         Delta-E        Max-DP      RMS-DP      [F,P]     Damp
               ***  Starting incremental Fock matrix formation  ***
  0   -613.4484471845   0.000000000000 0.06123673  0.00120707  0.2635657 0.7000
  1   -613.5146202093  -0.066173024776 0.02944904  0.00076592  0.0841842 0.7000
                               ***Turning on DIIS***
  2   -613.5299550570  -0.015334847763 0.07774874  0.00144404  0.0333534 0.0000
  3   -613.5689914008  -0.039036343707 0.01709653  0.00045177  0.0534775 0.0000
  4   -613.5729250523  -0.003933651511 0.00906587  0.00018308  0.0356433 0.0000
  5   -613.5747301366  -0.001805084326 0.00476500  0.00008764  0.0073029 0.0000
                      *** Initiating the SOSCF procedure ***
                           *** Shutting down DIIS ***
                      *** Re-Reading the Fockian *** 
                      *** Removing any level shift *** 
ITER      Energy       Delta-E        Grad      Rot      Max-DP    RMS-DP
  6   -613.57485638  -0.0001262435  0.000521  0.000521  0.002925  0.000044
               *** Restarting incremental Fock matrix formation ***
  7   -613.57486746  -0.0000110825  0.000249  0.001171  0.001043  0.000023
  8   -613.57486509   0.0000023685  0.000472  0.000666  0.000613  0.000010
  9   -613.57486832  -0.0000032271  0.000099  0.000290  0.000237  0.000005
                 **** Energy Check signals convergence ****
              ***Rediagonalizing the Fockian in SOSCF/NRSCF***

               *****************************************************
               *                     SUCCESS                       *
               *           SCF CONVERGED AFTER  10 CYCLES          *
               *****************************************************


----------------
TOTAL SCF ENERGY
----------------

Total Energy       :         -613.57486784 Eh          -16696.22097 eV

Components:
Nuclear Repulsion  :          147.85180705 Eh            4023.25221 eV
Electronic Energy  :         -761.42667489 Eh          -20719.47318 eV
One Electron Energy:        -1136.77409904 Eh          -30933.19585 eV
Two Electron Energy:          375.34742415 Eh           10213.72267 eV

Virial components:
Potential Energy   :        -1225.69846545 Eh          -33352.95088 eV
Kinetic Energy     :          612.12359761 Eh           16656.72990 eV
Virial Ratio       :            2.00237088


DFT components:
N(Alpha)           :       19.999998673728 electrons
N(Beta)            :       19.999998673728 electrons
N(Total)           :       39.999997347457 electrons
E(X)               :      -47.402497470964 Eh       
E(C)               :       -1.428995415372 Eh       
E(XC)              :      -48.831492886336 Eh       
DFET-embed. en.    :        0.000000000000 Eh       

---------------
SCF CONVERGENCE
---------------

  Last Energy change         ...    4.8095e-07  Tolerance :   1.0000e-06
  Last MAX-Density change    ...    1.7952e-04  Tolerance :   1.0000e-05
  Last RMS-Density change    ...    3.4349e-06  Tolerance :   1.0000e-06
  Last Orbital Gradient      ...    2.6506e-04  Tolerance :   5.0000e-05
  Last Orbital Rotation      ...    2.3035e-04  Tolerance :   5.0000e-05

             **** THE GBW FILE WAS UPDATED (MOR01_accl.gbw) ****
             **** DENSITY FILE WAS UPDATED (MOR01_accl.scfp) ****
             **** ENERGY FILE WAS UPDATED (MOR01_accl.en.tmp) ****
             **** THE GBW FILE WAS UPDATED (MOR01_accl.gbw) ****
             **** DENSITY FILE WAS UPDATED (MOR01_accl.scfp) ****
----------------
ORBITAL ENERGIES
----------------

  NO   OCC          E(Eh)            E(eV) 
   0   2.0000    -100.994845     -2748.2094 
   1   2.0000     -18.923634      -514.9383 
   2   2.0000     -10.138206      -275.8746 
   3   2.0000     -10.029373      -272.9131 
   4   2.0000      -9.244794      -251.5636 
   5   2.0000      -7.023049      -191.1069 
   6   2.0000      -7.015202      -190.8933 
   7   2.0000      -7.013659      -190.8514 
   8   2.0000      -1.029867       -28.0241 
   9   2.0000      -0.789718       -21.4893 
  10   2.0000      -0.716016       -19.4838 
  11   2.0000      -0.522408       -14.2154 
  12   2.0000      -0.454214       -12.3598 
  13   2.0000      -0.442155       -12.0317 
  14   2.0000      -0.433900       -11.8070 
  15   2.0000      -0.386927       -10.5288 
  16   2.0000      -0.370528       -10.0826 
  17   2.0000      -0.294281        -8.0078 
  18   2.0000      -0.288550        -7.8518 
  19   2.0000      -0.266688        -7.2569 
  20   0.0000      -0.081531        -2.2186 
  21   0.0000      -0.026753        -0.7280 
  22   0.0000      -0.006810        -0.1853 
  23   0.0000       0.026057         0.7091 
  24   0.0000       0.034564         0.9405 
  25   0.0000       0.037944         1.0325 
  26   0.0000       0.055219         1.5026 
  27   0.0000       0.062858         1.7104 
  28   0.0000       0.072566         1.9746 
  29   0.0000       0.078432         2.1342 
  30   0.0000       0.086005         2.3403 
  31   0.0000       0.107527         2.9260 
  32   0.0000       0.121451         3.3048 
  33   0.0000       0.124815         3.3964 
  34   0.0000       0.146491         3.9862 
  35   0.0000       0.158022         4.3000 
  36   0.0000       0.162685         4.4269 
  37   0.0000       0.181793         4.9468 
  38   0.0000       0.193913         5.2766 
  39   0.0000       0.213811         5.8181 
  40   0.0000       0.215885         5.8745 
  41   0.0000       0.226903         6.1743 
  42   0.0000       0.235563         6.4100 
  43   0.0000       0.247458         6.7337 
  44   0.0000       0.250649         6.8205 
  45   0.0000       0.257421         7.0048 
  46   0.0000       0.260134         7.0786 
  47   0.0000       0.274827         7.4784 
  48   0.0000       0.288779         7.8581 
  49   0.0000       0.298785         8.1303 
  50   0.0000       0.306068         8.3285 
  51   0.0000       0.312896         8.5143 
  52   0.0000       0.324140         8.8203 
  53   0.0000       0.327728         8.9179 
  54   0.0000       0.356308         9.6956 
  55   0.0000       0.359676         9.7873 
  56   0.0000       0.378635        10.3032 
  57   0.0000       0.389610        10.6018 
  58   0.0000       0.397591        10.8190 
  59   0.0000       0.400020        10.8851 
  60   0.0000       0.439920        11.9708 
  61   0.0000       0.440186        11.9781 
  62   0.0000       0.462302        12.5799 
  63   0.0000       0.479992        13.0612 
  64   0.0000       0.488702        13.2983 
  65   0.0000       0.505917        13.7667 
  66   0.0000       0.513218        13.9654 
  67   0.0000       0.532546        14.4913 
  68   0.0000       0.543551        14.7908 
  69   0.0000       0.550814        14.9884 
  70   0.0000       0.561997        15.2927 
  71   0.0000       0.574350        15.6289 
  72   0.0000       0.596964        16.2442 
  73   0.0000       0.620278        16.8786 
  74   0.0000       0.621227        16.9045 
  75   0.0000       0.645390        17.5620 
  76   0.0000       0.651769        17.7355 
  77   0.0000       0.666728        18.1426 
  78   0.0000       0.672473        18.2989 
  79   0.0000       0.689961        18.7748 
  80   0.0000       0.692647        18.8479 
  81   0.0000       0.699181        19.0257 
  82   0.0000       0.735624        20.0173 
  83   0.0000       0.774553        21.0767 
  84   0.0000       0.779600        21.2140 
  85   0.0000       0.805495        21.9186 
  86   0.0000       0.838459        22.8156 
  87   0.0000       0.875950        23.8358 
  88   0.0000       0.876289        23.8450 
  89   0.0000       0.937850        25.5202 
  90   0.0000       0.955328        25.9958 
  91   0.0000       0.969729        26.3877 
  92   0.0000       1.062370        28.9085 
  93   0.0000       1.065180        28.9850 
  94   0.0000       1.097118        29.8541 
  95   0.0000       1.109847        30.2005 
  96   0.0000       1.131988        30.8030 
  97   0.0000       1.160612        31.5819 
  98   0.0000       1.192681        32.4545 
  99   0.0000       1.236471        33.6461 
 100   0.0000       1.246230        33.9116 
 101   0.0000       1.306078        35.5402 
 102   0.0000       1.442436        39.2507 
 103   0.0000       1.446546        39.3625 
 104   0.0000       1.453647        39.5558 
 105   0.0000       1.522172        41.4204 
 106   0.0000       1.534317        41.7509 
 107   0.0000       1.536629        41.8138 
 108   0.0000       1.588197        43.2171 
 109   0.0000       1.615870        43.9701 
 110   0.0000       1.693017        46.0693 
 111   0.0000       1.740148        47.3518 
 112   0.0000       1.761991        47.9462 
 113   0.0000       1.862889        50.6918 
 114   0.0000       1.871649        50.9301 
 115   0.0000       1.878457        51.1154 
 116   0.0000       1.894258        51.5454 
 117   0.0000       1.894695        51.5573 
 118   0.0000       1.907724        51.9118 
 119   0.0000       1.936464        52.6939 
 120   0.0000       1.969542        53.5940 
 121   0.0000       1.992421        54.2165 
 122   0.0000       1.998034        54.3693 
 123   0.0000       2.031047        55.2676 
 124   0.0000       2.081510        56.6408 
 125   0.0000       2.082556        56.6692 
 126   0.0000       2.156534        58.6823 
 127   0.0000       2.189657        59.5836 
 128   0.0000       2.276737        61.9532 
 129   0.0000       2.301678        62.6318 
 130   0.0000       2.396763        65.2192 
 131   0.0000       2.402775        65.3828 
 132   0.0000       2.435116        66.2629 
 133   0.0000       2.466026        67.1040 
 134   0.0000       2.491132        67.7871 
 135   0.0000       2.620254        71.3007 
 136   0.0000       2.687411        73.1282 
 137   0.0000       2.708164        73.6929 
 138   0.0000       2.744632        74.6852 
 139   0.0000       2.769021        75.3489 
 140   0.0000       2.818384        76.6921 
 141   0.0000       2.849098        77.5279 
 142   0.0000       2.863918        77.9312 
 143   0.0000       2.865170        77.9652 
 144   0.0000       2.989570        81.3503 
 145   0.0000       3.001087        81.6637 
 146   0.0000       3.049431        82.9792 
 147   0.0000       3.049799        82.9893 
 148   0.0000       3.065822        83.4253 
 149   0.0000       3.144986        85.5794 
 150   0.0000       3.158101        85.9363 
 151   0.0000       3.190924        86.8295 
 152   0.0000       3.235610        88.0454 
 153   0.0000       3.302264        89.8592 
 154   0.0000       3.338641        90.8490 
 155   0.0000       3.348516        91.1178 
 156   0.0000       3.355569        91.3097 
 157   0.0000       3.440989        93.6341 
 158   0.0000       3.506012        95.4034 
 159   0.0000       3.519121        95.7601 
 160   0.0000       3.519712        95.7762 
 161   0.0000       3.585534        97.5674 
 162   0.0000       3.590886        97.7130 
 163   0.0000       3.704630       100.8081 
 164   0.0000       3.796271       103.3018 
 165   0.0000       3.889161       105.8294 
 166   0.0000       3.905731       106.2803 
 167   0.0000       3.984916       108.4351 
 168   0.0000       4.007488       109.0493 
 169   0.0000       4.028793       109.6290 
 170   0.0000       4.107392       111.7678 
 171   0.0000       4.132333       112.4465 
 172   0.0000       4.193401       114.1083 
 173   0.0000       4.195567       114.1672 
 174   0.0000       4.278853       116.4335 
 175   0.0000       4.373221       119.0014 
 176   0.0000       4.428558       120.5072 
 177   0.0000       4.439297       120.7994 
 178   0.0000       4.542884       123.6182 
 179   0.0000       4.631157       126.0202 
 180   0.0000       4.739169       128.9593 
 181   0.0000       4.849507       131.9618 
 182   0.0000       4.892970       133.1445 
 183   0.0000       5.109346       139.0324 
 184   0.0000       5.145003       140.0026 
 185   0.0000       5.194775       141.3570 
 186   0.0000       5.232262       142.3771 
 187   0.0000       5.288494       143.9072 
 188   0.0000       5.333312       145.1268 
 189   0.0000       5.410215       147.2194 
 190   0.0000       5.453565       148.3990 
 191   0.0000       5.466977       148.7640 
 192   0.0000       5.589636       152.1017 
 193   0.0000       5.651270       153.7789 
 194   0.0000       5.712279       155.4390 
 195   0.0000       5.759192       156.7156 
 196   0.0000       6.206069       168.8757 
 197   0.0000       6.389902       173.8781 
 198   0.0000       6.417644       174.6330 
 199   0.0000       6.477965       176.2744 
 200   0.0000       6.516058       177.3109 
 201   0.0000       6.811400       185.3476 
 202   0.0000       6.973458       189.7574 
 203   0.0000       7.150787       194.5828 
 204   0.0000       8.057883       219.2661 
 205   0.0000       8.067943       219.5399 
 206   0.0000       8.080129       219.8715 
 207   0.0000       8.162860       222.1227 
 208   0.0000       8.202011       223.1881 
 209   0.0000      10.794245       293.7263 
 210   0.0000      10.905956       296.7661 
 211   0.0000      11.249290       306.1087 
 212   0.0000      22.891837       622.9186 
 213   0.0000      23.566372       641.2736 
 214   0.0000      26.179527       712.3811 
 215   0.0000      44.052863      1198.7394 

                    ********************************
                    * MULLIKEN POPULATION ANALYSIS *
                    ********************************

-----------------------
MULLIKEN ATOMIC CHARGES
-----------------------
   0 C :   -0.092517
   1 C :    0.647627
   2 H :    0.018186
   3 H :    0.093918
   4 H :    0.093714
   5 O :   -0.392017
   6 Cl:   -0.368912
Sum of atomic charges:   -0.0000000

--------------------------------
MULLIKEN REDUCED ORBITAL CHARGES
--------------------------------
  0 C s       :     3.044066  s :     3.044066
      pz      :     1.034122  p :     2.957075
      px      :     0.993018
      py      :     0.929935
      dz2     :     0.012484  d :     0.087547
      dxz     :     0.012891
      dyz     :     0.025849
      dx2y2   :     0.030624
      dxy     :     0.005699
      f0      :     0.000232  f :     0.003830
      f+1     :     0.000428
      f-1     :     0.000780
      f+2     :     0.000348
      f-2     :     0.000328
      f+3     :     0.000868
      f-3     :     0.000846
  1 C s       :     3.027752  s :     3.027752
      pz      :     0.723650  p :     2.119424
      px      :     0.668818
      py      :     0.726957
      dz2     :     0.002200  d :     0.187308
      dxz     :     0.013669
      dyz     :     0.049792
      dx2y2   :     0.061487
      dxy     :     0.060160
      f0      :     0.002209  f :     0.017888
      f+1     :     0.000795
      f-1     :     0.001395
      f+2     :     0.002175
      f-2     :     0.001370
      f+3     :     0.004236
      f-3     :     0.005709
  2 H s       :     0.921302  s :     0.921302
      pz      :     0.009028  p :     0.059015
      px      :     0.032222
      py      :     0.017765
      dz2     :     0.000046  d :     0.001497
      dxz     :     0.000562
      dyz     :     0.000062
      dx2y2   :     0.000261
      dxy     :     0.000567
  3 H s       :     0.859882  s :     0.859882
      pz      :     0.023738  p :     0.044732
      px      :     0.008521
      py      :     0.012473
      dz2     :     0.000493  d :     0.001467
      dxz     :     0.000305
      dyz     :     0.000245
      dx2y2   :     0.000225
      dxy     :     0.000199
  4 H s       :     0.860034  s :     0.860034
      pz      :     0.023801  p :     0.044785
      px      :     0.008547
      py      :     0.012437
      dz2     :     0.000492  d :     0.001467
      dxz     :     0.000307
      dyz     :     0.000246
      dx2y2   :     0.000223
      dxy     :     0.000199
  5 O s       :     4.027279  s :     4.027279
      pz      :     1.343195  p :     4.323524
      px      :     1.659333
      py      :     1.320996
      dz2     :     0.002675  d :     0.039250
      dxz     :     0.001886
      dyz     :     0.014511
      dx2y2   :     0.009554
      dxy     :     0.010623
      f0      :     0.000208  f :     0.001965
      f+1     :     0.000036
      f-1     :     0.000116
      f+2     :     0.000333
      f-2     :     0.000200
      f+3     :     0.000493
      f-3     :     0.000578
  6 Cls       :     6.088752  s :     6.088752
      pz      :     3.894697  p :    11.224300
      px      :     3.364139
      py      :     3.965464
      dz2     :     0.008419  d :     0.051942
      dxz     :     0.010807
      dyz     :     0.001244
      dx2y2   :     0.018860
      dxy     :     0.012612
      f0      :     0.000297  f :     0.003919
      f+1     :     0.000782
      f-1     :     0.000082
      f+2     :     0.000416
      f-2     :     0.000120
      f+3     :     0.001263
      f-3     :     0.000960


                     *******************************
                     * LOEWDIN POPULATION ANALYSIS *
                     *******************************

----------------------
LOEWDIN ATOMIC CHARGES
----------------------
   0 C :    0.135339
   1 C :   -0.757045
   2 H :   -0.003484
   3 H :   -0.006331
   4 H :   -0.006240
   5 O :    0.079985
   6 Cl:    0.557775

-------------------------------
LOEWDIN REDUCED ORBITAL CHARGES
-------------------------------
  0 C s       :     2.646029  s :     2.646029
      pz      :     0.922271  p :     2.713206
      px      :     0.912262
      py      :     0.878673
      dz2     :     0.080968  d :     0.473863
      dxz     :     0.037587
      dyz     :     0.104477
      dx2y2   :     0.146328
      dxy     :     0.104504
      f0      :     0.001393  f :     0.031563
      f+1     :     0.005157
      f-1     :     0.006281
      f+2     :     0.002930
      f-2     :     0.003219
      f+3     :     0.007119
      f-3     :     0.005463
  1 C s       :     2.745142  s :     2.745142
      pz      :     0.669038  p :     2.513641
      px      :     0.861858
      py      :     0.982746
      dz2     :     0.114669  d :     1.387628
      dxz     :     0.170924
      dyz     :     0.203235
      dx2y2   :     0.468620
      dxy     :     0.430179
      f0      :     0.008207  f :     0.110634
      f+1     :     0.005122
      f-1     :     0.009970
      f+2     :     0.012963
      f-2     :     0.009630
      f+3     :     0.028499
      f-3     :     0.036242
  2 H s       :     0.699479  s :     0.699479
      pz      :     0.073841  p :     0.274838
      px      :     0.127994
      py      :     0.073002
      dz2     :     0.002679  d :     0.029167
      dxz     :     0.008648
      dyz     :     0.000691
      dx2y2   :     0.008572
      dxy     :     0.008577
  3 H s       :     0.692725  s :     0.692725
      pz      :     0.113154  p :     0.284421
      px      :     0.082055
      py      :     0.089212
      dz2     :     0.009076  d :     0.029185
      dxz     :     0.005766
      dyz     :     0.007865
      dx2y2   :     0.003267
      dxy     :     0.003211
  4 H s       :     0.692682  s :     0.692682
      pz      :     0.113291  p :     0.284375
      px      :     0.081976
      py      :     0.089109
      dz2     :     0.009089  d :     0.029183
      dxz     :     0.005786
      dyz     :     0.007875
      dx2y2   :     0.003244
      dxy     :     0.003189
  5 O s       :     3.366513  s :     3.366513
      pz      :     1.229822  p :     4.293370
      px      :     1.534978
      py      :     1.528570
      dz2     :     0.030013  d :     0.253532
      dxz     :     0.007632
      dyz     :     0.038151
      dx2y2   :     0.088520
      dxy     :     0.089216
      f0      :     0.000510  f :     0.006600
      f+1     :     0.000230
      f-1     :     0.000930
      f+2     :     0.000589
      f-2     :     0.000384
      f+3     :     0.002069
      f-3     :     0.001889
  6 Cls       :     5.503202  s :     5.503202
      pz      :     3.705641  p :    10.747398
      px      :     3.296473
      py      :     3.745284
      dz2     :     0.029320  d :     0.183594
      dxz     :     0.033752
      dyz     :     0.004228
      dx2y2   :     0.061021
      dxy     :     0.055273
      f0      :     0.000484  f :     0.008031
      f+1     :     0.001807
      f-1     :     0.000198
      f+2     :     0.000651
      f-2     :     0.000153
      f+3     :     0.002700
      f-3     :     0.002039


                      *****************************
                      * MAYER POPULATION ANALYSIS *
                      *****************************

  NA   - Mulliken gross atomic population
  ZA   - Total nuclear charge
  QA   - Mulliken gross atomic charge
  VA   - Mayer's total valence
  BVA  - Mayer's bonded valence
  FA   - Mayer's free valence

  ATOM       NA         ZA         QA         VA         BVA        FA
  0 C      6.0925     6.0000    -0.0925     4.0032     4.0032    -0.0000
  1 C      5.3524     6.0000     0.6476     3.5582     3.5582    -0.0000
  2 H      0.9818     1.0000     0.0182     1.1252     1.1252    -0.0000
  3 H      0.9061     1.0000     0.0939     1.0458     1.0458     0.0000
  4 H      0.9063     1.0000     0.0937     1.0459     1.0459    -0.0000
  5 O      8.3920     8.0000    -0.3920     2.0849     2.0849     0.0000
  6 Cl    17.3689    17.0000    -0.3689     0.9400     0.9400    -0.0000

  Mayer bond orders larger than 0.100000
B(  0-C ,  1-C ) :   1.0031 B(  0-C ,  2-H ) :   1.0167 B(  0-C ,  3-H ) :   0.9433 
B(  0-C ,  4-H ) :   0.9431 B(  1-C ,  5-O ) :   1.8294 B(  1-C ,  6-Cl) :   0.6273 
B(  5-O ,  6-Cl) :   0.1861 

-------
TIMINGS
-------

Total SCF time: 0 days 0 hours 0 min 2 sec 

Total time                  ....       2.207 sec
Sum of individual times     ....       2.072 sec  ( 93.9%)

Fock matrix formation       ....       1.669 sec  ( 75.7%)
  Split-RI-J                ....       0.913 sec  ( 54.7% of F)
  XC integration            ....       0.706 sec  ( 42.3% of F)
    Basis function eval.    ....       0.067 sec  (  9.5% of XC)
    Density eval.           ....       0.119 sec  ( 16.9% of XC)
    XC-Functional eval.     ....       0.032 sec  (  4.6% of XC)
    XC-Potential eval.      ....       0.284 sec  ( 40.3% of XC)
Diagonalization             ....       0.043 sec  (  1.9%)
Density matrix formation    ....       0.010 sec  (  0.5%)
Population analysis         ....       0.007 sec  (  0.3%)
Initial guess               ....       0.110 sec  (  5.0%)
Orbital Transformation      ....       0.000 sec  (  0.0%)
Orbital Orthonormalization  ....       0.000 sec  (  0.0%)
DIIS solution               ....       0.019 sec  (  0.9%)
SOSCF solution              ....       0.016 sec  (  0.7%)
Grid generation             ....       0.197 sec  (  8.9%)


-------------------------------------------------------------------------------
                          DFT DISPERSION CORRECTION                            
                                                                               
                              DFTD3 V3.1  Rev 1                                
                          USING Becke-Johnson damping                          
-------------------------------------------------------------------------------
The TPSS functional is recognized
Active option DFTDOPT                   ...         4   

molecular C6(AA) [au] = 762.529206 


            DFT-D V3
 parameters
 s6 scaling factor         :     1.0000 
 a1 scaling factor         :     0.4535 
 s8 scaling factor         :     1.9435 
 a2 scaling factor         :     4.4752 
 ad hoc parameters k1-k3   :    16.0000     1.3333    -4.0000 

 Edisp/kcal,au: -3.713957764046  -0.005918567801 
 E6   /kcal   :  -1.794247071 
 E8   /kcal   :  -1.919710693 
 % E8         :  51.689082501 

-------------------------   ----------------
Dispersion correction           -0.005918568
-------------------------   ----------------


-------------------------   --------------------
FINAL SINGLE POINT ENERGY      -613.580786408059
-------------------------   --------------------


                            ***************************************
                            *     ORCA property calculations      *
                            ***************************************

                                    ---------------------
                                    Active property flags
                                    ---------------------
   (+) Dipole Moment


------------------------------------------------------------------------------
                       ORCA ELECTRIC PROPERTIES CALCULATION
------------------------------------------------------------------------------

Dipole Moment Calculation                       ... on
Quadrupole Moment Calculation                   ... off
Polarizability Calculation                      ... off
GBWName                                         ... MOR01_accl.gbw
Electron density file                           ... MOR01_accl.scfp
The origin for moment calculation is the CENTER OF MASS  = (-0.152024,  0.090229 -0.000010)

-------------
DIPOLE MOMENT
-------------
                                X             Y             Z
Electronic contribution:     -5.48003       2.68190      -0.00032
Nuclear contribution   :      6.08095      -3.60915       0.00039
                        -----------------------------------------
Total Dipole Moment    :      0.60092      -0.92725       0.00006
                        -----------------------------------------
Magnitude (a.u.)       :      1.10494
Magnitude (Debye)      :      2.80854



--------------------
Rotational spectrum 
--------------------
 
Rotational constants in cm-1:     0.334975     0.160198     0.110601 
Rotational constants in MHz : 10042.310181  4802.622935  3315.727154 

 Dipole components along the rotational axes: 
x,y,z [a.u.] :    -0.500856    -0.984906     0.000072 
x,y,z [Debye]:    -1.273074    -2.503432     0.000183 

 

Timings for individual modules:

Sum of individual times         ...        3.178 sec (=   0.053 min)
GTO integral calculation        ...        0.637 sec (=   0.011 min)  20.1 %
SCF iterations                  ...        2.541 sec (=   0.042 min)  79.9 %
                             ****ORCA TERMINATED NORMALLY****
TOTAL RUN TIME: 0 days 0 hours 0 minutes 3 seconds 680 msec
