
                                 *****************
                                 * O   R   C   A *
                                 *****************

           --- An Ab Initio, DFT and Semiempirical electronic structure package ---

                  #######################################################
                  #                        -***-                        #
                  #          Department of theory and spectroscopy      #
                  #               Directorship: Frank Neese             #
                  #        Max Planck Institute fuer Kohlenforschung    #
                  #                Kaiser Wilhelm Platz 1               #
                  #                 D-45470 Muelheim/Ruhr               #
                  #                      Germany                        #
                  #                                                     #
                  #                  All rights reserved                #
                  #                        -***-                        #
                  #######################################################


                         Program Version 4.2.0 -  RELEASE  -


 With contributions from (in alphabetic order):
   Daniel Aravena         : Magnetic Suceptibility
   Michael Atanasov       : Ab Initio Ligand Field Theory (pilot matlab implementation)
   Alexander A. Auer      : GIAO ZORA, VPT2
   Ute Becker             : Parallelization
   Giovanni Bistoni       : ED, misc. LED, open-shell LED, HFLED
   Martin Brehm           : Molecular dynamics
   Dmytro Bykov           : SCF Hessian
   Vijay G. Chilkuri      : MRCI spin determinant printing, contributions to CSF-ICE
   Dipayan Datta          : RHF DLPNO-CCSD density
   Achintya Kumar Dutta   : EOM-CC, STEOM-CC
   Dmitry Ganyushin       : Spin-Orbit,Spin-Spin,Magnetic field MRCI
   Miquel Garcia          : C-PCM Hessian, Gaussian charge scheme
   Yang Guo               : DLPNO-NEVPT2, CIM, IAO-localization
   Andreas Hansen         : Spin unrestricted coupled pair/coupled cluster methods
   Benjamin Helmich-Paris : CASSCF linear response (MC-RPA)
   Lee Huntington         : MR-EOM, pCC
   Robert Izsak           : Overlap fitted RIJCOSX, COSX-SCS-MP3, EOM
   Christian Kollmar      : KDIIS, OOCD, Brueckner-CCSD(T), CCSD density
   Simone Kossmann        : Meta GGA functionals, TD-DFT gradient, OOMP2, MP2 Hessian
   Martin Krupicka        : AUTO-CI
   Lucas Lang             : DCDCAS
   Dagmar Lenk            : GEPOL surface, SMD
   Dimitrios Liakos       : Extrapolation schemes; Compound Job, initial MDCI parallelization
   Dimitrios Manganas     : Further ROCIS development; embedding schemes
   Dimitrios Pantazis     : SARC Basis sets
   Taras Petrenko         : DFT Hessian,TD-DFT gradient, ASA, ECA, R-Raman, ABS, FL, XAS/XES, NRVS
   Peter Pinski           : DLPNO-MP2, DLPNO-MP2 Gradient
   Christoph Reimann      : Effective Core Potentials
   Marius Retegan         : Local ZFS, SOC
   Christoph Riplinger    : Optimizer, TS searches, QM/MM, DLPNO-CCSD(T), (RO)-DLPNO pert. Triples
   Tobias Risthaus        : Range-separated hybrids, TD-DFT gradient, RPA, STAB
   Michael Roemelt        : Original ROCIS implementation
   Masaaki Saitow         : Open-shell DLPNO-CCSD energy and density
   Barbara Sandhoefer     : DKH picture change effects
   Avijit Sen             : IP-ROCIS
   Kantharuban Sivalingam : CASSCF convergence, NEVPT2, FIC-MRCI
   Bernardo de Souza      : ESD, SOC TD-DFT
   Georgi Stoychev        : AutoAux, RI-MP2 NMR
   Willem Van den Heuvel  : Paramagnetic NMR
   Boris Wezisla          : Elementary symmetry handling
   Frank Wennmohs         : Technical directorship


 We gratefully acknowledge several colleagues who have allowed us to
 interface, adapt or use parts of their codes:
   Stefan Grimme, W. Hujo, H. Kruse,             : VdW corrections, initial TS optimization,
                  C. Bannwarth                     DFT functionals, gCP, sTDA/sTD-DF
   Ed Valeev, F. Pavosevic, A. Kumar             : LibInt (2-el integral package), F12 methods
   Garnet Chan, S. Sharma, J. Yang, R. Olivares  : DMRG
   Ulf Ekstrom                                   : XCFun DFT Library
   Mihaly Kallay                                 : mrcc  (arbitrary order and MRCC methods)
   Andreas Klamt, Michael Diedenhofen            : otool_cosmo (COSMO solvation model)
   Jiri Pittner, Ondrej Demel                    : Mk-CCSD
   Frank Weinhold                                : gennbo (NPA and NBO analysis)
   Christopher J. Cramer and Donald G. Truhlar   : smd solvation model
   Lars Goerigk                                  : TD-DFT with DH, B97 family of functionals
   V. Asgeirsson, H. Jonsson                     : NEB implementation
   FAccTs GmbH                                   : IRC, NEB, NEB-TS, Multilevel, MM, QM/MM, CI optimization
   S Lehtola, MJT Oliveira, MAL Marques          : LibXC Library


 Your calculation uses the libint2 library for the computation of 2-el integrals
 For citations please refer to: http://libint.valeyev.net

 Your ORCA version has been built with support for libXC version: 4.2.3
 For citations please refer to: https://tddft.org/programs/libxc/

 This ORCA versions uses:
   CBLAS   interface :  Fast vector & matrix operations
   LAPACKE interface :  Fast linear algebra routines
   SCALAPACK package :  Parallel linear algebra routines


Your calculation utilizes the atom-pairwise dispersion correction
with the Becke-Johnson damping scheme (D3BJ)
Cite in your paper:
S.Grimme, S.Ehrlich, L.Goerigk, J Comput Chem, (2011), 32, 1456–1465 
S.Grimme, J.Antony, S.Ehrlich and H.Krieg, J.Chem.Phys., 132, (2010), 154104 
   

----- Orbital basis set information -----
Your calculation utilizes the basis: def2-TZVPPD
   F. Weigend and R. Ahlrichs, Phys. Chem. Chem. Phys. 7, 3297 (2005).
   D. Rappoport and F. Furche, J. Chem. Phys. 133 134105 (2010).

----- AuxJ basis set information -----
Your calculation utilizes the auxiliary basis: def2/J
   F. Weigend, Phys. Chem. Chem. Phys. 8, 1057 (2006).

cite the ECPs for W  [Def2-ECP] as follows:
Ce-Yb(ecp-28): M. Dolg, H. Stoll, H.Preuss, J. Chem. Phys., 1989, 90, 1730-1734.
Y-Cd(ecp-28), Hf-Hg(ecp-46): D. Andrae,U. Haeussermann, M. Dolg, H. Stoll, H. Preuss, Theor. Chim. Acta, 1990, 77, 123-141.
In-Sb(ecp-28), Tl-Bi(ecp-46): B. Metz, H. Stoll, M. Dolg, J. Chem. Phys., 2000, 113, 2563-2569.
Te-Xe(ecp-28), Po-Rn(ecp-46): K. A. Peterson, D. Figgen, E. Goll, H. Stoll, M. Dolg, J. Chem. Phys., 2003, 119, 11113-11123.
Rb(ecp-28), Cs(ecp-46): T. Leininger, A. Nicklass, W. Kuechle, H. Stoll, M. Dolg, A. Bergner, Chem. Phys. Lett., 1996, 255, 274-280.
Sr(ecp-28), Ba(ecp-46): M. Kaupp, P. V. Schleyer, H. Stoll and H. Preuss, J. Chem. Phys., 1991, 94, 1360-1366.
La(ecp-46): M. Dolg, H. Stoll, A. Savin, H. Preuss, Theor. Chim. Acta, 1989, 75, 173-194.
Lu(ecp-28): X. Cao, M. Dolg, J. Chem. Phys., 2001, 115, 7348-7355.

ECP parameters for W  [Def2-ECP] have been obtained from:
TURBOMOLE (7.0.2)

================================================================================
                                        WARNINGS
                       Please study these warnings very carefully!
================================================================================


INFO   : the flag for use of LIBINT has been found!

================================================================================
                                       INPUT FILE
================================================================================
NAME = MOR09_ed07.in
|  1> #
|  2> # MOR09_ed07 TPSS-D3BJ/Def2-TZVPPD
|  3> #
|  4> ! tpss d3bj def2-tzvppd def2/j grid4 nofinalgrid
|  5> 
|  6> *xyz 0 1
|  7> W        0.102077    0.091078   -0.092267 
|  8> C        0.117393   -1.847063   -0.698289 
|  9> O        0.106421   -2.944423   -1.101491 
| 10> C        0.053830    0.623127   -1.953542 
| 11> O        0.062184    0.954188   -3.084324 
| 12> C       -0.079789    2.065684    0.368043 
| 13> O       -0.241835    3.206144    0.563164 
| 14> P       -2.374272   -0.093775    0.152024 
| 15> C       -2.924700   -0.636961    1.860300 
| 16> H       -4.020662   -0.654132    1.869520 
| 17> C       -3.301587    1.526034   -0.042070 
| 18> H       -2.720709    2.174283    0.626552 
| 19> C       -3.158465   -1.412689   -0.926528 
| 20> H       -2.602719   -2.298136   -0.589541 
| 21> C        3.533012   -1.160075   -0.926747 
| 22> P        2.541683   -0.047968    0.198665 
| 23> H        3.436930   -0.493420    2.480788 
| 24> H        3.117150   -2.146572   -0.686664 
| 25> C        3.597094    1.476716    0.423185 
| 26> H        4.630625    1.133957    0.560412 
| 27> C       -3.162167    2.103519   -1.458162 
| 28> H       -3.455722    3.159421   -1.453162 
| 29> H       -3.815975    1.580772   -2.162650 
| 30> H       -2.136423    2.033109   -1.825887 
| 31> C       -4.764402    1.570333    0.422322 
| 32> H       -5.415801    0.983387   -0.229568 
| 33> H       -5.116762    2.608723    0.390691 
| 34> H       -4.893747    1.210688    1.447022 
| 35> C       -4.655036   -1.682881   -0.716884 
| 36> H       -4.925909   -1.790522    0.337405 
| 37> H       -4.929224   -2.613829   -1.227923 
| 38> H       -5.265149   -0.883893   -1.147063 
| 39> C       -2.846467   -1.236186   -2.419424 
| 40> H       -3.119249   -2.151958   -2.956758 
| 41> H       -1.787229   -1.039228   -2.589757 
| 42> H       -3.419310   -0.412085   -2.852792 
| 43> C       -2.418211   -2.050160    2.179041 
| 44> H       -2.879973   -2.804800    1.536232 
| 45> H       -2.649558   -2.306479    3.219697 
| 46> H       -1.332968   -2.120913    2.045449 
| 47> C       -2.447309    0.375917    2.910548 
| 48> H       -1.357998    0.484909    2.881372 
| 49> H       -2.729985    0.039964    3.915237 
| 50> H       -2.881675    1.366975    2.750689 
| 51> C        5.039293   -1.175311   -0.637409 
| 52> H        5.257150   -1.324613    0.425881 
| 53> H        5.510398   -0.237807   -0.951034 
| 54> H        5.518847   -1.987312   -1.196567 
| 55> C        3.236493   -0.904929   -2.411567 
| 56> H        3.640990    0.053418   -2.749243 
| 57> C        1.267139   -0.464900    2.531536 
| 58> H        2.161630   -0.902783   -2.603826 
| 59> H        3.697388   -1.694627   -3.016368 
| 60> C        2.697601   -2.411104    1.824913 
| 61> H        0.411078   -0.840608    1.910182 
| 62> H        1.101298   -0.955345    3.499474 
| 63> H        1.182937    0.613220    2.672323 
| 64> C        2.601288   -0.882352    1.885247 
| 65> H        2.586441   -2.826896    2.833616 
| 66> H        3.659680   -2.747270    1.429848 
| 67> H        1.903309   -2.831808    1.199333 
| 68> C        3.181998    2.276906    1.664687 
| 69> H        2.135318    2.587016    1.600131 
| 70> H        3.793597    3.184158    1.733044 
| 71> H        3.324478    1.710719    2.590306 
| 72> C        3.508784    2.354763   -0.833649 
| 73> H        2.465553    2.610163   -1.046808 
| 74> H        3.919372    1.854332   -1.714343 
| 75> H        4.068793    3.284623   -0.679973 
| 76> *
| 77> 
| 78> %maxcore 5000
| 79> 
| 80> %pal
| 81> nprocs = 24
| 82> end
| 83> 
| 84> 
| 85>                          ****END OF INPUT****
================================================================================

                       ****************************
                       * Single Point Calculation *
                       ****************************

---------------------------------
CARTESIAN COORDINATES (ANGSTROEM)
---------------------------------
  W      0.102077    0.091078   -0.092267
  C      0.117393   -1.847063   -0.698289
  O      0.106421   -2.944423   -1.101491
  C      0.053830    0.623127   -1.953542
  O      0.062184    0.954188   -3.084324
  C     -0.079789    2.065684    0.368043
  O     -0.241835    3.206144    0.563164
  P     -2.374272   -0.093775    0.152024
  C     -2.924700   -0.636961    1.860300
  H     -4.020662   -0.654132    1.869520
  C     -3.301587    1.526034   -0.042070
  H     -2.720709    2.174283    0.626552
  C     -3.158465   -1.412689   -0.926528
  H     -2.602719   -2.298136   -0.589541
  C      3.533012   -1.160075   -0.926747
  P      2.541683   -0.047968    0.198665
  H      3.436930   -0.493420    2.480788
  H      3.117150   -2.146572   -0.686664
  C      3.597094    1.476716    0.423185
  H      4.630625    1.133957    0.560412
  C     -3.162167    2.103519   -1.458162
  H     -3.455722    3.159421   -1.453162
  H     -3.815975    1.580772   -2.162650
  H     -2.136423    2.033109   -1.825887
  C     -4.764402    1.570333    0.422322
  H     -5.415801    0.983387   -0.229568
  H     -5.116762    2.608723    0.390691
  H     -4.893747    1.210688    1.447022
  C     -4.655036   -1.682881   -0.716884
  H     -4.925909   -1.790522    0.337405
  H     -4.929224   -2.613829   -1.227923
  H     -5.265149   -0.883893   -1.147063
  C     -2.846467   -1.236186   -2.419424
  H     -3.119249   -2.151958   -2.956758
  H     -1.787229   -1.039228   -2.589757
  H     -3.419310   -0.412085   -2.852792
  C     -2.418211   -2.050160    2.179041
  H     -2.879973   -2.804800    1.536232
  H     -2.649558   -2.306479    3.219697
  H     -1.332968   -2.120913    2.045449
  C     -2.447309    0.375917    2.910548
  H     -1.357998    0.484909    2.881372
  H     -2.729985    0.039964    3.915237
  H     -2.881675    1.366975    2.750689
  C      5.039293   -1.175311   -0.637409
  H      5.257150   -1.324613    0.425881
  H      5.510398   -0.237807   -0.951034
  H      5.518847   -1.987312   -1.196567
  C      3.236493   -0.904929   -2.411567
  H      3.640990    0.053418   -2.749243
  C      1.267139   -0.464900    2.531536
  H      2.161630   -0.902783   -2.603826
  H      3.697388   -1.694627   -3.016368
  C      2.697601   -2.411104    1.824913
  H      0.411078   -0.840608    1.910182
  H      1.101298   -0.955345    3.499474
  H      1.182937    0.613220    2.672323
  C      2.601288   -0.882352    1.885247
  H      2.586441   -2.826896    2.833616
  H      3.659680   -2.747270    1.429848
  H      1.903309   -2.831808    1.199333
  C      3.181998    2.276906    1.664687
  H      2.135318    2.587016    1.600131
  H      3.793597    3.184158    1.733044
  H      3.324478    1.710719    2.590306
  C      3.508784    2.354763   -0.833649
  H      2.465553    2.610163   -1.046808
  H      3.919372    1.854332   -1.714343
  H      4.068793    3.284623   -0.679973

----------------------------
CARTESIAN COORDINATES (A.U.)
----------------------------
  NO LB      ZA    FRAG     MASS         X           Y           Z
   0 W    14.0000*   0   183.850    0.192898    0.172112   -0.174359
   1 C     6.0000    0    12.011    0.221841   -3.490443   -1.319575
   2 O     8.0000    0    15.999    0.201107   -5.564153   -2.081516
   3 C     6.0000    0    12.011    0.101724    1.177539   -3.691659
   4 O     8.0000    0    15.999    0.117511    1.803154   -5.828528
   5 C     6.0000    0    12.011   -0.150779    3.903577    0.695500
   6 O     8.0000    0    15.999   -0.457002    6.058734    1.064226
   7 P    15.0000    0    30.974   -4.486724   -0.177209    0.287284
   8 C     6.0000    0    12.011   -5.526882   -1.203682    3.515458
   9 H     1.0000    0     1.008   -7.597950   -1.236130    3.532881
  10 C     6.0000    0    12.011   -6.239095    2.883786   -0.079501
  11 H     1.0000    0     1.008   -5.141395    4.108799    1.184012
  12 C     6.0000    0    12.011   -5.968634   -2.669595   -1.750884
  13 H     1.0000    0     1.008   -4.918426   -4.342848   -1.114071
  14 C     6.0000    0    12.011    6.676425   -2.192224   -1.751298
  15 P    15.0000    0    30.974    4.803085   -0.090646    0.375422
  16 H     1.0000    0     1.008    6.494856   -0.932429    4.688010
  17 H     1.0000    0     1.008    5.890560   -4.056433   -1.297607
  18 C     6.0000    0    12.011    6.797523    2.790589    0.799704
  19 H     1.0000    0     1.008    8.750613    2.142868    1.059025
  20 C     6.0000    0    12.011   -5.975630    3.975075   -2.755527
  21 H     1.0000    0     1.008   -6.530368    5.970440   -2.746078
  22 H     1.0000    0     1.008   -7.211148    2.987226   -4.086816
  23 H     1.0000    0     1.008   -4.037254    3.842019   -3.450426
  24 C     6.0000    0    12.011   -9.003415    2.967499    0.798073
  25 H     1.0000    0     1.008  -10.234381    1.858332   -0.433821
  26 H     1.0000    0     1.008   -9.669279    4.929772    0.738299
  27 H     1.0000    0     1.008   -9.247842    2.287869    2.734475
  28 C     6.0000    0    12.011   -8.796743   -3.180184   -1.354714
  29 H     1.0000    0     1.008   -9.308619   -3.383596    0.637603
  30 H     1.0000    0     1.008   -9.314883   -4.939421   -2.320438
  31 H     1.0000    0     1.008   -9.949690   -1.670316   -2.167635
  32 C     6.0000    0    12.011   -5.379043   -2.336053   -4.572049
  33 H     1.0000    0     1.008   -5.894526   -4.066611   -5.587463
  34 H     1.0000    0     1.008   -3.377373   -1.963856   -4.893931
  35 H     1.0000    0     1.008   -6.461559   -0.778728   -5.390996
  36 C     6.0000    0    12.011   -4.569757   -3.874241    4.117791
  37 H     1.0000    0     1.008   -5.442360   -5.300304    2.903058
  38 H     1.0000    0     1.008   -5.006939   -4.358614    6.084346
  39 H     1.0000    0     1.008   -2.518944   -4.007945    3.865338
  40 C     6.0000    0    12.011   -4.624744    0.710380    5.500139
  41 H     1.0000    0     1.008   -2.566244    0.916345    5.445004
  42 H     1.0000    0     1.008   -5.158924    0.075521    7.398726
  43 H     1.0000    0     1.008   -5.445577    2.583208    5.198049
  44 C     6.0000    0    12.011    9.522884   -2.221016   -1.204528
  45 H     1.0000    0     1.008    9.934574   -2.503156    0.804798
  46 H     1.0000    0     1.008   10.413143   -0.449390   -1.797194
  47 H     1.0000    0     1.008   10.429109   -3.755475   -2.261184
  48 C     6.0000    0    12.011    6.116085   -1.710068   -4.557201
  49 H     1.0000    0     1.008    6.880474    0.100945   -5.195316
  50 C     6.0000    0    12.011    2.394546   -0.878534    4.783910
  51 H     1.0000    0     1.008    4.084889   -1.706013   -4.920518
  52 H     1.0000    0     1.008    6.987051   -3.202381   -5.700109
  53 C     6.0000    0    12.011    5.097727   -4.556326    3.448586
  54 H     1.0000    0     1.008    0.776825   -1.588519    3.609721
  55 H     1.0000    0     1.008    2.081152   -1.805340    6.613047
  56 H     1.0000    0     1.008    2.235427    1.158818    5.049959
  57 C     6.0000    0    12.011    4.915722   -1.667404    3.562601
  58 H     1.0000    0     1.008    4.887665   -5.342059    5.354758
  59 H     1.0000    0     1.008    6.915793   -5.191588    2.702021
  60 H     1.0000    0     1.008    3.596733   -5.351342    2.266411
  61 C     6.0000    0    12.011    6.013105    4.302729    3.145803
  62 H     1.0000    0     1.008    4.035166    4.888752    3.023809
  63 H     1.0000    0     1.008    7.168859    6.017187    3.274979
  64 H     1.0000    0     1.008    6.282353    3.232790    4.894969
  65 C     6.0000    0    12.011    6.630641    4.449857   -1.575368
  66 H     1.0000    0     1.008    4.659220    4.932493   -1.978180
  67 H     1.0000    0     1.008    7.406540    3.504180   -3.239639
  68 H     1.0000    0     1.008    7.688904    6.207038   -1.284963
* core charge reduced due to ECP

--------------------------------
INTERNAL COORDINATES (ANGSTROEM)
--------------------------------
 W      0   0   0     0.000000000000     0.00000000     0.00000000
 C      1   0   0     2.030735773118     0.00000000     0.00000000
 O      2   1   0     1.169141226366   177.02617244     0.00000000
 C      1   2   3     1.936426744557    88.60040407   342.40756214
 O      4   1   2     1.178278026003   178.12993917   259.18367697
 C      1   2   3     2.035688923508   173.67819466    28.98073318
 O      6   1   4     1.168323637678   175.57246662    39.02775979
 P      1   2   3     2.495226060719    88.05140084    77.60807931
 C      8   1   2     1.875161034673   113.70112360    90.70634755
 H      9   8   1     1.096135282292   107.79971223   178.18283519
 C      8   1   2     1.876530518415   114.60449240   206.83083617
 H     11   8   1     1.097588901078   100.67727431   311.02701173
 C      8   1   2     1.875571170963   114.25143188   334.96772670
 H     13   8   1     1.098376185327   100.30596366    57.20509265
 C      2   1   4     3.491503791072    80.74182143    84.38674459
 P     15   2   1     1.867101319006    63.79084529    21.58361074
 H     16  15   2     2.491581839403   104.76320312   115.16646325
 H     15   2   1     1.097158776541    55.80371237   148.97493831
 C     16  15   2     1.867876577608   104.98970107   198.94221713
 H     19  16  15     1.097497749233   106.98982538   317.97256238
 C     11   8   1     1.535657323132   112.03168389    64.38066257
 H     21  11   8     1.095960114068   109.49842263   196.38522736
 H     21  11   8     1.094089881599   111.09048760    77.61454556
 H     21  11   8     1.091938641711   111.81307116   316.51555276
 C     11   8   1     1.535398988957   117.67298147   194.47891938
 H     25  11   8     1.092605526353   111.84198957   289.92688754
 H     25  11   8     1.097001313518   108.94180691   171.30473056
 H     25  11   8     1.093656593749   112.74162456    52.08801184
 C     13   8   1     1.535147902204   116.92594793   173.63799588
 H     29  13   8     1.093839139239   112.97672982   312.85391659
 H     29  13   8     1.096815434596   109.23615066   193.03411878
 H     29  13   8     1.093468641047   111.19914904    74.79194453
 C     13   8   1     1.535328801211   113.16330501   303.85259903
 H     33  13   8     1.096255537301   109.26923148   166.39411718
 H     33  13   8     1.090775378021   111.71173933    46.43097491
 H     33  13   8     1.093206011818   111.44706236   285.37467398
 C      9   8   1     1.534685096625   111.04344904   296.64993234
 H     37   9   8     1.093576282079   111.96278242   293.55773212
 H     37   9   8     1.096442326119   110.04492507   173.55368166
 H     37   9   8     1.095721305133   111.16226151    53.90750942
 C      9   8   1     1.535201899188   109.92741424    60.22279228
 H     41   9   8     1.095138781051   110.90043083   302.09643030
 H     41   9   8     1.096435190016   110.15369964   182.41577594
 H     41   9   8     1.093811995363   111.98230407    62.19772200
 C     15   2   1     1.533894085294   161.14833142   110.72327899
 H     45  15   2     1.095599554469   112.31437114   328.58765185
 H     45  15   2     1.095086440271   111.09581930   207.49527653
 H     45  15   2     1.096346355802   109.91883790    88.70489954
 C     15   2   1     1.535484754427    84.66691937   263.36304826
 H     49  15   2     1.093650710416   111.88577048   129.61316010
 C     17  16  15     2.170571752692    70.11617992   225.32498055
 H     49  15   2     1.091924263475   111.14221369     8.86829085
 H     49  15   2     1.096280703939   109.42648825   248.99648629
 C     17  16  15     2.157380659439    75.95569309   299.99072980
 H     51  17  16     1.122531839326   138.15932952    41.77891909
 H     51  17  16     1.097699187915    99.54207447   163.59843073
 H     51  17  16     1.090529087449    95.34729759   273.33995721
 C     17  16  15     1.097376296203    44.98281221   266.11331848
 H     54  17  16     1.096686498081    95.28570784   201.91658085
 H     54  17  16     1.093014151794    94.68209580    93.55788205
 H     54  17  16     1.095099070075   139.79323023   327.78227357
 C     19  16  15     1.534254197100   111.72286908   199.42029634
 H     62  19  16     1.093560566058   111.04402897   301.21476812
 H     62  19  16     1.096281080633   109.33791888   182.59138281
 H     62  19  16     1.094366850069   112.29398383    63.20476084
 C     19  16  15     1.535707294332   109.62353127    76.71532905
 H     66  19  16     1.094987140857   110.33220720    56.45815197
 H     66  19  16     1.092993876077   112.08989654   296.14773922
 H     66  19  16     1.096296498515   109.92900704   175.99336297

---------------------------
INTERNAL COORDINATES (A.U.)
---------------------------
 W      0   0   0     0.000000000000     0.00000000     0.00000000
 C      1   0   0     3.837534461550     0.00000000     0.00000000
 O      2   1   0     2.209356729708   177.02617244     0.00000000
 C      1   2   3     3.659316225613    88.60040407   342.40756214
 O      4   1   2     2.226622778763   178.12993917   259.18367697
 C      1   2   3     3.846894559287   173.67819466    28.98073318
 O      6   1   4     2.207811710998   175.57246662    39.02775979
 P      1   2   3     4.715293896982    88.05140084    77.60807931
 C      8   1   2     3.543540812532   113.70112360    90.70634755
 H      9   8   1     2.071395489260   107.79971223   178.18283519
 C      8   1   2     3.546128761749   114.60449240   206.83083617
 H     11   8   1     2.074142430668   100.67727431   311.02701173
 C      8   1   2     3.544315857799   114.25143188   334.96772670
 H     13   8   1     2.075630182290   100.30596366    57.20509265
 C      2   1   4     6.597985960674    80.74182143    84.38674459
 P     15   2   1     3.528310157205    63.79084529    21.58361074
 H     16  15   2     4.708407316723   104.76320312   115.16646325
 H     15   2   1     2.073329613092    55.80371237   148.97493831
 C     16  15   2     3.529775183645   104.98970107   198.94221713
 H     19  16  15     2.073970178645   106.98982538   317.97256238
 C     11   8   1     2.901971776270   112.03168389    64.38066257
 H     21  11   8     2.071064469291   109.49842263   196.38522736
 H     21  11   8     2.067530242116   111.09048760    77.61454556
 H     21  11   8     2.063464987879   111.81307116   316.51555276
 C     11   8   1     2.901483595428   117.67298147   194.47891938
 H     25  11   8     2.064725217216   111.84198957   289.92688754
 H     25  11   8     2.073032051102   108.94180691   171.30473056
 H     25  11   8     2.066711446742   112.74162456    52.08801184
 C     13   8   1     2.901009110229   116.92594793   173.63799588
 H     29  13   8     2.067056407726   112.97672982   312.85391659
 H     29  13   8     2.072680790845   109.23615066   193.03411878
 H     29  13   8     2.066356267611   111.19914904    74.79194453
 C     13   8   1     2.901350959811   113.16330501   303.85259903
 H     33  13   8     2.071622738294   109.26923148   166.39411718
 H     33  13   8     2.061266738084   111.71173933    46.43097491
 H     33  13   8     2.065859970291   111.44706236   285.37467398
 C      9   8   1     2.900134534432   111.04344904   296.64993234
 H     37   9   8     2.066559679680   111.96278242   293.55773212
 H     37   9   8     2.071975718005   110.04492507   173.55368166
 H     37   9   8     2.070613185804   111.16226151    53.90750942
 C      9   8   1     2.901111149740   109.92741424    60.22279228
 H     41   9   8     2.069512374822   110.90043083   302.09643030
 H     41   9   8     2.071962232725   110.15369964   182.41577594
 H     41   9   8     2.067005113235   111.98230407    62.19772200
 C     15   2   1     2.898639739648   161.14833142   110.72327899
 H     45  15   2     2.070383110393   112.31437114   328.58765185
 H     45  15   2     2.069413465083   111.09581930   207.49527653
 H     45  15   2     2.071794360389   109.91883790    88.70489954
 C     15   2   1     2.901645668678    84.66691937   263.36304826
 H     49  15   2     2.066700328855   111.88577048   129.61316010
 C     17  16  15     4.101786166614    70.11617992   225.32498055
 H     49  15   2     2.063437816952   111.14221369     8.86829085
 H     49  15   2     2.071670296348   109.42648825   248.99648629
 C     17  16  15     4.076858612958    75.95569309   299.99072980
 H     51  17  16     2.121277752933   138.15932952    41.77891909
 H     51  17  16     2.074350842588    99.54207447   163.59843073
 H     51  17  16     2.060801316354    95.34729759   273.33995721
 C     17  16  15     2.073740665681    44.98281221   266.11331848
 H     54  17  16     2.072437136142    95.28570784   201.91658085
 H     54  17  16     2.065497407391    94.68209580    93.55788205
 H     54  17  16     2.069437331954   139.79323023   327.78227357
 C     19  16  15     2.899320252339   111.72286908   199.42029634
 H     62  19  16     2.066529980705   111.04402897   301.21476812
 H     62  19  16     2.071671008196   109.33791888   182.59138281
 H     62  19  16     2.068053636673   112.29398383    63.20476084
 C     19  16  15     2.902066208153   109.62353127    76.71532905
 H     66  19  16     2.069225816385   110.33220720    56.45815197
 H     66  19  16     2.065459091838   112.08989654   296.14773922
 H     66  19  16     2.071700143771   109.92900704   175.99336297

---------------------
BASIS SET INFORMATION
---------------------
There are 5 groups of distinct atoms

 Group   1 Type W   : 8s8p6d2f1g contracted to 6s5p3d2f1g pattern {311111/41111/411/11/1}
 Group   2 Type C   : 12s6p3d1f contracted to 6s3p3d1f pattern {621111/411/111/1}
 Group   3 Type O   : 12s7p3d1f contracted to 6s4p3d1f pattern {621111/4111/111/1}
 Group   4 Type P   : 15s9p4d1f contracted to 6s5p4d1f pattern {732111/51111/1111/1}
 Group   5 Type H   : 5s3p1d contracted to 3s3p1d pattern {311/111/1}

Atom   0W    basis set group =>   1
Atom   1C    basis set group =>   2
Atom   2O    basis set group =>   3
Atom   3C    basis set group =>   2
Atom   4O    basis set group =>   3
Atom   5C    basis set group =>   2
Atom   6O    basis set group =>   3
Atom   7P    basis set group =>   4
Atom   8C    basis set group =>   2
Atom   9H    basis set group =>   5
Atom  10C    basis set group =>   2
Atom  11H    basis set group =>   5
Atom  12C    basis set group =>   2
Atom  13H    basis set group =>   5
Atom  14C    basis set group =>   2
Atom  15P    basis set group =>   4
Atom  16H    basis set group =>   5
Atom  17H    basis set group =>   5
Atom  18C    basis set group =>   2
Atom  19H    basis set group =>   5
Atom  20C    basis set group =>   2
Atom  21H    basis set group =>   5
Atom  22H    basis set group =>   5
Atom  23H    basis set group =>   5
Atom  24C    basis set group =>   2
Atom  25H    basis set group =>   5
Atom  26H    basis set group =>   5
Atom  27H    basis set group =>   5
Atom  28C    basis set group =>   2
Atom  29H    basis set group =>   5
Atom  30H    basis set group =>   5
Atom  31H    basis set group =>   5
Atom  32C    basis set group =>   2
Atom  33H    basis set group =>   5
Atom  34H    basis set group =>   5
Atom  35H    basis set group =>   5
Atom  36C    basis set group =>   2
Atom  37H    basis set group =>   5
Atom  38H    basis set group =>   5
Atom  39H    basis set group =>   5
Atom  40C    basis set group =>   2
Atom  41H    basis set group =>   5
Atom  42H    basis set group =>   5
Atom  43H    basis set group =>   5
Atom  44C    basis set group =>   2
Atom  45H    basis set group =>   5
Atom  46H    basis set group =>   5
Atom  47H    basis set group =>   5
Atom  48C    basis set group =>   2
Atom  49H    basis set group =>   5
Atom  50C    basis set group =>   2
Atom  51H    basis set group =>   5
Atom  52H    basis set group =>   5
Atom  53C    basis set group =>   2
Atom  54H    basis set group =>   5
Atom  55H    basis set group =>   5
Atom  56H    basis set group =>   5
Atom  57C    basis set group =>   2
Atom  58H    basis set group =>   5
Atom  59H    basis set group =>   5
Atom  60H    basis set group =>   5
Atom  61C    basis set group =>   2
Atom  62H    basis set group =>   5
Atom  63H    basis set group =>   5
Atom  64H    basis set group =>   5
Atom  65C    basis set group =>   2
Atom  66H    basis set group =>   5
Atom  67H    basis set group =>   5
Atom  68H    basis set group =>   5
---------------------------------
AUXILIARY/J BASIS SET INFORMATION
---------------------------------
There are 5 groups of distinct atoms

 Group   1 Type W   : 11s5p5d3f3g contracted to 8s5p5d2f3g pattern {41111111/11111/11111/21/111}
 Group   2 Type C   : 12s5p4d2f1g contracted to 6s4p3d1f1g pattern {711111/2111/211/2/1}
 Group   3 Type O   : 12s5p4d2f1g contracted to 6s4p3d1f1g pattern {711111/2111/211/2/1}
 Group   4 Type P   : 14s5p5d2f1g contracted to 8s4p3d1f1g pattern {71111111/2111/311/2/1}
 Group   5 Type H   : 5s2p1d contracted to 3s1p1d pattern {311/2/1}

Atom   0W    basis set group =>   1
Atom   1C    basis set group =>   2
Atom   2O    basis set group =>   3
Atom   3C    basis set group =>   2
Atom   4O    basis set group =>   3
Atom   5C    basis set group =>   2
Atom   6O    basis set group =>   3
Atom   7P    basis set group =>   4
Atom   8C    basis set group =>   2
Atom   9H    basis set group =>   5
Atom  10C    basis set group =>   2
Atom  11H    basis set group =>   5
Atom  12C    basis set group =>   2
Atom  13H    basis set group =>   5
Atom  14C    basis set group =>   2
Atom  15P    basis set group =>   4
Atom  16H    basis set group =>   5
Atom  17H    basis set group =>   5
Atom  18C    basis set group =>   2
Atom  19H    basis set group =>   5
Atom  20C    basis set group =>   2
Atom  21H    basis set group =>   5
Atom  22H    basis set group =>   5
Atom  23H    basis set group =>   5
Atom  24C    basis set group =>   2
Atom  25H    basis set group =>   5
Atom  26H    basis set group =>   5
Atom  27H    basis set group =>   5
Atom  28C    basis set group =>   2
Atom  29H    basis set group =>   5
Atom  30H    basis set group =>   5
Atom  31H    basis set group =>   5
Atom  32C    basis set group =>   2
Atom  33H    basis set group =>   5
Atom  34H    basis set group =>   5
Atom  35H    basis set group =>   5
Atom  36C    basis set group =>   2
Atom  37H    basis set group =>   5
Atom  38H    basis set group =>   5
Atom  39H    basis set group =>   5
Atom  40C    basis set group =>   2
Atom  41H    basis set group =>   5
Atom  42H    basis set group =>   5
Atom  43H    basis set group =>   5
Atom  44C    basis set group =>   2
Atom  45H    basis set group =>   5
Atom  46H    basis set group =>   5
Atom  47H    basis set group =>   5
Atom  48C    basis set group =>   2
Atom  49H    basis set group =>   5
Atom  50C    basis set group =>   2
Atom  51H    basis set group =>   5
Atom  52H    basis set group =>   5
Atom  53C    basis set group =>   2
Atom  54H    basis set group =>   5
Atom  55H    basis set group =>   5
Atom  56H    basis set group =>   5
Atom  57C    basis set group =>   2
Atom  58H    basis set group =>   5
Atom  59H    basis set group =>   5
Atom  60H    basis set group =>   5
Atom  61C    basis set group =>   2
Atom  62H    basis set group =>   5
Atom  63H    basis set group =>   5
Atom  64H    basis set group =>   5
Atom  65C    basis set group =>   2
Atom  66H    basis set group =>   5
Atom  67H    basis set group =>   5
Atom  68H    basis set group =>   5
-------------------------
ECP PARAMETER INFORMATION
-------------------------

 Group 1, Type W  ECP Def2-ECP (replacing 60 core electrons, lmax=3)

Atom   0W    ECP group =>   1



           ************************************************************
           *        Program running with 24 parallel MPI-processes    *
           *              working on a common directory               *
           ************************************************************
------------------------------------------------------------------------------
                           ORCA GTO INTEGRAL CALCULATION
                           -- RI-GTO INTEGRALS CHOSEN --
------------------------------------------------------------------------------

                         BASIS SET STATISTICS AND STARTUP INFO

Gaussian basis set:
 # of primitive gaussian shells          ...  992
 # of primitive gaussian functions       ... 2278
 # of contracted shells                  ...  658
 # of contracted basis functions         ... 1766
 Highest angular momentum                ...    4
 Maximum contraction depth               ...    7
Auxiliary gaussian basis set:
 # of primitive gaussian shells          ...  993
 # of primitive gaussian functions       ... 2605
 # of contracted shells                  ...  627
 # of contracted aux-basis functions     ... 1829
 Highest angular momentum                ...    4
 Maximum contraction depth               ...    7
Ratio of auxiliary to basis functions    ...  1.04
Integral package used                  ... LIBINT
 One Electron integrals                  
   ECP integrals                         ... done
 Ordering auxiliary basis shells         ... done
 Integral threshhold             Thresh  ...  1.000e-10
 Primitive cut-off               TCut    ...  1.000e-11
 Pre-screening matrix                    ... done
 Shell pair data                         ... 
 Ordering of the shell pairs             ... done (   0.034 sec) 159893 of 216811 pairs
 Determination of significant pairs      ... done (   0.001 sec)
 Creation of shell pair data             ... done (   0.015 sec)
 Storage of shell pair data              ... done (   0.046 sec)
 Shell pair data done in (   0.097 sec)
 Computing two index integrals           ... done
 Cholesky decomposition of the V-matrix  ... done


Timings:
 Total evaluation time                   ...  13.973 sec (  0.233 min)
 One electron matrix time                ...  12.510 sec (  0.209 min) = 89.5%
 Schwartz matrix evaluation time         ...   1.120 sec (  0.019 min) =  8.0%
 Two index repulsion integral time       ...   0.077 sec (  0.001 min) =  0.5%
 Cholesky decomposition of V             ...   0.145 sec (  0.002 min) =  1.0%
 Three index repulsion integral time     ...   0.000 sec (  0.000 min) =  0.0%



           ************************************************************
           *        Program running with 24 parallel MPI-processes    *
           *              working on a common directory               *
           ************************************************************
-------------------------------------------------------------------------------
                                 ORCA SCF
-------------------------------------------------------------------------------

------------
SCF SETTINGS
------------
Hamiltonian:
 Density Functional     Method          .... DFT(GTOs)
 Exchange Functional    Exchange        .... TPSS
 Correlation Functional Correlation     .... TPSS
 LDA part of GGA corr.  LDAOpt          .... PW91-LDA
 Gradients option       PostSCFGGA      .... off
   Density functional embedding theory  .... OFF
   NL short-range parameter             ....  5.000000
 RI-approximation to the Coulomb term is turned on
   Number of auxiliary basis functions  .... 1829


General Settings:
 Integral files         IntName         .... MOR09_ed07
 Hartree-Fock type      HFTyp           .... RHF
 Total Charge           Charge          ....    0
 Multiplicity           Mult            ....    1
 Number of Electrons    NEL             ....  236
 Basis Dimension        Dim             .... 1766
 Nuclear Repulsion      ENuc            ....   3558.2821903299 Eh

Convergence Acceleration:
 DIIS                   CNVDIIS         .... on
   Start iteration      DIISMaxIt       ....    12
   Startup error        DIISStart       ....  0.200000
   # of expansion vecs  DIISMaxEq       ....     5
   Bias factor          DIISBfac        ....   1.050
   Max. coefficient     DIISMaxC        ....  10.000
 Newton-Raphson         CNVNR           .... off
 SOSCF                  CNVSOSCF        .... off
 Level Shifting         CNVShift        .... on
   Level shift para.    LevelShift      ....    0.2500
   Turn off err/grad.   ShiftErr        ....    0.0010
 Zerner damping         CNVZerner       .... off
 Static damping         CNVDamp         .... on
   Fraction old density DampFac         ....    0.7000
   Max. Damping (<1)    DampMax         ....    0.9800
   Min. Damping (>=0)   DampMin         ....    0.0000
   Turn off err/grad.   DampErr         ....    0.1000
 Fernandez-Rico         CNVRico         .... off

SCF Procedure:
 Maximum # iterations   MaxIter         ....   125
 SCF integral mode      SCFMode         .... Direct
   Integral package                     .... LIBINT
 Reset frequency        DirectResetFreq ....    20
 Integral Threshold     Thresh          ....  1.000e-10 Eh
 Primitive CutOff       TCut            ....  1.000e-11 Eh

Convergence Tolerance:
 Convergence Check Mode ConvCheckMode   .... Total+1el-Energy
 Convergence forced     ConvForced      .... 0
 Energy Change          TolE            ....  1.000e-06 Eh
 1-El. energy change                    ....  1.000e-03 Eh
 DIIS Error             TolErr          ....  1.000e-06


Diagonalization of the overlap matrix:
Smallest eigenvalue                        ... 2.214e-07
Time for diagonalization                   ...    0.372 sec
Threshold for overlap eigenvalues          ... 1.000e-08
Number of eigenvalues below threshold      ... 0
Time for construction of square roots      ...    0.406 sec
Total time needed                          ...    0.791 sec

-------------------
DFT GRID GENERATION
-------------------

General Integration Accuracy     IntAcc      ...  4.670
Radial Grid Type                 RadialGrid  ... Gauss-Chebyshev
Angular Grid (max. acc.)         AngularGrid ... Lebedev-302
Angular grid pruning method      GridPruning ... 3 (G Style)
Weight generation scheme         WeightScheme... Becke
Basis function cutoff            BFCut       ...    1.0000e-10
Integration weight cutoff        WCut        ...    1.0000e-14
Grids for H and He will be reduced by one unit

# of grid points (after initial pruning)     ... 316980 (   0.0 sec)
# of grid points (after weights+screening)   ... 264848 (   0.3 sec)
nearest neighbour list constructed           ...    0.0 sec
Grid point re-assignment to atoms done       ...    0.0 sec
Grid point division into batches done        ...    0.7 sec
Reduced shell lists constructed in    1.4 sec

Total number of grid points                  ...   264848
Total number of batches                      ...     4176
Average number of points per batch           ...       63
Average number of grid points per atom       ...     3838
Average number of shells per batch           ...   354.95 (53.94%)
Average number of basis functions per batch  ...   922.77 (52.25%)
Average number of large shells per batch     ...   254.91 (71.82%)
Average number of large basis fcns per batch ...   668.45 (72.44%)
Maximum spatial batch extension              ...   3.10,  4.47,  3.27 au
Average spatial batch extension              ...   0.05,  0.05,  0.05 au

Time for grid setup =    1.792 sec

------------------------------
INITIAL GUESS: MODEL POTENTIAL
------------------------------
Loading Hartree-Fock densities                     ... done
  calling /sw/apps/orca/orca_4_2_0_linux_x86-64_openmpi314/orca MOR09_ed07_atom74.inp > MOR09_ed07_atom74.out in order to generate an atomic fitting density for atom 0 (W  with ECP) on-the-fly... 
    atom 0 (W ), assumed electronic state with S=5: 1s2 2s2 2p6 3s2 3p6 4s2 3d10 4p6 5s2 4d10 5p6 6s2 4f14 5d4           ... done
Calculating cut-offs                               ... done
Setting up the integral package                    ... done
Initializing the effective Hamiltonian             ... done
Starting the Coulomb interaction                   ... done (   0.7 sec)
Reading the grid                                   ... done
Mapping shells                                     ... done
Starting the XC term evaluation                    ... done (   1.9 sec)
  promolecular density results
     # of electrons  =    295.980285154
     EX              =   -514.213277202
     EC              =    -11.984345982
     EX+EC           =   -526.197623184
Transforming the Hamiltonian                       ... done (   0.2 sec)
Diagonalizing the Hamiltonian                      ... done (   0.4 sec)
Back transforming the eigenvectors                 ... done (   0.1 sec)
Now organizing SCF variables                       ... done
                      ------------------
                      INITIAL GUESS DONE (   6.9 sec)
                      ------------------
--------------
SCF ITERATIONS
--------------
ITER       Energy         Delta-E        Max-DP      RMS-DP      [F,P]     Damp
               ***  Starting incremental Fock matrix formation  ***
  0  -1800.7363342852   0.000000000000 6.93923003  0.01316800  0.4083993 0.7000
  1  -1801.2870392801  -0.550704994858 5.27711687  0.00944590  0.2682258 0.7000
                               ***Turning on DIIS***
  2  -1801.4566981379  -0.169658857857 3.76644021  0.00640228  0.1768298 0.7000
  3  -1801.5601366638  -0.103438525811 2.95655911  0.00453027  0.1218694 0.7000
  4  -1801.6387307527  -0.078594088957 7.60360290  0.01118771  0.0864797 0.0000
  5  -1801.8183133124  -0.179582559728 0.18295256  0.00045694  0.0116795 0.0000
  6  -1801.8189102725  -0.000596960098 0.16857297  0.00027922  0.0068399 0.0000
  7  -1801.8192233346  -0.000313062058 0.35958661  0.00053573  0.0018985 0.0000
  8  -1801.8192339374  -0.000010602794 0.74467665  0.00065390  0.0014595 0.0000
  9  -1801.8192474979  -0.000013560498 0.98414734  0.00095115  0.0004649 0.0000
 10  -1801.8192477265  -0.000000228653 0.19775889  0.00031726  0.0004548 0.0000
 11  -1801.8192481577  -0.000000431188 0.28313647  0.00033006  0.0002407 0.0000
 12  -1801.8192483114  -0.000000153621 0.25126807  0.00023441  0.0001577 0.0000
 13  -1801.8192483568  -0.000000045493 0.22922965  0.00034823  0.0000781 0.0000
                 **** Energy Check signals convergence ****

               *****************************************************
               *                     SUCCESS                       *
               *           SCF CONVERGED AFTER  14 CYCLES          *
               *****************************************************


----------------
TOTAL SCF ENERGY
----------------

Total Energy       :        -1801.81924835 Eh          -49029.99438 eV

Components:
Nuclear Repulsion  :         3558.28219033 Eh           96825.78093 eV
Electronic Energy  :        -5360.10143868 Eh         -145855.77531 eV
One Electron Energy:        -9571.08063219 Eh         -260442.34463 eV
Two Electron Energy:         4210.97919351 Eh          114586.56932 eV

Virial components:
Potential Energy   :        -3552.92640213 Eh          -96680.04252 eV
Kinetic Energy     :         1751.10715377 Eh           47650.04814 eV
Virial Ratio       :            2.02896002


DFT components:
N(Alpha)           :      117.999921584571 electrons
N(Beta)            :      117.999921584571 electrons
N(Total)           :      235.999843169142 electrons
E(X)               :     -202.065977768564 Eh       
E(C)               :       -8.056316393972 Eh       
E(XC)              :     -210.122294162536 Eh       
DFET-embed. en.    :        0.000000000000 Eh       

---------------
SCF CONVERGENCE
---------------

  Last Energy change         ...    4.9154e-09  Tolerance :   1.0000e-06
  Last MAX-Density change    ...    1.1369e-01  Tolerance :   1.0000e-05
  Last RMS-Density change    ...    1.7474e-04  Tolerance :   1.0000e-06
  Last DIIS Error            ...    4.6690e-05  Tolerance :   1.0000e-06

             **** THE GBW FILE WAS UPDATED (MOR09_ed07.gbw) ****
             **** DENSITY FILE WAS UPDATED (MOR09_ed07.scfp) ****
             **** ENERGY FILE WAS UPDATED (MOR09_ed07.en.tmp) ****
             **** THE GBW FILE WAS UPDATED (MOR09_ed07.gbw) ****
             **** DENSITY FILE WAS UPDATED (MOR09_ed07.scfp) ****
----------------
ORBITAL ENERGIES
----------------

  NO   OCC          E(Eh)            E(eV) 
   0   2.0000     -76.596081     -2084.2853 
   1   2.0000     -76.593562     -2084.2168 
   2   2.0000     -18.919693      -514.8310 
   3   2.0000     -18.918739      -514.8051 
   4   2.0000     -18.886340      -513.9234 
   5   2.0000     -10.052037      -273.5298 
   6   2.0000     -10.051942      -273.5272 
   7   2.0000     -10.030287      -272.9380 
   8   2.0000     -10.016788      -272.5707 
   9   2.0000     -10.013296      -272.4756 
  10   2.0000     -10.003118      -272.1987 
  11   2.0000     -10.002586      -272.1842 
  12   2.0000     -10.001101      -272.1438 
  13   2.0000      -9.997040      -272.0333 
  14   2.0000      -9.996636      -272.0223 
  15   2.0000      -9.994914      -271.9754 
  16   2.0000      -9.991170      -271.8735 
  17   2.0000      -9.988480      -271.8004 
  18   2.0000      -9.988156      -271.7915 
  19   2.0000      -9.986737      -271.7529 
  20   2.0000      -9.984152      -271.6826 
  21   2.0000      -9.983243      -271.6578 
  22   2.0000      -9.981211      -271.6026 
  23   2.0000      -9.976999      -271.4880 
  24   2.0000      -9.973107      -271.3820 
  25   2.0000      -9.971183      -271.3297 
  26   2.0000      -6.370699      -173.3555 
  27   2.0000      -6.367138      -173.2586 
  28   2.0000      -4.548456      -123.7698 
  29   2.0000      -4.547741      -123.7503 
  30   2.0000      -4.545452      -123.6880 
  31   2.0000      -4.544673      -123.6668 
  32   2.0000      -4.544542      -123.6633 
  33   2.0000      -4.542006      -123.5943 
  34   2.0000      -2.799018       -76.1652 
  35   2.0000      -1.484373       -40.3918 
  36   2.0000      -1.481890       -40.3243 
  37   2.0000      -1.473313       -40.0909 
  38   2.0000      -1.015275       -27.6270 
  39   2.0000      -1.014128       -27.5958 
  40   2.0000      -0.981147       -26.6984 
  41   2.0000      -0.769046       -20.9268 
  42   2.0000      -0.758557       -20.6414 
  43   2.0000      -0.741409       -20.1748 
  44   2.0000      -0.731430       -19.9032 
  45   2.0000      -0.729346       -19.8465 
  46   2.0000      -0.725333       -19.7373 
  47   2.0000      -0.658438       -17.9170 
  48   2.0000      -0.643630       -17.5141 
  49   2.0000      -0.640388       -17.4259 
  50   2.0000      -0.637653       -17.3514 
  51   2.0000      -0.637408       -17.3448 
  52   2.0000      -0.628373       -17.0989 
  53   2.0000      -0.608065       -16.5463 
  54   2.0000      -0.602005       -16.3814 
  55   2.0000      -0.552561       -15.0360 
  56   2.0000      -0.542215       -14.7544 
  57   2.0000      -0.539542       -14.6817 
  58   2.0000      -0.538900       -14.6642 
  59   2.0000      -0.507646       -13.8137 
  60   2.0000      -0.484996       -13.1974 
  61   2.0000      -0.477411       -12.9910 
  62   2.0000      -0.476720       -12.9722 
  63   2.0000      -0.462270       -12.5790 
  64   2.0000      -0.447455       -12.1759 
  65   2.0000      -0.437374       -11.9016 
  66   2.0000      -0.434231       -11.8160 
  67   2.0000      -0.428547       -11.6613 
  68   2.0000      -0.425967       -11.5912 
  69   2.0000      -0.413753       -11.2588 
  70   2.0000      -0.410546       -11.1715 
  71   2.0000      -0.404908       -11.0181 
  72   2.0000      -0.397327       -10.8118 
  73   2.0000      -0.395561       -10.7638 
  74   2.0000      -0.394761       -10.7420 
  75   2.0000      -0.393025       -10.6948 
  76   2.0000      -0.383581       -10.4378 
  77   2.0000      -0.380245       -10.3470 
  78   2.0000      -0.378485       -10.2991 
  79   2.0000      -0.376712       -10.2509 
  80   2.0000      -0.373832       -10.1725 
  81   2.0000      -0.372504       -10.1364 
  82   2.0000      -0.371174       -10.1002 
  83   2.0000      -0.368625       -10.0308 
  84   2.0000      -0.368071       -10.0157 
  85   2.0000      -0.365574        -9.9478 
  86   2.0000      -0.362443        -9.8626 
  87   2.0000      -0.360285        -9.8038 
  88   2.0000      -0.358990        -9.7686 
  89   2.0000      -0.356246        -9.6939 
  90   2.0000      -0.354712        -9.6522 
  91   2.0000      -0.349458        -9.5092 
  92   2.0000      -0.346784        -9.4365 
  93   2.0000      -0.345770        -9.4089 
  94   2.0000      -0.342522        -9.3205 
  95   2.0000      -0.333714        -9.0808 
  96   2.0000      -0.331594        -9.0231 
  97   2.0000      -0.330344        -8.9891 
  98   2.0000      -0.323781        -8.8105 
  99   2.0000      -0.320955        -8.7336 
 100   2.0000      -0.319956        -8.7064 
 101   2.0000      -0.318517        -8.6673 
 102   2.0000      -0.314048        -8.5457 
 103   2.0000      -0.310425        -8.4471 
 104   2.0000      -0.308590        -8.3972 
 105   2.0000      -0.307000        -8.3539 
 106   2.0000      -0.305539        -8.3141 
 107   2.0000      -0.305150        -8.3036 
 108   2.0000      -0.302067        -8.2197 
 109   2.0000      -0.275085        -7.4854 
 110   2.0000      -0.270306        -7.3554 
 111   2.0000      -0.269024        -7.3205 
 112   2.0000      -0.266731        -7.2581 
 113   2.0000      -0.257214        -6.9992 
 114   2.0000      -0.224376        -6.1056 
 115   2.0000      -0.175385        -4.7725 
 116   2.0000      -0.166631        -4.5343 
 117   2.0000      -0.151648        -4.1265 
 118   0.0000      -0.081358        -2.2139 
 119   0.0000      -0.050249        -1.3674 
 120   0.0000      -0.016089        -0.4378 
 121   0.0000      -0.012601        -0.3429 
 122   0.0000      -0.008967        -0.2440 
 123   0.0000      -0.007786        -0.2119 
 124   0.0000       0.000449         0.0122 
 125   0.0000       0.001143         0.0311 
 126   0.0000       0.006948         0.1891 
 127   0.0000       0.009528         0.2593 
 128   0.0000       0.013008         0.3540 
 129   0.0000       0.014579         0.3967 
 130   0.0000       0.019625         0.5340 
 131   0.0000       0.021647         0.5890 
 132   0.0000       0.021806         0.5934 
 133   0.0000       0.026853         0.7307 
 134   0.0000       0.030595         0.8325 
 135   0.0000       0.031742         0.8638 
 136   0.0000       0.031895         0.8679 
 137   0.0000       0.034140         0.9290 
 138   0.0000       0.037434         1.0186 
 139   0.0000       0.044484         1.2105 
 140   0.0000       0.045942         1.2501 
 141   0.0000       0.050371         1.3707 
 142   0.0000       0.052005         1.4151 
 143   0.0000       0.052854         1.4382 
 144   0.0000       0.055466         1.5093 
 145   0.0000       0.058276         1.5858 
 146   0.0000       0.059357         1.6152 
 147   0.0000       0.061789         1.6814 
 148   0.0000       0.063416         1.7256 
 149   0.0000       0.064354         1.7511 
 150   0.0000       0.067485         1.8364 
 151   0.0000       0.070056         1.9063 
 152   0.0000       0.072527         1.9736 
 153   0.0000       0.074183         2.0186 
 154   0.0000       0.077167         2.0998 
 155   0.0000       0.078784         2.1438 
 156   0.0000       0.082435         2.2432 
 157   0.0000       0.084081         2.2880 
 158   0.0000       0.087160         2.3718 
 159   0.0000       0.089285         2.4296 
 160   0.0000       0.090430         2.4607 
 161   0.0000       0.092801         2.5253 
 162   0.0000       0.094909         2.5826 
 163   0.0000       0.098131         2.6703 
 164   0.0000       0.099579         2.7097 
 165   0.0000       0.100252         2.7280 
 166   0.0000       0.102255         2.7825 
 167   0.0000       0.104419         2.8414 
 168   0.0000       0.105991         2.8842 
 169   0.0000       0.107881         2.9356 
 170   0.0000       0.109115         2.9692 
 171   0.0000       0.112691         3.0665 
 172   0.0000       0.114115         3.1052 
 173   0.0000       0.117669         3.2019 
 174   0.0000       0.119884         3.2622 
 175   0.0000       0.122418         3.3312 
 176   0.0000       0.123820         3.3693 
 177   0.0000       0.126044         3.4298 
 178   0.0000       0.129173         3.5150 
 179   0.0000       0.133057         3.6207 
 180   0.0000       0.133636         3.6364 
 181   0.0000       0.136641         3.7182 
 182   0.0000       0.139222         3.7884 
 183   0.0000       0.140945         3.8353 
 184   0.0000       0.141909         3.8615 
 185   0.0000       0.143075         3.8933 
 186   0.0000       0.145873         3.9694 
 187   0.0000       0.148306         4.0356 
 188   0.0000       0.150899         4.1062 
 189   0.0000       0.151246         4.1156 
 190   0.0000       0.152652         4.1539 
 191   0.0000       0.155905         4.2424 
 192   0.0000       0.157922         4.2973 
 193   0.0000       0.159388         4.3372 
 194   0.0000       0.160588         4.3698 
 195   0.0000       0.161246         4.3877 
 196   0.0000       0.166102         4.5199 
 197   0.0000       0.167651         4.5620 
 198   0.0000       0.169591         4.6148 
 199   0.0000       0.172147         4.6844 
 200   0.0000       0.174767         4.7557 
 201   0.0000       0.175847         4.7850 
 202   0.0000       0.178136         4.8473 
 203   0.0000       0.178925         4.8688 
 204   0.0000       0.181277         4.9328 
 205   0.0000       0.183711         4.9990 
 206   0.0000       0.186681         5.0798 
 207   0.0000       0.187762         5.1093 
 208   0.0000       0.191468         5.2101 
 209   0.0000       0.193244         5.2584 
 210   0.0000       0.196410         5.3446 
 211   0.0000       0.197592         5.3768 
 212   0.0000       0.200144         5.4462 
 213   0.0000       0.202267         5.5040 
 214   0.0000       0.205882         5.6023 
 215   0.0000       0.206218         5.6115 
 216   0.0000       0.207226         5.6389 
 217   0.0000       0.210124         5.7178 
 218   0.0000       0.210710         5.7337 
 219   0.0000       0.213091         5.7985 
 220   0.0000       0.215766         5.8713 
 221   0.0000       0.217774         5.9259 
 222   0.0000       0.219358         5.9690 
 223   0.0000       0.220962         6.0127 
 224   0.0000       0.221568         6.0292 
 225   0.0000       0.225249         6.1293 
 226   0.0000       0.225542         6.1373 
 227   0.0000       0.229917         6.2564 
 228   0.0000       0.230892         6.2829 
 229   0.0000       0.232292         6.3210 
 230   0.0000       0.236508         6.4357 
 231   0.0000       0.236742         6.4421 
 232   0.0000       0.239559         6.5187 
 233   0.0000       0.241949         6.5838 
 234   0.0000       0.242697         6.6041 
 235   0.0000       0.243705         6.6315 
 236   0.0000       0.244860         6.6630 
 237   0.0000       0.247648         6.7389 
 238   0.0000       0.249375         6.7858 
 239   0.0000       0.249778         6.7968 
 240   0.0000       0.251391         6.8407 
 241   0.0000       0.253132         6.8881 
 242   0.0000       0.256201         6.9716 
 243   0.0000       0.256854         6.9893 
 244   0.0000       0.257395         7.0041 
 245   0.0000       0.259723         7.0674 
 246   0.0000       0.263072         7.1586 
 247   0.0000       0.263420         7.1680 
 248   0.0000       0.266128         7.2417 
 249   0.0000       0.267323         7.2742 
 250   0.0000       0.268825         7.3151 
 251   0.0000       0.271604         7.3907 
 252   0.0000       0.273070         7.4306 
 253   0.0000       0.275727         7.5029 
 254   0.0000       0.276744         7.5306 
 255   0.0000       0.278942         7.5904 
 256   0.0000       0.279611         7.6086 
 257   0.0000       0.280931         7.6445 
 258   0.0000       0.281704         7.6656 
 259   0.0000       0.284774         7.7491 
 260   0.0000       0.286504         7.7962 
 261   0.0000       0.289389         7.8747 
 262   0.0000       0.290665         7.9094 
 263   0.0000       0.292879         7.9696 
 264   0.0000       0.294084         8.0024 
 265   0.0000       0.296154         8.0588 
 266   0.0000       0.297707         8.1010 
 267   0.0000       0.299306         8.1445 
 268   0.0000       0.302205         8.2234 
 269   0.0000       0.302858         8.2412 
 270   0.0000       0.305560         8.3147 
 271   0.0000       0.306009         8.3269 
 272   0.0000       0.308599         8.3974 
 273   0.0000       0.310298         8.4436 
 274   0.0000       0.312570         8.5055 
 275   0.0000       0.314140         8.5482 
 276   0.0000       0.315018         8.5721 
 277   0.0000       0.316857         8.6221 
 278   0.0000       0.316935         8.6242 
 279   0.0000       0.319841         8.7033 
 280   0.0000       0.320730         8.7275 
 281   0.0000       0.323672         8.8076 
 282   0.0000       0.325273         8.8511 
 283   0.0000       0.325820         8.8660 
 284   0.0000       0.329316         8.9611 
 285   0.0000       0.331441         9.0190 
 286   0.0000       0.333751         9.0818 
 287   0.0000       0.334880         9.1126 
 288   0.0000       0.335917         9.1408 
 289   0.0000       0.337891         9.1945 
 290   0.0000       0.338899         9.2219 
 291   0.0000       0.342095         9.3089 
 292   0.0000       0.344710         9.3800 
 293   0.0000       0.345903         9.4125 
 294   0.0000       0.347367         9.4523 
 295   0.0000       0.352339         9.5876 
 296   0.0000       0.353894         9.6299 
 297   0.0000       0.354282         9.6405 
 298   0.0000       0.357588         9.7305 
 299   0.0000       0.358945         9.7674 
 300   0.0000       0.359989         9.7958 
 301   0.0000       0.362479         9.8636 
 302   0.0000       0.365735         9.9522 
 303   0.0000       0.367775        10.0077 
 304   0.0000       0.369644        10.0585 
 305   0.0000       0.371307        10.1038 
 306   0.0000       0.372556        10.1378 
 307   0.0000       0.375347        10.2137 
 308   0.0000       0.376290        10.2394 
 309   0.0000       0.379450        10.3253 
 310   0.0000       0.381858        10.3909 
 311   0.0000       0.384406        10.4602 
 312   0.0000       0.385873        10.5001 
 313   0.0000       0.387010        10.5311 
 314   0.0000       0.390570        10.6280 
 315   0.0000       0.391823        10.6620 
 316   0.0000       0.393188        10.6992 
 317   0.0000       0.393933        10.7195 
 318   0.0000       0.395020        10.7490 
 319   0.0000       0.398761        10.8509 
 320   0.0000       0.400127        10.8880 
 321   0.0000       0.402545        10.9538 
 322   0.0000       0.403906        10.9908 
 323   0.0000       0.407767        11.0959 
 324   0.0000       0.408747        11.1226 
 325   0.0000       0.411110        11.1869 
 326   0.0000       0.412513        11.2250 
 327   0.0000       0.414386        11.2760 
 328   0.0000       0.417063        11.3489 
 329   0.0000       0.418206        11.3800 
 330   0.0000       0.419594        11.4177 
 331   0.0000       0.421155        11.4602 
 332   0.0000       0.422152        11.4873 
 333   0.0000       0.423251        11.5173 
 334   0.0000       0.426872        11.6158 
 335   0.0000       0.428902        11.6710 
 336   0.0000       0.429879        11.6976 
 337   0.0000       0.431740        11.7482 
 338   0.0000       0.433195        11.7878 
 339   0.0000       0.435017        11.8374 
 340   0.0000       0.437258        11.8984 
 341   0.0000       0.438037        11.9196 
 342   0.0000       0.439972        11.9723 
 343   0.0000       0.442317        12.0360 
 344   0.0000       0.443745        12.0749 
 345   0.0000       0.446890        12.1605 
 346   0.0000       0.449062        12.2196 
 347   0.0000       0.451727        12.2921 
 348   0.0000       0.453113        12.3298 
 349   0.0000       0.455908        12.4059 
 350   0.0000       0.457293        12.4436 
 351   0.0000       0.459071        12.4920 
 352   0.0000       0.463358        12.6086 
 353   0.0000       0.464588        12.6421 
 354   0.0000       0.465465        12.6659 
 355   0.0000       0.466561        12.6958 
 356   0.0000       0.467251        12.7145 
 357   0.0000       0.470666        12.8075 
 358   0.0000       0.471646        12.8341 
 359   0.0000       0.474782        12.9195 
 360   0.0000       0.476141        12.9564 
 361   0.0000       0.478563        13.0224 
 362   0.0000       0.479856        13.0575 
 363   0.0000       0.482378        13.1262 
 364   0.0000       0.484453        13.1826 
 365   0.0000       0.486089        13.2272 
 366   0.0000       0.487111        13.2550 
 367   0.0000       0.491574        13.3764 
 368   0.0000       0.491953        13.3867 
 369   0.0000       0.495909        13.4944 
 370   0.0000       0.496413        13.5081 
 371   0.0000       0.498394        13.5620 
 372   0.0000       0.500796        13.6274 
 373   0.0000       0.502510        13.6740 
 374   0.0000       0.503415        13.6986 
 375   0.0000       0.504522        13.7287 
 376   0.0000       0.506570        13.7845 
 377   0.0000       0.509146        13.8546 
 378   0.0000       0.509783        13.8719 
 379   0.0000       0.511691        13.9238 
 380   0.0000       0.514696        14.0056 
 381   0.0000       0.517759        14.0889 
 382   0.0000       0.519813        14.1448 
 383   0.0000       0.520988        14.1768 
 384   0.0000       0.524719        14.2783 
 385   0.0000       0.525219        14.2919 
 386   0.0000       0.527908        14.3651 
 387   0.0000       0.530103        14.4248 
 388   0.0000       0.532909        14.5012 
 389   0.0000       0.535086        14.5604 
 390   0.0000       0.536686        14.6040 
 391   0.0000       0.538223        14.6458 
 392   0.0000       0.540797        14.7158 
 393   0.0000       0.542772        14.7696 
 394   0.0000       0.545488        14.8435 
 395   0.0000       0.547264        14.8918 
 396   0.0000       0.548328        14.9208 
 397   0.0000       0.550914        14.9911 
 398   0.0000       0.554110        15.0781 
 399   0.0000       0.554995        15.1022 
 400   0.0000       0.557890        15.1810 
 401   0.0000       0.560240        15.2449 
 402   0.0000       0.561212        15.2714 
 403   0.0000       0.563644        15.3375 
 404   0.0000       0.565862        15.3979 
 405   0.0000       0.566676        15.4200 
 406   0.0000       0.567332        15.4379 
 407   0.0000       0.570218        15.5164 
 408   0.0000       0.571754        15.5582 
 409   0.0000       0.575320        15.6552 
 410   0.0000       0.578597        15.7444 
 411   0.0000       0.578840        15.7510 
 412   0.0000       0.580622        15.7995 
 413   0.0000       0.582630        15.8542 
 414   0.0000       0.585483        15.9318 
 415   0.0000       0.586217        15.9518 
 416   0.0000       0.589439        16.0395 
 417   0.0000       0.590668        16.0729 
 418   0.0000       0.591955        16.1079 
 419   0.0000       0.592714        16.1286 
 420   0.0000       0.594942        16.1892 
 421   0.0000       0.596418        16.2293 
 422   0.0000       0.599988        16.3265 
 423   0.0000       0.601058        16.3556 
 424   0.0000       0.601564        16.3694 
 425   0.0000       0.604162        16.4401 
 426   0.0000       0.607275        16.5248 
 427   0.0000       0.607729        16.5372 
 428   0.0000       0.609947        16.5975 
 429   0.0000       0.611096        16.6288 
 430   0.0000       0.612872        16.6771 
 431   0.0000       0.614152        16.7119 
 432   0.0000       0.618085        16.8189 
 433   0.0000       0.621713        16.9177 
 434   0.0000       0.623493        16.9661 
 435   0.0000       0.625155        17.0113 
 436   0.0000       0.627355        17.0712 
 437   0.0000       0.628302        17.0970 
 438   0.0000       0.629926        17.1411 
 439   0.0000       0.630931        17.1685 
 440   0.0000       0.633534        17.2393 
 441   0.0000       0.635784        17.3006 
 442   0.0000       0.636721        17.3261 
 443   0.0000       0.638698        17.3798 
 444   0.0000       0.639902        17.4126 
 445   0.0000       0.641657        17.4604 
 446   0.0000       0.642874        17.4935 
 447   0.0000       0.644184        17.5291 
 448   0.0000       0.645915        17.5763 
 449   0.0000       0.648404        17.6440 
 450   0.0000       0.649569        17.6757 
 451   0.0000       0.651035        17.7156 
 452   0.0000       0.651674        17.7329 
 453   0.0000       0.654493        17.8096 
 454   0.0000       0.656161        17.8551 
 455   0.0000       0.656981        17.8774 
 456   0.0000       0.658120        17.9084 
 457   0.0000       0.661330        17.9957 
 458   0.0000       0.663638        18.0585 
 459   0.0000       0.664419        18.0798 
 460   0.0000       0.665948        18.1214 
 461   0.0000       0.667389        18.1606 
 462   0.0000       0.669877        18.2283 
 463   0.0000       0.670954        18.2576 
 464   0.0000       0.672855        18.3093 
 465   0.0000       0.673438        18.3252 
 466   0.0000       0.676745        18.4152 
 467   0.0000       0.677907        18.4468 
 468   0.0000       0.680273        18.5112 
 469   0.0000       0.682883        18.5822 
 470   0.0000       0.682984        18.5849 
 471   0.0000       0.685953        18.6657 
 472   0.0000       0.688241        18.7280 
 473   0.0000       0.690280        18.7835 
 474   0.0000       0.692016        18.8307 
 475   0.0000       0.695555        18.9270 
 476   0.0000       0.697245        18.9730 
 477   0.0000       0.698048        18.9948 
 478   0.0000       0.700481        19.0611 
 479   0.0000       0.701633        19.0924 
 480   0.0000       0.704445        19.1689 
 481   0.0000       0.707000        19.2384 
 482   0.0000       0.708854        19.2889 
 483   0.0000       0.710781        19.3413 
 484   0.0000       0.711383        19.3577 
 485   0.0000       0.714461        19.4415 
 486   0.0000       0.715193        19.4614 
 487   0.0000       0.717422        19.5220 
 488   0.0000       0.718620        19.5547 
 489   0.0000       0.719368        19.5750 
 490   0.0000       0.721963        19.6456 
 491   0.0000       0.724241        19.7076 
 492   0.0000       0.726658        19.7734 
 493   0.0000       0.727256        19.7896 
 494   0.0000       0.730697        19.8833 
 495   0.0000       0.732715        19.9382 
 496   0.0000       0.734030        19.9740 
 497   0.0000       0.735692        20.0192 
 498   0.0000       0.735885        20.0244 
 499   0.0000       0.739400        20.1201 
 500   0.0000       0.741037        20.1646 
 501   0.0000       0.743046        20.2193 
 502   0.0000       0.744811        20.2673 
 503   0.0000       0.747330        20.3359 
 504   0.0000       0.747964        20.3531 
 505   0.0000       0.750154        20.4127 
 506   0.0000       0.751696        20.4547 
 507   0.0000       0.753617        20.5070 
 508   0.0000       0.754283        20.5251 
 509   0.0000       0.756121        20.5751 
 510   0.0000       0.757026        20.5997 
 511   0.0000       0.760355        20.6903 
 512   0.0000       0.763785        20.7837 
 513   0.0000       0.765021        20.8173 
 514   0.0000       0.768294        20.9063 
 515   0.0000       0.770883        20.9768 
 516   0.0000       0.772449        21.0194 
 517   0.0000       0.774026        21.0623 
 518   0.0000       0.777847        21.1663 
 519   0.0000       0.780445        21.2370 
 520   0.0000       0.780978        21.2515 
 521   0.0000       0.782333        21.2884 
 522   0.0000       0.784378        21.3440 
 523   0.0000       0.786533        21.4027 
 524   0.0000       0.788264        21.4498 
 525   0.0000       0.790968        21.5233 
 526   0.0000       0.792451        21.5637 
 527   0.0000       0.794747        21.6262 
 528   0.0000       0.796723        21.6799 
 529   0.0000       0.798897        21.7391 
 530   0.0000       0.799495        21.7554 
 531   0.0000       0.803643        21.8682 
 532   0.0000       0.805250        21.9120 
 533   0.0000       0.807082        21.9618 
 534   0.0000       0.808015        21.9872 
 535   0.0000       0.812579        22.1114 
 536   0.0000       0.813552        22.1379 
 537   0.0000       0.814822        22.1724 
 538   0.0000       0.819394        22.2968 
 539   0.0000       0.821257        22.3475 
 540   0.0000       0.823046        22.3962 
 541   0.0000       0.824765        22.4430 
 542   0.0000       0.826839        22.4994 
 543   0.0000       0.831155        22.6169 
 544   0.0000       0.833453        22.6794 
 545   0.0000       0.834635        22.7116 
 546   0.0000       0.838039        22.8042 
 547   0.0000       0.839165        22.8348 
 548   0.0000       0.843042        22.9403 
 549   0.0000       0.844736        22.9864 
 550   0.0000       0.845517        23.0077 
 551   0.0000       0.849428        23.1141 
 552   0.0000       0.851399        23.1677 
 553   0.0000       0.852615        23.2008 
 554   0.0000       0.860274        23.4092 
 555   0.0000       0.863613        23.5001 
 556   0.0000       0.864077        23.5127 
 557   0.0000       0.865448        23.5500 
 558   0.0000       0.866389        23.5756 
 559   0.0000       0.867705        23.6114 
 560   0.0000       0.871612        23.7178 
 561   0.0000       0.874496        23.7962 
 562   0.0000       0.875000        23.8100 
 563   0.0000       0.875961        23.8361 
 564   0.0000       0.878400        23.9025 
 565   0.0000       0.881569        23.9887 
 566   0.0000       0.885282        24.0898 
 567   0.0000       0.887861        24.1599 
 568   0.0000       0.889628        24.2080 
 569   0.0000       0.893247        24.3065 
 570   0.0000       0.895699        24.3732 
 571   0.0000       0.900362        24.5001 
 572   0.0000       0.901737        24.5375 
 573   0.0000       0.902256        24.5516 
 574   0.0000       0.906731        24.6734 
 575   0.0000       0.908220        24.7139 
 576   0.0000       0.911979        24.8162 
 577   0.0000       0.915273        24.9058 
 578   0.0000       0.916317        24.9343 
 579   0.0000       0.918498        24.9936 
 580   0.0000       0.920232        25.0408 
 581   0.0000       0.922285        25.0967 
 582   0.0000       0.924943        25.1690 
 583   0.0000       0.929725        25.2991 
 584   0.0000       0.931132        25.3374 
 585   0.0000       0.935031        25.4435 
 586   0.0000       0.937656        25.5149 
 587   0.0000       0.938990        25.5512 
 588   0.0000       0.942597        25.6494 
 589   0.0000       0.944746        25.7078 
 590   0.0000       0.951742        25.8982 
 591   0.0000       0.953170        25.9371 
 592   0.0000       0.955459        25.9994 
 593   0.0000       0.956538        26.0287 
 594   0.0000       0.963366        26.2145 
 595   0.0000       0.964900        26.2563 
 596   0.0000       0.968956        26.3666 
 597   0.0000       0.973695        26.4956 
 598   0.0000       0.973854        26.4999 
 599   0.0000       0.977298        26.5936 
 600   0.0000       0.981470        26.7072 
 601   0.0000       0.984516        26.7900 
 602   0.0000       0.986768        26.8513 
 603   0.0000       0.989510        26.9259 
 604   0.0000       0.992391        27.0043 
 605   0.0000       0.994992        27.0751 
 606   0.0000       0.996516        27.1166 
 607   0.0000       0.996573        27.1181 
 608   0.0000       0.998777        27.1781 
 609   0.0000       1.003484        27.3062 
 610   0.0000       1.009468        27.4690 
 611   0.0000       1.013969        27.5915 
 612   0.0000       1.016561        27.6620 
 613   0.0000       1.017328        27.6829 
 614   0.0000       1.020467        27.7683 
 615   0.0000       1.021815        27.8050 
 616   0.0000       1.026805        27.9408 
 617   0.0000       1.028125        27.9767 
 618   0.0000       1.031803        28.0768 
 619   0.0000       1.035794        28.1854 
 620   0.0000       1.038854        28.2687 
 621   0.0000       1.039955        28.2986 
 622   0.0000       1.042621        28.3712 
 623   0.0000       1.044885        28.4328 
 624   0.0000       1.049503        28.5584 
 625   0.0000       1.051996        28.6263 
 626   0.0000       1.057691        28.7812 
 627   0.0000       1.058554        28.8047 
 628   0.0000       1.060794        28.8657 
 629   0.0000       1.063983        28.9525 
 630   0.0000       1.068113        29.0648 
 631   0.0000       1.073314        29.2064 
 632   0.0000       1.074583        29.2409 
 633   0.0000       1.076525        29.2937 
 634   0.0000       1.077519        29.3208 
 635   0.0000       1.083598        29.4862 
 636   0.0000       1.084793        29.5187 
 637   0.0000       1.087564        29.5941 
 638   0.0000       1.089608        29.6497 
 639   0.0000       1.093417        29.7534 
 640   0.0000       1.095602        29.8129 
 641   0.0000       1.099582        29.9212 
 642   0.0000       1.101918        29.9847 
 643   0.0000       1.107178        30.1279 
 644   0.0000       1.112308        30.2674 
 645   0.0000       1.116772        30.3889 
 646   0.0000       1.119583        30.4654 
 647   0.0000       1.121509        30.5178 
 648   0.0000       1.123921        30.5835 
 649   0.0000       1.125286        30.6206 
 650   0.0000       1.130239        30.7554 
 651   0.0000       1.133531        30.8449 
 652   0.0000       1.138280        30.9742 
 653   0.0000       1.140426        31.0326 
 654   0.0000       1.142282        31.0831 
 655   0.0000       1.144665        31.1479 
 656   0.0000       1.150564        31.3084 
 657   0.0000       1.153261        31.3818 
 658   0.0000       1.155725        31.4489 
 659   0.0000       1.159648        31.5556 
 660   0.0000       1.165974        31.7278 
 661   0.0000       1.166647        31.7461 
 662   0.0000       1.170824        31.8597 
 663   0.0000       1.173016        31.9194 
 664   0.0000       1.174828        31.9687 
 665   0.0000       1.178018        32.0555 
 666   0.0000       1.181455        32.1490 
 667   0.0000       1.184256        32.2252 
 668   0.0000       1.185478        32.2585 
 669   0.0000       1.188526        32.3414 
 670   0.0000       1.191325        32.4176 
 671   0.0000       1.195412        32.5288 
 672   0.0000       1.197506        32.5858 
 673   0.0000       1.201803        32.7027 
 674   0.0000       1.203839        32.7581 
 675   0.0000       1.209539        32.9132 
 676   0.0000       1.209752        32.9190 
 677   0.0000       1.212425        32.9918 
 678   0.0000       1.215558        33.0770 
 679   0.0000       1.219251        33.1775 
 680   0.0000       1.220534        33.2124 
 681   0.0000       1.223145        33.2835 
 682   0.0000       1.228767        33.4365 
 683   0.0000       1.233684        33.5703 
 684   0.0000       1.238149        33.6918 
 685   0.0000       1.240159        33.7464 
 686   0.0000       1.243714        33.8432 
 687   0.0000       1.247598        33.9489 
 688   0.0000       1.249490        34.0004 
 689   0.0000       1.257065        34.2065 
 690   0.0000       1.257328        34.2136 
 691   0.0000       1.261762        34.3343 
 692   0.0000       1.264633        34.4124 
 693   0.0000       1.266631        34.4668 
 694   0.0000       1.272484        34.6260 
 695   0.0000       1.272588        34.6289 
 696   0.0000       1.275851        34.7177 
 697   0.0000       1.279029        34.8041 
 698   0.0000       1.284108        34.9424 
 699   0.0000       1.285589        34.9827 
 700   0.0000       1.288931        35.0736 
 701   0.0000       1.291975        35.1564 
 702   0.0000       1.292686        35.1758 
 703   0.0000       1.296431        35.2777 
 704   0.0000       1.297824        35.3156 
 705   0.0000       1.301441        35.4140 
 706   0.0000       1.306650        35.5558 
 707   0.0000       1.306981        35.5648 
 708   0.0000       1.313345        35.7379 
 709   0.0000       1.314341        35.7650 
 710   0.0000       1.317318        35.8460 
 711   0.0000       1.319339        35.9010 
 712   0.0000       1.320689        35.9378 
 713   0.0000       1.326104        36.0851 
 714   0.0000       1.329341        36.1732 
 715   0.0000       1.334602        36.3164 
[...]
 51 H s       :     0.679682  s :     0.679682
      pz      :     0.085605  p :     0.333013
      px      :     0.159360
      py      :     0.088048
      dz2     :     0.003088  d :     0.029306
      dxz     :     0.009040
      dyz     :     0.000211
      dx2y2   :     0.007650
      dxy     :     0.009316
 52 H s       :     0.699283  s :     0.699283
      pz      :     0.086761  p :     0.277982
      px      :     0.087514
      py      :     0.103707
      dz2     :     0.006134  d :     0.029049
      dxz     :     0.003929
      dyz     :     0.006741
      dx2y2   :     0.006633
      dxy     :     0.005612
 53 C s       :     2.627775  s :     2.627775
      pz      :     0.902924  p :     2.663208
      px      :     0.902457
      py      :     0.857827
      dz2     :     0.096010  d :     0.552322
      dxz     :     0.071425
      dyz     :     0.144223
      dx2y2   :     0.112929
      dxy     :     0.127736
      f0      :     0.004945  f :     0.032053
      f+1     :     0.001092
      f-1     :     0.005576
      f+2     :     0.005049
      f-2     :     0.004207
      f+3     :     0.005217
      f-3     :     0.005968
 54 H s       :     0.647991  s :     0.647991
      pz      :     0.150967  p :     0.403327
      px      :     0.143700
      py      :     0.108659
      dz2     :     0.006249  d :     0.027919
      dxz     :     0.006971
      dyz     :     0.003224
      dx2y2   :     0.006116
      dxy     :     0.005359
 55 H s       :     0.688114  s :     0.688114
      pz      :     0.115483  p :     0.275052
      px      :     0.069868
      py      :     0.089701
      dz2     :     0.009718  d :     0.029069
      dxz     :     0.007370
      dyz     :     0.007948
      dx2y2   :     0.002330
      dxy     :     0.001703
 56 H s       :     0.676155  s :     0.676155
      pz      :     0.094392  p :     0.328568
      px      :     0.088932
      py      :     0.145244
      dz2     :     0.002859  d :     0.029516
      dxz     :     0.000336
      dyz     :     0.009380
      dx2y2   :     0.008144
      dxy     :     0.008797
 57 C s       :     2.649557  s :     2.649557
      pz      :     0.897324  p :     2.660630
      px      :     0.882210
      py      :     0.881097
      dz2     :     0.168605  d :     0.983192
      dxz     :     0.195202
      dyz     :     0.212696
      dx2y2   :     0.208506
      dxy     :     0.198184
      f0      :     0.004551  f :     0.042201
      f+1     :     0.004997
      f-1     :     0.004727
      f+2     :     0.007704
      f-2     :     0.005131
      f+3     :     0.007973
      f-3     :     0.007119
 58 H s       :     0.696756  s :     0.696756
      pz      :     0.123036  p :     0.280863
      px      :     0.078459
      py      :     0.079367
      dz2     :     0.009403  d :     0.029086
      dxz     :     0.008211
      dyz     :     0.008594
      dx2y2   :     0.001715
      dxy     :     0.001164
 59 H s       :     0.689575  s :     0.689575
      pz      :     0.097399  p :     0.304128
      px      :     0.126688
      py      :     0.080040
      dz2     :     0.004487  d :     0.029243
      dxz     :     0.007824
      dyz     :     0.001864
      dx2y2   :     0.007473
      dxy     :     0.007595
 60 H s       :     0.678813  s :     0.678813
      pz      :     0.113753  p :     0.315594
      px      :     0.119869
      py      :     0.081971
      dz2     :     0.006469  d :     0.029030
      dxz     :     0.006617
      dyz     :     0.004021
      dx2y2   :     0.006171
      dxy     :     0.005751
 61 C s       :     2.628423  s :     2.628423
      pz      :     0.871065  p :     2.661115
      px      :     0.905755
      py      :     0.884295
      dz2     :     0.155845  d :     0.557142
      dxz     :     0.070919
      dyz     :     0.130661
      dx2y2   :     0.090666
      dxy     :     0.109051
      f0      :     0.003999  f :     0.032039
      f+1     :     0.005413
      f-1     :     0.006915
      f+2     :     0.004770
      f-2     :     0.003717
      f+3     :     0.004561
      f-3     :     0.002663
 62 H s       :     0.676010  s :     0.676010
      pz      :     0.083736  p :     0.334951
      px      :     0.162651
      py      :     0.088563
      dz2     :     0.002796  d :     0.029067
      dxz     :     0.008082
      dyz     :     0.001010
      dx2y2   :     0.007945
      dxy     :     0.009233
 63 H s       :     0.695519  s :     0.695519
      pz      :     0.077150  p :     0.281608
      px      :     0.091490
      py      :     0.112969
      dz2     :     0.002692  d :     0.029192
      dxz     :     0.002566
      dyz     :     0.006771
      dx2y2   :     0.009383
      dxy     :     0.007780
 64 H s       :     0.690324  s :     0.690324
      pz      :     0.111336  p :     0.306542
      px      :     0.082547
      py      :     0.112659
      dz2     :     0.009416  d :     0.029120
      dxz     :     0.006600
      dyz     :     0.007833
      dx2y2   :     0.002467
      dxy     :     0.002804
 65 C s       :     2.632990  s :     2.632990
      pz      :     0.871621  p :     2.665327
      px      :     0.911625
      py      :     0.882081
      dz2     :     0.141524  d :     0.539318
      dxz     :     0.089684
      dyz     :     0.121324
      dx2y2   :     0.083794
      dxy     :     0.102992
      f0      :     0.004525  f :     0.031825
      f+1     :     0.005300
      f-1     :     0.006323
      f+2     :     0.003805
      f-2     :     0.004851
      f+3     :     0.005003
      f-3     :     0.002017
 66 H s       :     0.682974  s :     0.682974
      pz      :     0.076920  p :     0.308073
      px      :     0.146717
      py      :     0.084436
      dz2     :     0.002962  d :     0.029104
      dxz     :     0.008650
      dyz     :     0.001045
      dx2y2   :     0.007480
      dxy     :     0.008968
 67 H s       :     0.691272  s :     0.691272
      pz      :     0.115154  p :     0.313086
      px      :     0.087425
      py      :     0.110507
      dz2     :     0.008941  d :     0.029200
      dxz     :     0.006767
      dyz     :     0.007122
      dx2y2   :     0.003341
      dxy     :     0.003029
 68 H s       :     0.698283  s :     0.698283
      pz      :     0.078153  p :     0.281480
      px      :     0.089504
      py      :     0.113824
      dz2     :     0.002996  d :     0.029053
      dxz     :     0.002188
      dyz     :     0.006923
      dx2y2   :     0.009053
      dxy     :     0.007893


                      *****************************
                      * MAYER POPULATION ANALYSIS *
                      *****************************

  NA   - Mulliken gross atomic population
  ZA   - Total nuclear charge
  QA   - Mulliken gross atomic charge
  VA   - Mayer's total valence
  BVA  - Mayer's bonded valence
  FA   - Mayer's free valence

  ATOM       NA         ZA         QA         VA         BVA        FA
  0 W     17.7244    14.0000    -3.7244     6.8126     6.8126    -0.0000
  1 C      4.8456     6.0000     1.1544     3.5511     3.5511    -0.0000
  2 O      8.5516     8.0000    -0.5516     1.7252     1.7252     0.0000
  3 C      4.3323     6.0000     1.6677     2.6422     2.6422    -0.0000
  4 O      8.6509     8.0000    -0.6509     1.7126     1.7126    -0.0000
  5 C      4.8535     6.0000     1.1465     3.4199     3.4199    -0.0000
  6 O      8.5658     8.0000    -0.5658     1.8017     1.8017    -0.0000
  7 P     14.4085    15.0000     0.5915     2.6843     2.6843    -0.0000
  8 C      5.6609     6.0000     0.3391     4.1211     4.1211     0.0000
  9 H      0.7594     1.0000     0.2406     0.5983     0.5983    -0.0000
 10 C      5.4941     6.0000     0.5059     3.8399     3.8399     0.0000
 11 H      0.8461     1.0000     0.1539     0.8095     0.8095     0.0000
 12 C      5.5032     6.0000     0.4968     3.9587     3.9587     0.0000
 13 H      0.7959     1.0000     0.2041     0.7247     0.7247     0.0000
 14 C      5.1930     6.0000     0.8070     2.9853     2.9853     0.0000
 15 P     14.9272    15.0000     0.0728     3.8854     3.8854    -0.0000
 16 H      0.8900     1.0000     0.1100     0.7378     0.7378    -0.0000
 17 H      0.7365     1.0000     0.2635     0.7814     0.7814     0.0000
 18 C      5.3504     6.0000     0.6496     3.2077     3.2077     0.0000
 19 H      0.7760     1.0000     0.2240     0.6169     0.6169     0.0000
 20 C      6.5850     6.0000    -0.5850     4.0803     4.0803     0.0000
 21 H      0.9351     1.0000     0.0649     0.9731     0.9731     0.0000
 22 H      0.8714     1.0000     0.1286     0.9883     0.9883     0.0000
 23 H      0.9300     1.0000     0.0700     1.1784     1.1784     0.0000
 24 C      6.6254     6.0000    -0.6254     4.0630     4.0630     0.0000
 25 H      0.9132     1.0000     0.0868     1.0214     1.0214     0.0000
 26 H      0.9108     1.0000     0.0892     0.9961     0.9961     0.0000
 27 H      0.8787     1.0000     0.1213     1.0164     1.0164     0.0000
 28 C      6.6785     6.0000    -0.6785     4.0600     4.0600     0.0000
 29 H      0.8702     1.0000     0.1298     1.0038     1.0038    -0.0000
 30 H      0.9237     1.0000     0.0763     0.9846     0.9846     0.0000
 31 H      0.8848     1.0000     0.1152     1.0125     1.0125     0.0000
 32 C      6.5332     6.0000    -0.5332     4.0054     4.0054    -0.0000
 33 H      0.9347     1.0000     0.0653     0.9510     0.9510    -0.0000
 34 H      0.9187     1.0000     0.0813     1.1474     1.1474    -0.0000
 35 H      0.8782     1.0000     0.1218     0.9862     0.9862    -0.0000
 36 C      6.6937     6.0000    -0.6937     4.0336     4.0336    -0.0000
 37 H      0.8656     1.0000     0.1344     0.9928     0.9928    -0.0000
 38 H      0.9217     1.0000     0.0783     0.9794     0.9794    -0.0000
 39 H      0.9154     1.0000     0.0846     1.1025     1.1025    -0.0000
 40 C      6.6337     6.0000    -0.6337     4.0698     4.0698    -0.0000
 41 H      0.9582     1.0000     0.0418     1.1124     1.1124     0.0000
 42 H      0.9160     1.0000     0.0840     1.0012     1.0012    -0.0000
 43 H      0.8332     1.0000     0.1668     0.9999     0.9999    -0.0000
 44 C      6.7465     6.0000    -0.7465     4.0290     4.0290    -0.0000
 45 H      0.8630     1.0000     0.1370     0.9956     0.9956     0.0000
 46 H      0.8658     1.0000     0.1342     0.9564     0.9564     0.0000
 47 H      0.9206     1.0000     0.0794     0.9726     0.9726    -0.0000
 48 C      6.5047     6.0000    -0.5047     4.0228     4.0228    -0.0000
 49 H      0.9225     1.0000     0.0775     1.0040     1.0040    -0.0000
 50 C      6.9229     6.0000    -0.9229     4.9444     4.9444    -0.0000
 51 H      0.8824     1.0000     0.1176     1.0705     1.0705    -0.0000
 52 H      0.9399     1.0000     0.0601     0.9922     0.9922     0.0000
 53 C      6.7155     6.0000    -0.7155     3.8716     3.8716     0.0000
 54 H      0.7841     1.0000     0.2159     1.1529     1.1529     0.0000
 55 H      0.8983     1.0000     0.1017     0.8306     0.8306    -0.0000
 56 H      0.7895     1.0000     0.2105     0.9864     0.9864    -0.0000
 57 C      5.0511     6.0000     0.9489     3.1373     3.1373    -0.0000
 58 H      0.9209     1.0000     0.0791     0.9680     0.9680    -0.0000
 59 H      0.8979     1.0000     0.1021     0.9514     0.9514     0.0000
 60 H      0.8348     1.0000     0.1652     0.9941     0.9941     0.0000
 61 C      6.6257     6.0000    -0.6257     4.0671     4.0671    -0.0000
 62 H      0.8787     1.0000     0.1213     1.0213     1.0213    -0.0000
 63 H      0.9103     1.0000     0.0897     0.9616     0.9616    -0.0000
 64 H      0.8961     1.0000     0.1039     0.9599     0.9599    -0.0000
 65 C      6.6680     6.0000    -0.6680     4.2095     4.2095    -0.0000
 66 H      0.8669     1.0000     0.1331     1.0127     1.0127    -0.0000
 67 H      0.9027     1.0000     0.0973     1.0435     1.0435    -0.0000
 68 H      0.9166     1.0000     0.0834     0.9926     0.9926    -0.0000

  Mayer bond orders larger than 0.100000
B(  0-W ,  1-C ) :   1.6061 B(  0-W ,  2-O ) :   0.1537 B(  0-W ,  3-C ) :   1.4064 
B(  0-W ,  4-O ) :   0.2954 B(  0-W ,  5-C ) :   1.1227 B(  0-W ,  6-O ) :   0.2090 
B(  0-W ,  8-C ) :   0.1224 B(  0-W , 10-C ) :   0.1715 B(  0-W , 15-P ) :   0.2483 
B(  0-W , 18-C ) :   0.3229 B(  0-W , 19-H ) :  -0.1509 B(  0-W , 50-C ) :   0.5179 
B(  1-C ,  2-O ) :   1.4576 B(  1-C ,  5-C ) :   0.3849 B(  1-C , 54-H ) :  -0.1116 
B(  3-C ,  4-O ) :   1.3051 B(  3-C ,  5-C ) :   0.1660 B(  3-C , 15-P ) :   0.1951 
B(  5-C ,  6-O ) :   1.5200 B(  5-C ,  7-P ) :   0.1682 B(  5-C , 14-C ) :  -0.1164 
B(  7-P ,  8-C ) :   0.7099 B(  7-P , 10-C ) :   0.5817 B(  7-P , 12-C ) :   0.6711 
B(  7-P , 15-P ) :  -0.1741 B(  7-P , 20-C ) :   0.1027 B(  7-P , 24-C ) :   0.1109 
B(  7-P , 28-C ) :   0.1073 B(  7-P , 36-C ) :   0.1064 B(  7-P , 40-C ) :   0.1297 
B(  7-P , 54-H ) :  -0.1027 B(  8-C ,  9-H ) :   0.7239 B(  8-C , 10-C ) :   0.4282 
B(  8-C , 12-C ) :   0.4587 B(  8-C , 36-C ) :   0.7167 B(  8-C , 40-C ) :   0.7855 
B( 10-C , 11-H ) :   0.7636 B( 10-C , 12-C ) :   0.3497 B( 10-C , 20-C ) :   0.7381 
B( 10-C , 24-C ) :   0.6483 B( 10-C , 40-C ) :   0.1587 B( 12-C , 13-H ) :   0.7067 
B( 12-C , 28-C ) :   0.6992 B( 12-C , 32-C ) :   0.7604 B( 12-C , 36-C ) :   0.2024 
B( 14-C , 15-P ) :   0.3828 B( 14-C , 17-H ) :   0.7312 B( 14-C , 18-C ) :   0.2412 
B( 14-C , 44-C ) :   0.6357 B( 14-C , 48-C ) :   0.6696 B( 14-C , 57-C ) :   0.2697 
B( 14-C , 61-C ) :   0.1136 B( 15-P , 16-H ) :  -0.1254 B( 15-P , 17-H ) :   0.1000 
B( 15-P , 18-C ) :   0.8159 B( 15-P , 19-H ) :   0.1245 B( 15-P , 44-C ) :   0.1104 
B( 15-P , 48-C ) :   0.1599 B( 15-P , 50-C ) :   0.2839 B( 15-P , 53-C ) :   0.1165 
B( 15-P , 57-C ) :   0.7897 B( 15-P , 61-C ) :   0.3401 B( 15-P , 62-H ) :   0.1034 
B( 15-P , 65-C ) :   0.3487 B( 16-H , 57-C ) :   0.7830 B( 18-C , 19-H ) :   0.6868 
B( 18-C , 44-C ) :   0.1016 B( 18-C , 57-C ) :   0.2806 B( 18-C , 61-C ) :   0.4610 
B( 18-C , 65-C ) :   0.6264 B( 20-C , 21-H ) :   0.9116 B( 20-C , 22-H ) :   0.9775 
B( 20-C , 23-H ) :   0.9932 B( 20-C , 24-C ) :   0.2297 B( 24-C , 25-H ) :   0.9718 
B( 24-C , 26-H ) :   0.9909 B( 24-C , 27-H ) :   0.9334 B( 28-C , 29-H ) :   0.9164 
B( 28-C , 30-H ) :   0.9834 B( 28-C , 31-H ) :   0.9688 B( 28-C , 32-C ) :   0.2223 
B( 32-C , 33-H ) :   0.9087 B( 32-C , 34-H ) :   1.0001 B( 32-C , 35-H ) :   0.9602 
B( 36-C , 37-H ) :   0.8803 B( 36-C , 38-H ) :   0.9453 B( 36-C , 39-H ) :   0.9966 
B( 36-C , 40-C ) :   0.1609 B( 40-C , 41-H ) :   0.9824 B( 40-C , 42-H ) :   0.9404 
B( 40-C , 43-H ) :   0.8737 B( 44-C , 45-H ) :   0.9725 B( 44-C , 46-H ) :   0.9826 
B( 44-C , 47-H ) :   0.9716 B( 44-C , 48-C ) :   0.1943 B( 48-C , 49-H ) :   0.9548 
B( 48-C , 51-H ) :   1.0383 B( 48-C , 52-H ) :   0.9383 B( 50-C , 53-C ) :   0.2504 
B( 50-C , 54-H ) :   1.2624 B( 50-C , 55-H ) :   0.6973 B( 50-C , 56-H ) :   1.0102 
B( 50-C , 57-C ) :   0.5683 B( 53-C , 57-C ) :   0.4931 B( 53-C , 58-H ) :   0.9694 
B( 53-C , 59-H ) :   1.0045 B( 53-C , 60-H ) :   0.9794 B( 61-C , 62-H ) :   0.9788 
B( 61-C , 63-H ) :   0.9353 B( 61-C , 64-H ) :   0.9932 B( 61-C , 65-C ) :   0.2083 
B( 65-C , 66-H ) :   1.0172 B( 65-C , 67-H ) :   0.9577 B( 65-C , 68-H ) :   0.9409 


-------
TIMINGS
-------

Total SCF time: 0 days 0 hours 2 min 6 sec 

Total time                  ....     126.052 sec
Sum of individual times     ....     122.106 sec  ( 96.9%)

Fock matrix formation       ....      94.792 sec  ( 75.2%)
  Split-RI-J                ....      35.320 sec  ( 37.3% of F)
  XC integration            ....      56.952 sec  ( 60.1% of F)
    Basis function eval.    ....       4.886 sec  (  8.6% of XC)
    Density eval.           ....      24.465 sec  ( 43.0% of XC)
    XC-Functional eval.     ....       0.291 sec  (  0.5% of XC)
    XC-Potential eval.      ....      21.756 sec  ( 38.2% of XC)
Diagonalization             ....       7.851 sec  (  6.2%)
Density matrix formation    ....       0.547 sec  (  0.4%)
Population analysis         ....       1.006 sec  (  0.8%)
Initial guess               ....       5.068 sec  (  4.0%)
Orbital Transformation      ....       0.000 sec  (  0.0%)
Orbital Orthonormalization  ....       0.000 sec  (  0.0%)
DIIS solution               ....      11.050 sec  (  8.8%)
Grid generation             ....       1.792 sec  (  1.4%)


-------------------------------------------------------------------------------
                          DFT DISPERSION CORRECTION                            
                                                                               
                              DFTD3 V3.1  Rev 1                                
                          USING Becke-Johnson damping                          
-------------------------------------------------------------------------------
The TPSS functional is recognized
Active option DFTDOPT                   ...         4   

molecular C6(AA) [au] = 50197.659412 


            DFT-D V3
 parameters
 s6 scaling factor         :     1.0000 
 a1 scaling factor         :     0.4535 
 s8 scaling factor         :     1.9435 
 a2 scaling factor         :     4.4752 
 ad hoc parameters k1-k3   :    16.0000     1.3333    -4.0000 

 Edisp/kcal,au: -94.306990873692  -0.150287740205 
 E6   /kcal   : -45.318310090 
 E8   /kcal   : -48.988680784 
 % E8         :  51.945969572 

-------------------------   ----------------
Dispersion correction           -0.150287740
-------------------------   ----------------


-------------------------   --------------------
FINAL SINGLE POINT ENERGY     -1801.969536092133
-------------------------   --------------------


                            ***************************************
                            *     ORCA property calculations      *
                            ***************************************

                                    ---------------------
                                    Active property flags
                                    ---------------------
   (+) Dipole Moment


------------------------------------------------------------------------------
                       ORCA ELECTRIC PROPERTIES CALCULATION
------------------------------------------------------------------------------

Dipole Moment Calculation                       ... on
Quadrupole Moment Calculation                   ... off
Polarizability Calculation                      ... off
GBWName                                         ... MOR09_ed07.gbw
Electron density file                           ... MOR09_ed07.scfp
The origin for moment calculation is the CENTER OF MASS  = ( 0.024778,  0.027164 -0.048519)

-------------
DIPOLE MOMENT
-------------
                                X             Y             Z
Electronic contribution:     17.81020      16.10691     -20.07797
Nuclear contribution   :    -17.42159     -16.73751      21.91193
                        -----------------------------------------
Total Dipole Moment    :      0.38861      -0.63060       1.83396
                        -----------------------------------------
Magnitude (a.u.)       :      1.97790
Magnitude (Debye)      :      5.02741



--------------------
Rotational spectrum 
--------------------
 
Rotational constants in cm-1:     0.007992     0.003859     0.003786 
Rotational constants in MHz :   239.602072   115.683770   113.510152 

 Dipole components along the rotational axes: 
x,y,z [a.u.] :     0.389653    -0.477032     1.879543 
x,y,z [Debye]:     0.990419    -1.212518     4.777418 

 

Timings for individual modules:

Sum of individual times         ...      140.821 sec (=   2.347 min)
GTO integral calculation        ...       14.332 sec (=   0.239 min)  10.2 %
SCF iterations                  ...      126.489 sec (=   2.108 min)  89.8 %
                             ****ORCA TERMINATED NORMALLY****
TOTAL RUN TIME: 0 days 0 hours 2 minutes 21 seconds 852 msec
