
                                 *****************
                                 * O   R   C   A *
                                 *****************

           --- An Ab Initio, DFT and Semiempirical electronic structure package ---

                  #######################################################
                  #                        -***-                        #
                  #          Department of theory and spectroscopy      #
                  #               Directorship: Frank Neese             #
                  #        Max Planck Institute fuer Kohlenforschung    #
                  #                Kaiser Wilhelm Platz 1               #
                  #                 D-45470 Muelheim/Ruhr               #
                  #                      Germany                        #
                  #                                                     #
                  #                  All rights reserved                #
                  #                        -***-                        #
                  #######################################################


                         Program Version 4.2.0 -  RELEASE  -


 With contributions from (in alphabetic order):
   Daniel Aravena         : Magnetic Suceptibility
   Michael Atanasov       : Ab Initio Ligand Field Theory (pilot matlab implementation)
   Alexander A. Auer      : GIAO ZORA, VPT2
   Ute Becker             : Parallelization
   Giovanni Bistoni       : ED, misc. LED, open-shell LED, HFLED
   Martin Brehm           : Molecular dynamics
   Dmytro Bykov           : SCF Hessian
   Vijay G. Chilkuri      : MRCI spin determinant printing, contributions to CSF-ICE
   Dipayan Datta          : RHF DLPNO-CCSD density
   Achintya Kumar Dutta   : EOM-CC, STEOM-CC
   Dmitry Ganyushin       : Spin-Orbit,Spin-Spin,Magnetic field MRCI
   Miquel Garcia          : C-PCM Hessian, Gaussian charge scheme
   Yang Guo               : DLPNO-NEVPT2, CIM, IAO-localization
   Andreas Hansen         : Spin unrestricted coupled pair/coupled cluster methods
   Benjamin Helmich-Paris : CASSCF linear response (MC-RPA)
   Lee Huntington         : MR-EOM, pCC
   Robert Izsak           : Overlap fitted RIJCOSX, COSX-SCS-MP3, EOM
   Christian Kollmar      : KDIIS, OOCD, Brueckner-CCSD(T), CCSD density
   Simone Kossmann        : Meta GGA functionals, TD-DFT gradient, OOMP2, MP2 Hessian
   Martin Krupicka        : AUTO-CI
   Lucas Lang             : DCDCAS
   Dagmar Lenk            : GEPOL surface, SMD
   Dimitrios Liakos       : Extrapolation schemes; Compound Job, initial MDCI parallelization
   Dimitrios Manganas     : Further ROCIS development; embedding schemes
   Dimitrios Pantazis     : SARC Basis sets
   Taras Petrenko         : DFT Hessian,TD-DFT gradient, ASA, ECA, R-Raman, ABS, FL, XAS/XES, NRVS
   Peter Pinski           : DLPNO-MP2, DLPNO-MP2 Gradient
   Christoph Reimann      : Effective Core Potentials
   Marius Retegan         : Local ZFS, SOC
   Christoph Riplinger    : Optimizer, TS searches, QM/MM, DLPNO-CCSD(T), (RO)-DLPNO pert. Triples
   Tobias Risthaus        : Range-separated hybrids, TD-DFT gradient, RPA, STAB
   Michael Roemelt        : Original ROCIS implementation
   Masaaki Saitow         : Open-shell DLPNO-CCSD energy and density
   Barbara Sandhoefer     : DKH picture change effects
   Avijit Sen             : IP-ROCIS
   Kantharuban Sivalingam : CASSCF convergence, NEVPT2, FIC-MRCI
   Bernardo de Souza      : ESD, SOC TD-DFT
   Georgi Stoychev        : AutoAux, RI-MP2 NMR
   Willem Van den Heuvel  : Paramagnetic NMR
   Boris Wezisla          : Elementary symmetry handling
   Frank Wennmohs         : Technical directorship


 We gratefully acknowledge several colleagues who have allowed us to
 interface, adapt or use parts of their codes:
   Stefan Grimme, W. Hujo, H. Kruse,             : VdW corrections, initial TS optimization,
                  C. Bannwarth                     DFT functionals, gCP, sTDA/sTD-DF
   Ed Valeev, F. Pavosevic, A. Kumar             : LibInt (2-el integral package), F12 methods
   Garnet Chan, S. Sharma, J. Yang, R. Olivares  : DMRG
   Ulf Ekstrom                                   : XCFun DFT Library
   Mihaly Kallay                                 : mrcc  (arbitrary order and MRCC methods)
   Andreas Klamt, Michael Diedenhofen            : otool_cosmo (COSMO solvation model)
   Jiri Pittner, Ondrej Demel                    : Mk-CCSD
   Frank Weinhold                                : gennbo (NPA and NBO analysis)
   Christopher J. Cramer and Donald G. Truhlar   : smd solvation model
   Lars Goerigk                                  : TD-DFT with DH, B97 family of functionals
   V. Asgeirsson, H. Jonsson                     : NEB implementation
   FAccTs GmbH                                   : IRC, NEB, NEB-TS, Multilevel, MM, QM/MM, CI optimization
   S Lehtola, MJT Oliveira, MAL Marques          : LibXC Library


 Your calculation uses the libint2 library for the computation of 2-el integrals
 For citations please refer to: http://libint.valeyev.net

 Your ORCA version has been built with support for libXC version: 4.2.3
 For citations please refer to: https://tddft.org/programs/libxc/

 This ORCA versions uses:
   CBLAS   interface :  Fast vector & matrix operations
   LAPACKE interface :  Fast linear algebra routines
   SCALAPACK package :  Parallel linear algebra routines


Your calculation utilizes the atom-pairwise dispersion correction
with the Becke-Johnson damping scheme (D3BJ)
Cite in your paper:
S.Grimme, S.Ehrlich, L.Goerigk, J Comput Chem, (2011), 32, 1456–1465 
S.Grimme, J.Antony, S.Ehrlich and H.Krieg, J.Chem.Phys., 132, (2010), 154104 
   

----- Orbital basis set information -----
Your calculation utilizes the basis: def2-TZVPPD
   F. Weigend and R. Ahlrichs, Phys. Chem. Chem. Phys. 7, 3297 (2005).
   D. Rappoport and F. Furche, J. Chem. Phys. 133 134105 (2010).

----- AuxJ basis set information -----
Your calculation utilizes the auxiliary basis: def2/J
   F. Weigend, Phys. Chem. Chem. Phys. 8, 1057 (2006).

cite the ECPs for Mo [Def2-ECP] as follows:
Ce-Yb(ecp-28): M. Dolg, H. Stoll, H.Preuss, J. Chem. Phys., 1989, 90, 1730-1734.
Y-Cd(ecp-28), Hf-Hg(ecp-46): D. Andrae,U. Haeussermann, M. Dolg, H. Stoll, H. Preuss, Theor. Chim. Acta, 1990, 77, 123-141.
In-Sb(ecp-28), Tl-Bi(ecp-46): B. Metz, H. Stoll, M. Dolg, J. Chem. Phys., 2000, 113, 2563-2569.
Te-Xe(ecp-28), Po-Rn(ecp-46): K. A. Peterson, D. Figgen, E. Goll, H. Stoll, M. Dolg, J. Chem. Phys., 2003, 119, 11113-11123.
Rb(ecp-28), Cs(ecp-46): T. Leininger, A. Nicklass, W. Kuechle, H. Stoll, M. Dolg, A. Bergner, Chem. Phys. Lett., 1996, 255, 274-280.
Sr(ecp-28), Ba(ecp-46): M. Kaupp, P. V. Schleyer, H. Stoll and H. Preuss, J. Chem. Phys., 1991, 94, 1360-1366.
La(ecp-46): M. Dolg, H. Stoll, A. Savin, H. Preuss, Theor. Chim. Acta, 1989, 75, 173-194.
Lu(ecp-28): X. Cao, M. Dolg, J. Chem. Phys., 2001, 115, 7348-7355.

ECP parameters for Mo [Def2-ECP] have been obtained from:
TURBOMOLE (7.0.2)

================================================================================
                                        WARNINGS
                       Please study these warnings very carefully!
================================================================================


INFO   : the flag for use of LIBINT has been found!

================================================================================
                                       INPUT FILE
================================================================================
NAME = MOR18_ed37.in
|  1> #
|  2> # MOR18_ed37 TPSS-D3BJ/Def2-TZVPPD
|  3> #
|  4> ! tpss d3bj def2-tzvppd def2/j grid4 nofinalgrid
|  5> 
|  6> *xyz 0 1
|  7> Mo      -0.098072   -0.000113   -0.000040 
|  8> O       -1.958568   -1.162297    2.254949 
|  9> C       -1.292076   -0.726548    1.409379 
| 10> C       -1.290510    1.584735   -0.075353 
| 11> O       -1.955816    2.535729   -0.120716 
| 12> C       -1.292074   -0.856985   -1.334180 
| 13> O       -1.958517   -1.371361   -2.134397 
| 14> C        1.772262   -1.255233   -0.664863 
| 15> C        1.773533   -1.210923    0.743855 
| 16> C        1.772126    0.051067    1.419259 
| 17> C        1.773764    1.248901    0.676519 
| 18> C        1.772513    1.202801   -0.754108 
| 19> C        1.773865   -0.039338   -1.420099 
| 20> H        1.752441   -2.209415   -1.178166 
| 21> H        1.754475   -2.130485    1.316775 
| 22> H        1.752160    0.083668    2.502258 
| 23> H        1.754801    2.204840    1.186440 
| 24> H        1.752821    2.124408   -1.323840 
| 25> H        1.755108   -0.075692   -2.502938 
| 26> *
| 27> 
| 28> %maxcore 5000
| 29> 
| 30> %pal
| 31> nprocs = 24
| 32> end
| 33> 
| 34> 
| 35>                          ****END OF INPUT****
================================================================================

                       ****************************
                       * Single Point Calculation *
                       ****************************

---------------------------------
CARTESIAN COORDINATES (ANGSTROEM)
---------------------------------
  Mo    -0.098072   -0.000113   -0.000040
  O     -1.958568   -1.162297    2.254949
  C     -1.292076   -0.726548    1.409379
  C     -1.290510    1.584735   -0.075353
  O     -1.955816    2.535729   -0.120716
  C     -1.292074   -0.856985   -1.334180
  O     -1.958517   -1.371361   -2.134397
  C      1.772262   -1.255233   -0.664863
  C      1.773533   -1.210923    0.743855
  C      1.772126    0.051067    1.419259
  C      1.773764    1.248901    0.676519
  C      1.772513    1.202801   -0.754108
  C      1.773865   -0.039338   -1.420099
  H      1.752441   -2.209415   -1.178166
  H      1.754475   -2.130485    1.316775
  H      1.752160    0.083668    2.502258
  H      1.754801    2.204840    1.186440
  H      1.752821    2.124408   -1.323840
  H      1.755108   -0.075692   -2.502938

----------------------------
CARTESIAN COORDINATES (A.U.)
----------------------------
  NO LB      ZA    FRAG     MASS         X           Y           Z
   0 Mo   14.0000*   0    95.940   -0.185329   -0.000214   -0.000076
   1 O     8.0000    0    15.999   -3.701157   -2.196423    4.261236
   2 C     6.0000    0    12.011   -2.441670   -1.372977    2.663340
   3 C     6.0000    0    12.011   -2.438710    2.994715   -0.142397
   4 O     8.0000    0    15.999   -3.695957    4.791833   -0.228120
   5 C     6.0000    0    12.011   -2.441666   -1.619467   -2.521235
   6 O     8.0000    0    15.999   -3.701061   -2.591497   -4.033426
   7 C     6.0000    0    12.011    3.349090   -2.372047   -1.256409
   8 C     6.0000    0    12.011    3.351492   -2.288313    1.405682
   9 C     6.0000    0    12.011    3.348833    0.096503    2.682011
  10 C     6.0000    0    12.011    3.351928    2.360081    1.278436
  11 C     6.0000    0    12.011    3.349564    2.272964   -1.425058
  12 C     6.0000    0    12.011    3.352119   -0.074338   -2.683598
  13 H     1.0000    0     1.008    3.311634   -4.175189   -2.226411
  14 H     1.0000    0     1.008    3.315477   -4.026033    2.488344
  15 H     1.0000    0     1.008    3.311103    0.158110    4.728582
  16 H     1.0000    0     1.008    3.316093    4.166544    2.242047
  17 H     1.0000    0     1.008    3.312352    4.014549   -2.501695
  18 H     1.0000    0     1.008    3.316673   -0.143037   -4.729867
* core charge reduced due to ECP

--------------------------------
INTERNAL COORDINATES (ANGSTROEM)
--------------------------------
 Mo     0   0   0     0.000000000000     0.00000000     0.00000000
 O      1   0   0     3.145964463562     0.00000000     0.00000000
 C      2   1   0     1.161497913027     1.23868826     0.00000000
 C      1   2   3     1.984772937874    88.10193366    43.93927960
 O      4   1   2     1.161498800448   178.01893710   135.91090635
 C      1   2   3     1.984892929099    88.08371754   316.29683443
 O      6   1   2     1.161497390748   178.03348865   224.82629337
 C      1   2   3     2.348502737338   118.45449497   223.54759822
 C      8   1   2     1.409415267075    72.60080526   312.03971579
 C      9   8   1     1.431359948778   119.95673606   303.49312701
 C     10   9   8     1.409422464061   120.04287915   359.79840826
 C     11  10   9     1.431370108718   119.95603609     0.19974633
 C     12  11  10     1.409416593952   120.04419158   359.80182932
 H      8   1   2     1.083667906221   126.16393490    66.96579729
 H      9   8   1     1.083602697306   120.11658095   122.20332518
 H     10   9   8     1.083673521111   119.87504897   178.72275538
 H     11  10   9     1.083604352765   120.11522199   178.90572724
 H     12  11  10     1.083670516872   119.87407376   178.72226627
 H     13  12  11     1.083611433257   120.11540082   178.91113676

---------------------------
INTERNAL COORDINATES (A.U.)
---------------------------
 Mo     0   0   0     0.000000000000     0.00000000     0.00000000
 O      1   0   0     5.945011263180     0.00000000     0.00000000
 C      2   1   0     2.194912960741     1.23868826     0.00000000
 C      1   2   3     3.750677290600    88.10193366    43.93927960
 O      4   1   2     2.194914637724   178.01893710   135.91090635
 C      1   2   3     3.750904041154    88.08371754   316.29683443
 O      6   1   2     2.194911973778   178.03348865   224.82629337
 C      1   2   3     4.438026998334   118.45449497   223.54759822
 C      8   1   2     2.663408863740    72.60080526   312.03971579
 C      9   8   1     2.704878302253   119.95673606   303.49312701
 C     10   9   8     2.663422464072   120.04287915   359.79840826
 C     11  10   9     2.704897501757   119.95603609     0.19974633
 C     12  11  10     2.663411371173   120.04419158   359.80182932
 H      8   1   2     2.047835562878   126.16393490    66.96579729
 H      9   8   1     2.047712335886   120.11658095   122.20332518
 H     10   9   8     2.047846173483   119.87504897   178.72275538
 H     11  10   9     2.047715464251   120.11522199   178.90572724
 H     12  11  10     2.047840496292   119.87407376   178.72226627
 H     13  12  11     2.047728844442   120.11540082   178.91113676

---------------------
BASIS SET INFORMATION
---------------------
There are 4 groups of distinct atoms

 Group   1 Type Mo  : 7s7p5d2f1g contracted to 6s4p3d2f1g pattern {211111/4111/311/11/1}
 Group   2 Type O   : 12s7p3d1f contracted to 6s4p3d1f pattern {621111/4111/111/1}
 Group   3 Type C   : 12s6p3d1f contracted to 6s3p3d1f pattern {621111/411/111/1}
 Group   4 Type H   : 5s3p1d contracted to 3s3p1d pattern {311/111/1}

Atom   0Mo   basis set group =>   1
Atom   1O    basis set group =>   2
Atom   2C    basis set group =>   3
Atom   3C    basis set group =>   3
Atom   4O    basis set group =>   2
Atom   5C    basis set group =>   3
Atom   6O    basis set group =>   2
Atom   7C    basis set group =>   3
Atom   8C    basis set group =>   3
Atom   9C    basis set group =>   3
Atom  10C    basis set group =>   3
Atom  11C    basis set group =>   3
Atom  12C    basis set group =>   3
Atom  13H    basis set group =>   4
Atom  14H    basis set group =>   4
Atom  15H    basis set group =>   4
Atom  16H    basis set group =>   4
Atom  17H    basis set group =>   4
Atom  18H    basis set group =>   4
---------------------------------
AUXILIARY/J BASIS SET INFORMATION
---------------------------------
There are 4 groups of distinct atoms

 Group   1 Type Mo  : 11s5p5d3f3g contracted to 8s5p5d2f3g pattern {41111111/11111/11111/21/111}
 Group   2 Type O   : 12s5p4d2f1g contracted to 6s4p3d1f1g pattern {711111/2111/211/2/1}
 Group   3 Type C   : 12s5p4d2f1g contracted to 6s4p3d1f1g pattern {711111/2111/211/2/1}
 Group   4 Type H   : 5s2p1d contracted to 3s1p1d pattern {311/2/1}

Atom   0Mo   basis set group =>   1
Atom   1O    basis set group =>   2
Atom   2C    basis set group =>   3
Atom   3C    basis set group =>   3
Atom   4O    basis set group =>   2
Atom   5C    basis set group =>   3
Atom   6O    basis set group =>   2
Atom   7C    basis set group =>   3
Atom   8C    basis set group =>   3
Atom   9C    basis set group =>   3
Atom  10C    basis set group =>   3
Atom  11C    basis set group =>   3
Atom  12C    basis set group =>   3
Atom  13H    basis set group =>   4
Atom  14H    basis set group =>   4
Atom  15H    basis set group =>   4
Atom  16H    basis set group =>   4
Atom  17H    basis set group =>   4
Atom  18H    basis set group =>   4
-------------------------
ECP PARAMETER INFORMATION
-------------------------

 Group 1, Type Mo ECP Def2-ECP (replacing 28 core electrons, lmax=3)

Atom   0Mo   ECP group =>   1



           ************************************************************
           *        Program running with 24 parallel MPI-processes    *
           *              working on a common directory               *
           ************************************************************
------------------------------------------------------------------------------
                           ORCA GTO INTEGRAL CALCULATION
                           -- RI-GTO INTEGRALS CHOSEN --
------------------------------------------------------------------------------

                         BASIS SET STATISTICS AND STARTUP INFO

Gaussian basis set:
 # of primitive gaussian shells          ...  343
 # of primitive gaussian functions       ...  823
 # of contracted shells                  ...  217
 # of contracted basis functions         ...  611
 Highest angular momentum                ...    4
 Maximum contraction depth               ...    6
Auxiliary gaussian basis set:
 # of primitive gaussian shells          ...  363
 # of primitive gaussian functions       ... 1035
 # of contracted shells                  ...  233
 # of contracted aux-basis functions     ...  743
 Highest angular momentum                ...    4
 Maximum contraction depth               ...    7
Ratio of auxiliary to basis functions    ...  1.22
Integral package used                  ... LIBINT
 One Electron integrals                  
   ECP integrals                         ... done
 Ordering auxiliary basis shells         ... done
 Integral threshhold             Thresh  ...  1.000e-10
 Primitive cut-off               TCut    ...  1.000e-11
 Pre-screening matrix                    ... done
 Shell pair data                         ... 
 Ordering of the shell pairs             ... done (   0.004 sec) 21290 of 23653 pairs
 Determination of significant pairs      ... done (   0.000 sec)
 Creation of shell pair data             ... done (   0.002 sec)
 Storage of shell pair data              ... done (   0.019 sec)
 Shell pair data done in (   0.024 sec)
 Computing two index integrals           ... done
 Cholesky decomposition of the V-matrix  ... done


Timings:
 Total evaluation time                   ...   2.050 sec (  0.034 min)
 One electron matrix time                ...   1.701 sec (  0.028 min) = 83.0%
 Schwartz matrix evaluation time         ...   0.271 sec (  0.005 min) = 13.2%
 Two index repulsion integral time       ...   0.012 sec (  0.000 min) =  0.6%
 Cholesky decomposition of V             ...   0.009 sec (  0.000 min) =  0.4%
 Three index repulsion integral time     ...   0.000 sec (  0.000 min) =  0.0%



           ************************************************************
           *        Program running with 24 parallel MPI-processes    *
           *              working on a common directory               *
           ************************************************************
-------------------------------------------------------------------------------
                                 ORCA SCF
-------------------------------------------------------------------------------

------------
SCF SETTINGS
------------
Hamiltonian:
 Density Functional     Method          .... DFT(GTOs)
 Exchange Functional    Exchange        .... TPSS
 Correlation Functional Correlation     .... TPSS
 LDA part of GGA corr.  LDAOpt          .... PW91-LDA
 Gradients option       PostSCFGGA      .... off
   Density functional embedding theory  .... OFF
   NL short-range parameter             ....  5.000000
 RI-approximation to the Coulomb term is turned on
   Number of auxiliary basis functions  .... 743


General Settings:
 Integral files         IntName         .... MOR18_ed37
 Hartree-Fock type      HFTyp           .... RHF
 Total Charge           Charge          ....    0
 Multiplicity           Mult            ....    1
 Number of Electrons    NEL             ....   98
 Basis Dimension        Dim             ....  611
 Nuclear Repulsion      ENuc            ....    825.0254848324 Eh

Convergence Acceleration:
 DIIS                   CNVDIIS         .... on
   Start iteration      DIISMaxIt       ....    12
   Startup error        DIISStart       ....  0.200000
   # of expansion vecs  DIISMaxEq       ....     5
   Bias factor          DIISBfac        ....   1.050
   Max. coefficient     DIISMaxC        ....  10.000
 Newton-Raphson         CNVNR           .... off
 SOSCF                  CNVSOSCF        .... off
 Level Shifting         CNVShift        .... on
   Level shift para.    LevelShift      ....    0.2500
   Turn off err/grad.   ShiftErr        ....    0.0010
 Zerner damping         CNVZerner       .... off
 Static damping         CNVDamp         .... on
   Fraction old density DampFac         ....    0.7000
   Max. Damping (<1)    DampMax         ....    0.9800
   Min. Damping (>=0)   DampMin         ....    0.0000
   Turn off err/grad.   DampErr         ....    0.1000
 Fernandez-Rico         CNVRico         .... off

SCF Procedure:
 Maximum # iterations   MaxIter         ....   125
 SCF integral mode      SCFMode         .... Direct
   Integral package                     .... LIBINT
 Reset frequency        DirectResetFreq ....    20
 Integral Threshold     Thresh          ....  1.000e-10 Eh
 Primitive CutOff       TCut            ....  1.000e-11 Eh

Convergence Tolerance:
 Convergence Check Mode ConvCheckMode   .... Total+1el-Energy
 Convergence forced     ConvForced      .... 0
 Energy Change          TolE            ....  1.000e-06 Eh
 1-El. energy change                    ....  1.000e-03 Eh
 DIIS Error             TolErr          ....  1.000e-06


Diagonalization of the overlap matrix:
Smallest eigenvalue                        ... 5.320e-07
Time for diagonalization                   ...    0.053 sec
Threshold for overlap eigenvalues          ... 1.000e-08
Number of eigenvalues below threshold      ... 0
Time for construction of square roots      ...    0.061 sec
Total time needed                          ...    0.116 sec

-------------------
DFT GRID GENERATION
-------------------

General Integration Accuracy     IntAcc      ...  4.670
Radial Grid Type                 RadialGrid  ... Gauss-Chebyshev
Angular Grid (max. acc.)         AngularGrid ... Lebedev-302
Angular grid pruning method      GridPruning ... 3 (G Style)
Weight generation scheme         WeightScheme... Becke
Basis function cutoff            BFCut       ...    1.0000e-10
Integration weight cutoff        WCut        ...    1.0000e-14
Grids for H and He will be reduced by one unit

# of grid points (after initial pruning)     ... 105506 (   0.0 sec)
# of grid points (after weights+screening)   ...  95094 (   0.0 sec)
nearest neighbour list constructed           ...    0.0 sec
Grid point re-assignment to atoms done       ...    0.0 sec
Grid point division into batches done        ...    0.4 sec
Reduced shell lists constructed in    0.4 sec

Total number of grid points                  ...    95094
Total number of batches                      ...     1495
Average number of points per batch           ...       63
Average number of grid points per atom       ...     5005
Average number of shells per batch           ...   166.88 (76.90%)
Average number of basis functions per batch  ...   493.62 (80.79%)
Average number of large shells per batch     ...   138.78 (83.16%)
Average number of large basis fcns per batch ...   406.22 (82.29%)
Maximum spatial batch extension              ...   1.75,  2.08,  1.82 au
Average spatial batch extension              ...   0.05,  0.05,  0.05 au

Time for grid setup =    0.498 sec

------------------------------
INITIAL GUESS: MODEL POTENTIAL
------------------------------
Loading Hartree-Fock densities                     ... done
  calling /sw/apps/orca/orca_4_2_0_linux_x86-64_openmpi314/orca MOR18_ed37_atom42.inp > MOR18_ed37_atom42.out in order to generate an atomic fitting density for atom 0 (Mo with ECP) on-the-fly... 
    atom 0 (Mo), assumed electronic state with S=5: 1s2 2s2 2p6 3s2 3p6 4s2 3d10 4p6 5s2 4d4           ... done
Calculating cut-offs                               ... done
Setting up the integral package                    ... done
Initializing the effective Hamiltonian             ... done
Starting the Coulomb interaction                   ... done (   0.1 sec)
Reading the grid                                   ... done
Mapping shells                                     ... done
Starting the XC term evaluation                    ... done (   0.3 sec)
  promolecular density results
     # of electrons  =    125.997283646
     EX              =   -191.493351150
     EC              =     -4.971876440
     EX+EC           =   -196.465227590
Transforming the Hamiltonian                       ... done (   0.0 sec)
Diagonalizing the Hamiltonian                      ... done (   0.1 sec)
Back transforming the eigenvectors                 ... done (   0.0 sec)
Now organizing SCF variables                       ... done
                      ------------------
                      INITIAL GUESS DONE (   2.8 sec)
                      ------------------
--------------
SCF ITERATIONS
--------------
ITER       Energy         Delta-E        Max-DP      RMS-DP      [F,P]     Damp
               ***  Starting incremental Fock matrix formation  ***
  0   -640.6120622424   0.000000000000 0.12862074  0.00116483  0.4407711 0.7000
  1   -640.7657790443  -0.153716801882 0.06799866  0.00090153  0.2877354 0.7000
                               ***Turning on DIIS***
  2   -640.8050330320  -0.039253987727 0.06807250  0.00083137  0.1917449 0.7000
  3   -640.8386272324  -0.033594200439 0.07507900  0.00075967  0.1365340 0.7000
  4   -640.8616907865  -0.023063554101 0.17713957  0.00177231  0.0968105 0.0000
  5   -640.9130831700  -0.051392383459 0.01347045  0.00013283  0.0060365 0.0000
  6   -640.9131846906  -0.000101520652 0.00341822  0.00004321  0.0052729 0.0000
  7   -640.9132840925  -0.000099401888 0.00252909  0.00002430  0.0013640 0.0000
  8   -640.9132947848  -0.000010692265 0.00693860  0.00004487  0.0007993 0.0000
  9   -640.9132972319  -0.000002447149 0.00265315  0.00001905  0.0003245 0.0000
                 **** Energy Check signals convergence ****

               *****************************************************
               *                     SUCCESS                       *
               *           SCF CONVERGED AFTER  10 CYCLES          *
               *****************************************************


----------------
TOTAL SCF ENERGY
----------------

Total Energy       :         -640.91329758 Eh          -17440.13747 eV

Components:
Nuclear Repulsion  :          825.02548483 Eh           22450.08478 eV
Electronic Energy  :        -1465.93878241 Eh          -39890.22225 eV
One Electron Energy:        -2533.17798353 Eh          -68931.27733 eV
Two Electron Energy:         1067.23920112 Eh           29041.05508 eV

Virial components:
Potential Energy   :        -1234.47768470 Eh          -33591.84558 eV
Kinetic Energy     :          593.56438712 Eh           16151.70811 eV
Virial Ratio       :            2.07977047


DFT components:
N(Alpha)           :       48.999915228521 electrons
N(Beta)            :       48.999915228521 electrons
N(Total)           :       97.999830457042 electrons
E(X)               :      -81.356736580975 Eh       
E(C)               :       -3.407447851453 Eh       
E(XC)              :      -84.764184432429 Eh       
DFET-embed. en.    :        0.000000000000 Eh       

---------------
SCF CONVERGENCE
---------------

  Last Energy change         ...   -3.4583e-07  Tolerance :   1.0000e-06
  Last MAX-Density change    ...    2.3866e-03  Tolerance :   1.0000e-05
  Last RMS-Density change    ...    2.0646e-05  Tolerance :   1.0000e-06
  Last DIIS Error            ...    1.8187e-04  Tolerance :   1.0000e-06

             **** THE GBW FILE WAS UPDATED (MOR18_ed37.gbw) ****
             **** DENSITY FILE WAS UPDATED (MOR18_ed37.scfp) ****
             **** ENERGY FILE WAS UPDATED (MOR18_ed37.en.tmp) ****
             **** THE GBW FILE WAS UPDATED (MOR18_ed37.gbw) ****
             **** DENSITY FILE WAS UPDATED (MOR18_ed37.scfp) ****
----------------
ORBITAL ENERGIES
----------------

  NO   OCC          E(Eh)            E(eV) 
   0   2.0000     -18.930859      -515.1349 
   1   2.0000     -18.930853      -515.1347 
   2   2.0000     -18.930846      -515.1345 
   3   2.0000     -10.069716      -274.0109 
   4   2.0000     -10.069711      -274.0108 
   5   2.0000     -10.069706      -274.0106 
   6   2.0000     -10.043526      -273.2982 
   7   2.0000     -10.043412      -273.2951 
   8   2.0000     -10.043407      -273.2950 
   9   2.0000     -10.042925      -273.2819 
  10   2.0000     -10.042922      -273.2818 
  11   2.0000     -10.042807      -273.2787 
  12   2.0000      -2.450954       -66.6939 
  13   2.0000      -1.492942       -40.6250 
  14   2.0000      -1.479685       -40.2643 
  15   2.0000      -1.479676       -40.2640 
  16   2.0000      -1.028733       -27.9932 
  17   2.0000      -1.028132       -27.9769 
  18   2.0000      -1.028130       -27.9768 
  19   2.0000      -0.845108       -22.9966 
  20   2.0000      -0.742468       -20.2036 
  21   2.0000      -0.742467       -20.2036 
  22   2.0000      -0.600641       -16.3443 
  23   2.0000      -0.600641       -16.3443 
  24   2.0000      -0.528203       -14.3731 
  25   2.0000      -0.505878       -13.7656 
  26   2.0000      -0.490157       -13.3379 
  27   2.0000      -0.490149       -13.3376 
  28   2.0000      -0.466042       -12.6817 
  29   2.0000      -0.444382       -12.0922 
  30   2.0000      -0.435628       -11.8540 
  31   2.0000      -0.435624       -11.8539 
  32   2.0000      -0.411452       -11.1962 
  33   2.0000      -0.395466       -10.7612 
  34   2.0000      -0.391877       -10.6635 
  35   2.0000      -0.391865       -10.6632 
  36   2.0000      -0.383355       -10.4316 
  37   2.0000      -0.383349       -10.4314 
  38   2.0000      -0.376447       -10.2436 
  39   2.0000      -0.369659       -10.0589 
  40   2.0000      -0.369647       -10.0586 
  41   2.0000      -0.358718        -9.7612 
  42   2.0000      -0.353492        -9.6190 
  43   2.0000      -0.353488        -9.6189 
  44   2.0000      -0.305357        -8.3092 
  45   2.0000      -0.305345        -8.3089 
  46   2.0000      -0.195321        -5.3150 
  47   2.0000      -0.195309        -5.3146 
  48   2.0000      -0.195147        -5.3102 
  49   0.0000      -0.082474        -2.2442 
  50   0.0000      -0.082467        -2.2440 
  51   0.0000      -0.041582        -1.1315 
  52   0.0000      -0.041575        -1.1313 
  53   0.0000      -0.028254        -0.7688 
  54   0.0000      -0.020831        -0.5668 
  55   0.0000      -0.003024        -0.0823 
  56   0.0000      -0.003000        -0.0816 
  57   0.0000       0.000299         0.0081 
  58   0.0000       0.016276         0.4429 
  59   0.0000       0.016294         0.4434 
  60   0.0000       0.020515         0.5583 
  61   0.0000       0.023999         0.6530 
  62   0.0000       0.024019         0.6536 
  63   0.0000       0.032243         0.8774 
  64   0.0000       0.032271         0.8781 
  65   0.0000       0.041725         1.1354 
  66   0.0000       0.045210         1.2302 
  67   0.0000       0.045238         1.2310 
  68   0.0000       0.046782         1.2730 
  69   0.0000       0.063789         1.7358 
  70   0.0000       0.075244         2.0475 
  71   0.0000       0.075804         2.0627 
  72   0.0000       0.075824         2.0633 
  73   0.0000       0.085910         2.3377 
  74   0.0000       0.085950         2.3388 
  75   0.0000       0.087044         2.3686 
  76   0.0000       0.102529         2.7900 
  77   0.0000       0.121413         3.3038 
  78   0.0000       0.121433         3.3044 
  79   0.0000       0.125953         3.4273 
  80   0.0000       0.132214         3.5977 
  81   0.0000       0.132250         3.5987 
  82   0.0000       0.136341         3.7100 
  83   0.0000       0.136359         3.7105 
  84   0.0000       0.151419         4.1203 
  85   0.0000       0.160449         4.3660 
  86   0.0000       0.160472         4.3667 
  87   0.0000       0.165337         4.4990 
  88   0.0000       0.167578         4.5600 
  89   0.0000       0.167663         4.5623 
  90   0.0000       0.174397         4.7456 
  91   0.0000       0.182289         4.9603 
  92   0.0000       0.183925         5.0048 
  93   0.0000       0.187001         5.0886 
  94   0.0000       0.187033         5.0894 
  95   0.0000       0.198628         5.4049 
  96   0.0000       0.198647         5.4054 
  97   0.0000       0.223852         6.0913 
  98   0.0000       0.223879         6.0921 
  99   0.0000       0.225959         6.1487 
 100   0.0000       0.227229         6.1832 
 101   0.0000       0.227278         6.1846 
 102   0.0000       0.238178         6.4812 
 103   0.0000       0.243876         6.6362 
 104   0.0000       0.243902         6.6369 
 105   0.0000       0.253714         6.9039 
 106   0.0000       0.254735         6.9317 
 107   0.0000       0.254769         6.9326 
 108   0.0000       0.266920         7.2633 
 109   0.0000       0.269626         7.3369 
 110   0.0000       0.274883         7.4800 
 111   0.0000       0.274991         7.4829 
 112   0.0000       0.284129         7.7315 
 113   0.0000       0.287460         7.8222 
 114   0.0000       0.287491         7.8230 
 115   0.0000       0.290046         7.8926 
 116   0.0000       0.297479         8.0948 
 117   0.0000       0.297545         8.0966 
 118   0.0000       0.300016         8.1638 
 119   0.0000       0.300055         8.1649 
 120   0.0000       0.306647         8.3443 
 121   0.0000       0.312829         8.5125 
 122   0.0000       0.312859         8.5133 
 123   0.0000       0.330918         9.0047 
 124   0.0000       0.331030         9.0078 
 125   0.0000       0.340341         9.2612 
 126   0.0000       0.344634         9.3780 
 127   0.0000       0.345749         9.4083 
 128   0.0000       0.345850         9.4111 
 129   0.0000       0.345961         9.4141 
 130   0.0000       0.351196         9.5565 
 131   0.0000       0.351252         9.5581 
 132   0.0000       0.357537         9.7291 
 133   0.0000       0.357554         9.7295 
 134   0.0000       0.361480         9.8364 
 135   0.0000       0.368562        10.0291 
 136   0.0000       0.376837        10.2543 
 137   0.0000       0.376850        10.2546 
 138   0.0000       0.385611        10.4930 
 139   0.0000       0.402469        10.9517 
 140   0.0000       0.407756        11.0956 
 141   0.0000       0.407814        11.0972 
 142   0.0000       0.425123        11.5682 
 143   0.0000       0.427483        11.6324 
 144   0.0000       0.436737        11.8842 
 145   0.0000       0.436802        11.8860 
 146   0.0000       0.452998        12.3267 
 147   0.0000       0.453288        12.3346 
 148   0.0000       0.461054        12.5459 
 149   0.0000       0.461090        12.5469 
 150   0.0000       0.461204        12.5500 
 151   0.0000       0.472200        12.8492 
 152   0.0000       0.485800        13.2193 
 153   0.0000       0.494420        13.4539 
 154   0.0000       0.494460        13.4549 
 155   0.0000       0.498737        13.5713 
 156   0.0000       0.498758        13.5719 
 157   0.0000       0.498891        13.5755 
 158   0.0000       0.507412        13.8074 
 159   0.0000       0.507769        13.8171 
 160   0.0000       0.507813        13.8183 
 161   0.0000       0.511672        13.9233 
 162   0.0000       0.511897        13.9294 
 163   0.0000       0.523460        14.2441 
 164   0.0000       0.523473        14.2444 
 165   0.0000       0.524406        14.2698 
 166   0.0000       0.528639        14.3850 
 167   0.0000       0.537835        14.6352 
 168   0.0000       0.537908        14.6372 
 169   0.0000       0.549129        14.9425 
 170   0.0000       0.550688        14.9850 
 171   0.0000       0.567170        15.4335 
 172   0.0000       0.567336        15.4380 
 173   0.0000       0.579207        15.7610 
 174   0.0000       0.586654        15.9637 
 175   0.0000       0.586733        15.9658 
 176   0.0000       0.592296        16.1172 
 177   0.0000       0.596197        16.2234 
 178   0.0000       0.599158        16.3039 
 179   0.0000       0.599311        16.3081 
 180   0.0000       0.613952        16.7065 
 181   0.0000       0.614102        16.7106 
 182   0.0000       0.619867        16.8674 
 183   0.0000       0.619925        16.8690 
 184   0.0000       0.626832        17.0570 
 185   0.0000       0.633467        17.2375 
 186   0.0000       0.633544        17.2396 
 187   0.0000       0.639023        17.3887 
 188   0.0000       0.645652        17.5691 
 189   0.0000       0.645721        17.5710 
 190   0.0000       0.648220        17.6390 
 191   0.0000       0.653600        17.7854 
 192   0.0000       0.666747        18.1431 
 193   0.0000       0.666873        18.1465 
 194   0.0000       0.676224        18.4010 
 195   0.0000       0.679080        18.4787 
 196   0.0000       0.679185        18.4816 
 197   0.0000       0.688147        18.7254 
 198   0.0000       0.692500        18.8439 
 199   0.0000       0.692624        18.8473 
 200   0.0000       0.708402        19.2766 
 201   0.0000       0.709173        19.2976 
 202   0.0000       0.709439        19.3048 
 203   0.0000       0.716972        19.5098 
 204   0.0000       0.717002        19.5106 
 205   0.0000       0.724509        19.7149 
 206   0.0000       0.731983        19.9183 
 207   0.0000       0.738240        20.0885 
 208   0.0000       0.738547        20.0969 
 209   0.0000       0.748200        20.3596 
 210   0.0000       0.748962        20.3803 
 211   0.0000       0.751509        20.4496 
 212   0.0000       0.765179        20.8216 
 213   0.0000       0.765256        20.8237 
 214   0.0000       0.784487        21.3470 
 215   0.0000       0.784610        21.3503 
 216   0.0000       0.795050        21.6344 
 217   0.0000       0.808502        22.0005 
 218   0.0000       0.822312        22.3762 
 219   0.0000       0.824228        22.4284 
 220   0.0000       0.824292        22.4301 
 221   0.0000       0.827898        22.5282 
 222   0.0000       0.838225        22.8093 
 223   0.0000       0.838901        22.8277 
 224   0.0000       0.838919        22.8281 
 225   0.0000       0.864598        23.5269 
 226   0.0000       0.864804        23.5325 
 227   0.0000       0.875174        23.8147 
 228   0.0000       0.875281        23.8176 
 229   0.0000       0.880673        23.9643 
 230   0.0000       0.896720        24.4010 
 231   0.0000       0.901256        24.5244 
 232   0.0000       0.901383        24.5279 
 233   0.0000       0.927891        25.2492 
 234   0.0000       0.941046        25.6072 
 235   0.0000       0.941102        25.6087 
 236   0.0000       0.946877        25.7658 
 237   0.0000       0.946900        25.7664 
 238   0.0000       0.946999        25.7691 
 239   0.0000       0.959061        26.0974 
 240   0.0000       0.969495        26.3813 
 241   0.0000       0.972562        26.4648 
 242   0.0000       0.972647        26.4671 
 243   0.0000       0.987098        26.8603 
 244   0.0000       0.987167        26.8622 
 245   0.0000       1.026576        27.9346 
 246   0.0000       1.032901        28.1067 
 247   0.0000       1.033169        28.1139 
 248   0.0000       1.035295        28.1718 
 249   0.0000       1.072346        29.1800 
 250   0.0000       1.084038        29.4982 
 251   0.0000       1.084139        29.5009 
 252   0.0000       1.118571        30.4379 
 253   0.0000       1.122268        30.5385 
 254   0.0000       1.146540        31.1989 
 255   0.0000       1.146626        31.2013 
 256   0.0000       1.154544        31.4167 
 257   0.0000       1.154629        31.4190 
 258   0.0000       1.169432        31.8219 
 259   0.0000       1.175503        31.9871 
 260   0.0000       1.175779        31.9946 
 261   0.0000       1.197373        32.5822 
 262   0.0000       1.211945        32.9787 
 263   0.0000       1.214619        33.0515 
 264   0.0000       1.214621        33.0515 
 265   0.0000       1.225185        33.3390 
 266   0.0000       1.236106        33.6362 
 267   0.0000       1.236139        33.6371 
 268   0.0000       1.268372        34.5142 
 269   0.0000       1.268544        34.5188 
 270   0.0000       1.285542        34.9814 
 271   0.0000       1.285633        34.9838 
 272   0.0000       1.312555        35.7164 
 273   0.0000       1.312571        35.7169 
 274   0.0000       1.318483        35.8777 
 275   0.0000       1.326762        36.1030 
 276   0.0000       1.327887        36.1337 
 277   0.0000       1.328127        36.1402 
 278   0.0000       1.340432        36.4750 
 279   0.0000       1.340581        36.4791 
 280   0.0000       1.364721        37.1359 
 281   0.0000       1.364773        37.1374 
 282   0.0000       1.380152        37.5559 
 283   0.0000       1.381468        37.5916 
 284   0.0000       1.412220        38.4285 
 285   0.0000       1.412524        38.4367 
 286   0.0000       1.417997        38.5857 
 287   0.0000       1.430188        38.9174 
 288   0.0000       1.430307        38.9206 
 289   0.0000       1.459246        39.7081 
 290   0.0000       1.470289        40.0086 
 291   0.0000       1.470326        40.0096 
 292   0.0000       1.513957        41.1969 
 293   0.0000       1.514080        41.2002 
 294   0.0000       1.542354        41.9696 
 295   0.0000       1.565772        42.6068 
 296   0.0000       1.565855        42.6091 
 297   0.0000       1.577815        42.9345 
 298   0.0000       1.592586        43.3365 
 299   0.0000       1.649720        44.8912 
 300   0.0000       1.655870        45.0585 
 301   0.0000       1.655891        45.0591 
 302   0.0000       1.681841        45.7652 
 303   0.0000       1.681862        45.7658 
 304   0.0000       1.687968        45.9319 
 305   0.0000       1.716044        46.6959 
 306   0.0000       1.716337        46.7039 
 307   0.0000       1.741963        47.4012 
 308   0.0000       1.754196        47.7341 
 309   0.0000       1.754273        47.7362 
 310   0.0000       1.770195        48.1695 
 311   0.0000       1.774076        48.2751 
 312   0.0000       1.774197        48.2784 
 313   0.0000       1.787938        48.6523 
 314   0.0000       1.788166        48.6585 
 315   0.0000       1.799953        48.9792 
 316   0.0000       1.800067        48.9823 
 317   0.0000       1.809954        49.2513 
 318   0.0000       1.810047        49.2539 
 319   0.0000       1.817021        49.4437 
 320   0.0000       1.833196        49.8838 
 321   0.0000       1.842817        50.1456 
 322   0.0000       1.844310        50.1862 
 323   0.0000       1.844336        50.1869 
 324   0.0000       1.885088        51.2958 
 325   0.0000       1.900395        51.7124 
 326   0.0000       1.900461        51.7142 
 327   0.0000       1.903111        51.7863 
 328   0.0000       1.932190        52.5776 
 329   0.0000       1.932978        52.5990 
 330   0.0000       1.942389        52.8551 
 331   0.0000       1.988656        54.1141 
 332   0.0000       1.988713        54.1156 
 333   0.0000       1.998660        54.3863 
 334   0.0000       1.998702        54.3875 
 335   0.0000       2.044721        55.6397 
 336   0.0000       2.044800        55.6418 
 337   0.0000       2.070797        56.3492 
 338   0.0000       2.070907        56.3522 
 339   0.0000       2.080829        56.6222 
 340   0.0000       2.083830        56.7039 
 341   0.0000       2.100643        57.1614 
 342   0.0000       2.100809        57.1659 
 343   0.0000       2.146184        58.4006 
 344   0.0000       2.146217        58.4015 
 345   0.0000       2.174902        59.1821 
 346   0.0000       2.209421        60.1214 
 347   0.0000       2.210581        60.1530 
 348   0.0000       2.210736        60.1572 
 349   0.0000       2.245740        61.1097 
 350   0.0000       2.245766        61.1104 
 351   0.0000       2.258313        61.4518 
 352   0.0000       2.285179        62.1829 
 353   0.0000       2.298949        62.5576 
 354   0.0000       2.299021        62.5595 
 355   0.0000       2.324348        63.2487 
 356   0.0000       2.329851        63.3985 
 357   0.0000       2.341068        63.7037 
 358   0.0000       2.341101        63.7046 
 359   0.0000       2.365111        64.3579 
 360   0.0000       2.391057        65.0640 
 361   0.0000       2.391107        65.0653 
 362   0.0000       2.430006        66.1238 
 363   0.0000       2.443665        66.4955 
 364   0.0000       2.443678        66.4959 
 365   0.0000       2.457893        66.8827 
 366   0.0000       2.457915        66.8833 
 367   0.0000       2.481416        67.5228 
 368   0.0000       2.544553        69.2408 
 369   0.0000       2.602182        70.8090 
 370   0.0000       2.602308        70.8124 
 371   0.0000       2.602395        70.8148 
 372   0.0000       2.638309        71.7920 
 373   0.0000       2.638427        71.7953 
 374   0.0000       2.638629        71.8007 
 375   0.0000       2.650079        72.1123 
 376   0.0000       2.650162        72.1146 
 377   0.0000       2.702021        73.5257 
 378   0.0000       2.703391        73.5630 
 379   0.0000       2.703397        73.5632 
 380   0.0000       2.728093        74.2352 
 381   0.0000       2.747276        74.7572 
 382   0.0000       2.747301        74.7579 
 383   0.0000       2.752443        74.8978 
 384   0.0000       2.782424        75.7136 
 385   0.0000       2.782485        75.7153 
 386   0.0000       2.787047        75.8394 
 387   0.0000       2.794616        76.0454 
 388   0.0000       2.794663        76.0466 
 389   0.0000       2.815614        76.6167 
 390   0.0000       2.815652        76.6178 
 391   0.0000       2.815766        76.6209 
 392   0.0000       2.865761        77.9813 
 393   0.0000       2.902390        78.9780 
 394   0.0000       2.902473        78.9803 
 395   0.0000       2.914101        79.2967 
 396   0.0000       2.926230        79.6268 
 397   0.0000       2.926237        79.6270 
 398   0.0000       2.965178        80.6866 
 399   0.0000       2.965219        80.6877 
 400   0.0000       2.982175        81.1491 
 401   0.0000       2.985720        81.2456 
 402   0.0000       2.999694        81.6258 
 403   0.0000       3.002326        81.6974 
 404   0.0000       3.002377        81.6988 
 405   0.0000       3.021655        82.2234 
 406   0.0000       3.021724        82.2253 
 407   0.0000       3.041153        82.7540 
 408   0.0000       3.052475        83.0621 
 409   0.0000       3.052514        83.0631 
 410   0.0000       3.091128        84.1139 
 411   0.0000       3.091170        84.1150 
 412   0.0000       3.103821        84.4593 
 413   0.0000       3.103835        84.4596 
 414   0.0000       3.123649        84.9988 
 415   0.0000       3.124566        85.0238 
 416   0.0000       3.162650        86.0601 
 417   0.0000       3.162685        86.0610 
 418   0.0000       3.164477        86.1098 
 419   0.0000       3.192268        86.8660 
 420   0.0000       3.195220        86.9463 
 421   0.0000       3.195252        86.9472 
 422   0.0000       3.215044        87.4858 
 423   0.0000       3.215086        87.4869 
 424   0.0000       3.224726        87.7493 
 425   0.0000       3.224749        87.7499 
 426   0.0000       3.229277        87.8731 
 427   0.0000       3.255159        88.5774 
 428   0.0000       3.255258        88.5801 
 429   0.0000       3.270457        88.9937 
 430   0.0000       3.274102        89.0929 
 431   0.0000       3.274136        89.0938 
 432   0.0000       3.285656        89.4073 
 433   0.0000       3.298859        89.7665 
 434   0.0000       3.298914        89.7680 
 435   0.0000       3.298931        89.7685 
 436   0.0000       3.315211        90.2115 
 437   0.0000       3.347428        91.0882 
 438   0.0000       3.347484        91.0897 
 439   0.0000       3.354633        91.2842 
 440   0.0000       3.359761        91.4238 
 441   0.0000       3.359801        91.4248 
 442   0.0000       3.374761        91.8319 
 443   0.0000       3.389412        92.2306 
 444   0.0000       3.389494        92.2328 
 445   0.0000       3.407912        92.7340 
 446   0.0000       3.413228        92.8787 
 447   0.0000       3.413343        92.8818 
 448   0.0000       3.413675        92.8908 
 449   0.0000       3.434001        93.4439 
 450   0.0000       3.458139        94.1007 
 451   0.0000       3.458204        94.1025 
 452   0.0000       3.468382        94.3795 
 453   0.0000       3.482237        94.7565 
 454   0.0000       3.482285        94.7578 
 455   0.0000       3.493108        95.0523 
 456   0.0000       3.512740        95.5865 
 457   0.0000       3.512814        95.5885 
 458   0.0000       3.522774        95.8596 
 459   0.0000       3.522827        95.8610 
 460   0.0000       3.531975        96.1099 
 461   0.0000       3.598252        97.9134 
 462   0.0000       3.598345        97.9159 
 463   0.0000       3.624617        98.6308 
 464   0.0000       3.660002        99.5937 
 465   0.0000       3.662220        99.6541 
 466   0.0000       3.683380       100.2299 
 467   0.0000       3.694755       100.5394 
 468   0.0000       3.694779       100.5400 
 469   0.0000       3.714201       101.0685 
 470   0.0000       3.739434       101.7552 
 471   0.0000       3.739525       101.7577 
 472   0.0000       3.749760       102.0362 
 473   0.0000       3.756861       102.2294 
 474   0.0000       3.756906       102.2306 
 475   0.0000       3.798230       103.3551 
 476   0.0000       3.815221       103.8174 
 477   0.0000       3.815241       103.8180 
 478   0.0000       3.829055       104.1939 
 479   0.0000       3.879715       105.5724 
 480   0.0000       3.897566       106.0582 
 481   0.0000       3.897614       106.0595 
 482   0.0000       3.905374       106.2706 
 483   0.0000       3.905411       106.2716 
 484   0.0000       3.928406       106.8974 
 485   0.0000       3.928466       106.8990 
 486   0.0000       3.942902       107.2918 
 487   0.0000       4.023340       109.4806 
 488   0.0000       4.023352       109.4810 
 489   0.0000       4.038249       109.8864 
 490   0.0000       4.038369       109.8896 
 491   0.0000       4.055124       110.3455 
 492   0.0000       4.087894       111.2372 
 493   0.0000       4.087909       111.2377 
 494   0.0000       4.101972       111.6203 
 495   0.0000       4.162918       113.2788 
 496   0.0000       4.163108       113.2839 
 497   0.0000       4.164844       113.3312 
 498   0.0000       4.195365       114.1617 
 499   0.0000       4.195444       114.1638 
 500   0.0000       4.221749       114.8796 
 501   0.0000       4.231418       115.1427 
 502   0.0000       4.231453       115.1437 
 503   0.0000       4.234472       115.2258 
 504   0.0000       4.265498       116.0701 
 505   0.0000       4.265555       116.0716 
 506   0.0000       4.269250       116.1722 
 507   0.0000       4.269420       116.1768 
 508   0.0000       4.319817       117.5482 
 509   0.0000       4.324402       117.6730 
 510   0.0000       4.341369       118.1347 
 511   0.0000       4.341456       118.1370 
 512   0.0000       4.357487       118.5733 
 513   0.0000       4.376340       119.0863 
 514   0.0000       4.376353       119.0866 
 515   0.0000       4.407736       119.9406 
 516   0.0000       4.407815       119.9427 
 517   0.0000       4.434237       120.6617 
 518   0.0000       4.532663       123.3400 
 519   0.0000       4.532692       123.3408 
 520   0.0000       4.578777       124.5948 
 521   0.0000       4.578878       124.5976 
 522   0.0000       4.594266       125.0163 
 523   0.0000       4.718124       128.3867 
 524   0.0000       4.723733       128.5393 
 525   0.0000       4.723802       128.5412 
 526   0.0000       4.793057       130.4257 
 527   0.0000       4.813528       130.9828 
 528   0.0000       4.829271       131.4111 
 529   0.0000       4.829288       131.4116 
 530   0.0000       4.870134       132.5231 
 531   0.0000       4.870333       132.5285 
 532   0.0000       4.879559       132.7796 
 533   0.0000       4.896880       133.2509 
 534   0.0000       4.897023       133.2548 
 535   0.0000       5.010421       136.3405 
 536   0.0000       5.026694       136.7833 
 537   0.0000       5.043055       137.2285 
 538   0.0000       5.043105       137.2299 
 539   0.0000       5.117224       139.2468 
 540   0.0000       5.117327       139.2496 
 541   0.0000       5.117332       139.2497 
 542   0.0000       5.119627       139.3121 
 543   0.0000       5.119643       139.3126 
 544   0.0000       5.119772       139.3161 
 545   0.0000       5.206177       141.6673 
 546   0.0000       5.206489       141.6758 
 547   0.0000       5.229523       142.3025 
 548   0.0000       5.229574       142.3039 
 549   0.0000       5.245156       142.7280 
 550   0.0000       5.273763       143.5064 
 551   0.0000       5.273780       143.5069 
 552   0.0000       5.433128       147.8429 
 553   0.0000       5.479967       149.1175 
 554   0.0000       5.485608       149.2710 
 555   0.0000       5.485782       149.2757 
 556   0.0000       5.485858       149.2778 
 557   0.0000       5.512704       150.0083 
 558   0.0000       5.512727       150.0089 
 559   0.0000       5.527802       150.4191 
 560   0.0000       5.542668       150.8237 
 561   0.0000       5.542693       150.8243 
 562   0.0000       5.547105       150.9444 
 563   0.0000       5.609858       152.6520 
 564   0.0000       5.633888       153.3059 
 565   0.0000       5.633986       153.3086 
 566   0.0000       5.857353       159.3867 
 567   0.0000       5.857415       159.3884 
 568   0.0000       5.880617       160.0197 
 569   0.0000       6.117746       166.4723 
 570   0.0000       6.117788       166.4735 
 571   0.0000       6.316211       171.8728 
 572   0.0000       6.361553       173.1067 
 573   0.0000       6.361570       173.1071 
 574   0.0000       6.397576       174.0869 
 575   0.0000       6.400253       174.1597 
 576   0.0000       6.404785       174.2831 
 577   0.0000       6.405558       174.3041 
 578   0.0000       6.405620       174.3058 
 579   0.0000       6.416760       174.6089 
 580   0.0000       6.416823       174.6106 
 581   0.0000       6.435390       175.1159 
 582   0.0000       6.435492       175.1186 
 583   0.0000       6.455707       175.6687 
 584   0.0000       6.639498       180.6699 
 585   0.0000       6.651301       180.9911 
 586   0.0000       6.651358       180.9927 
 587   0.0000       6.836780       186.0382 
 588   0.0000       6.881361       187.2514 
 589   0.0000       6.881376       187.2518 
 590   0.0000       6.890765       187.5073 
 591   0.0000       6.900922       187.7836 
 592   0.0000       6.915958       188.1928 
 593   0.0000       6.916019       188.1944 
 594   0.0000       7.176971       195.2953 
 595   0.0000       7.187533       195.5827 
 596   0.0000       7.187542       195.5830 
 597   0.0000      23.170506       630.5015 
 598   0.0000      23.199670       631.2951 
 599   0.0000      23.199695       631.2958 
 600   0.0000      23.283420       633.5741 
 601   0.0000      23.283597       633.5789 
 602   0.0000      23.349993       635.3856 
 603   0.0000      23.452954       638.1873 
 604   0.0000      23.453043       638.1897 
 605   0.0000      23.981687       652.5749 
 606   0.0000      25.393168       690.9832 
 607   0.0000      44.036127      1198.2839 
 608   0.0000      44.245113      1203.9707 
 609   0.0000      44.245192      1203.9729 
 610   0.0000      85.933017      2338.3563 

                    ********************************
                    * MULLIKEN POPULATION ANALYSIS *
                    ********************************

-----------------------
MULLIKEN ATOMIC CHARGES
-----------------------
   0 Mo:   -1.402581
   1 O :   -0.315445
   2 C :    0.561647
   3 C :    0.562146
   4 O :   -0.315541
   5 C :    0.560842
   6 O :   -0.315557
   7 C :    0.112792
   8 C :    0.089218
   9 C :    0.114667
  10 C :    0.091041
  11 C :    0.112867
  12 C :    0.092332
  13 H :    0.011984
  14 H :    0.004745
  15 H :    0.012756
  16 H :    0.004016
  17 H :    0.012506
  18 H :    0.005564
Sum of atomic charges:    0.0000000

--------------------------------
MULLIKEN REDUCED ORBITAL CHARGES
--------------------------------
  0 Mos       :     2.710351  s :     2.710351
      pz      :     2.418853  p :     7.444546
      px      :     2.606496
      py      :     2.419196
      dz2     :     1.221680  d :     5.171983
      dxz     :     0.729705
      dyz     :     1.173846
      dx2y2   :     1.316618
      dxy     :     0.730135
      f0      :     0.007356  f :     0.071671
      f+1     :     0.010596
      f-1     :     0.006639
      f+2     :     0.010546
      f-2     :     0.012358
      f+3     :     0.009426
      f-3     :     0.014751
      g0      :     0.000392  g :     0.004029
      g+1     :     0.000389
      g-1     :     0.000191
      g+2     :     0.000324
      g-2     :     0.000610
      g+3     :     0.000345
      g-3     :     0.000722
      g+4     :     0.000502
      g-4     :     0.000553
  1 O s       :     3.979827  s :     3.979827
      pz      :     1.385087  p :     4.279874
      px      :     1.429719
      py      :     1.465069
      dz2     :     0.014930  d :     0.054111
      dxz     :     0.011767
      dyz     :     0.009658
      dx2y2   :     0.009582
      dxy     :     0.008174
      f0      :     0.000317  f :     0.001633
      f+1     :     0.000285
      f-1     :     0.000184
      f+2     :     0.000375
      f-2     :     0.000243
      f+3     :     0.000135
      f-3     :     0.000095
  2 C s       :     3.197542  s :     3.197542
      pz      :     0.739407  p :     2.114785
      px      :     0.684512
      py      :     0.690866
      dz2     :     0.032684  d :     0.108861
      dxz     :     0.016648
      dyz     :     0.020559
      dx2y2   :     0.023775
      dxy     :     0.015195
      f0      :     0.002815  f :     0.017164
      f+1     :     0.003427
      f-1     :     0.002035
      f+2     :     0.003468
      f-2     :     0.003129
      f+3     :     0.001231
      f-3     :     0.001059
  3 C s       :     3.197230  s :     3.197230
      pz      :     0.673562  p :     2.114549
      px      :     0.684065
      py      :     0.756922
      dz2     :     0.008739  d :     0.108911
      dxz     :     0.014304
      dyz     :     0.038063
      dx2y2   :     0.030266
      dxy     :     0.017538
      f0      :     0.002105  f :     0.017164
      f+1     :     0.000989
      f-1     :     0.001624
      f+2     :     0.000485
      f-2     :     0.003112
      f+3     :     0.003675
      f-3     :     0.005174
  4 O s       :     3.979945  s :     3.979945
      pz      :     1.493783  p :     4.279867
      px      :     1.429965
      py      :     1.356119
      dz2     :     0.003873  d :     0.054095
      dxz     :     0.006800
      dyz     :     0.012528
      dx2y2   :     0.017778
      dxy     :     0.013116
      f0      :     0.000243  f :     0.001633
      f+1     :     0.000070
      f-1     :     0.000100
      f+2     :     0.000049
      f-2     :     0.000360
      f+3     :     0.000231
      f-3     :     0.000580
  5 C s       :     3.197865  s :     3.197865
      pz      :     0.732865  p :     2.115229
      px      :     0.684484
      py      :     0.697880
      dz2     :     0.034929  d :     0.108898
      dxz     :     0.016696
      dyz     :     0.015826
      dx2y2   :     0.026330
      dxy     :     0.015117
      f0      :     0.002391  f :     0.017166
      f+1     :     0.003170
      f-1     :     0.002168
      f+2     :     0.003506
      f-2     :     0.003132
      f+3     :     0.001486
      f-3     :     0.001315
  6 O s       :     3.979922  s :     3.979922
      pz      :     1.396422  p :     4.279907
      px      :     1.429743
      py      :     1.453741
      dz2     :     0.014581  d :     0.054095
      dxz     :     0.011320
      dyz     :     0.008892
      dx2y2   :     0.010691
      dxy     :     0.008610
      f0      :     0.000256  f :     0.001633
      f+1     :     0.000288
      f-1     :     0.000202
      f+2     :     0.000393
      f-2     :     0.000214
      f+3     :     0.000161
      f-3     :     0.000119
  7 C s       :     3.345063  s :     3.345063
      pz      :     0.794560  p :     2.422307
      px      :     0.888257
      py      :     0.739491
      dz2     :     0.019265  d :     0.112129
      dxz     :     0.036210
      dyz     :     0.071776
      dx2y2   :    -0.016633
      dxy     :     0.001511
      f0      :     0.001001  f :     0.007708
      f+1     :     0.001386
      f-1     :     0.002278
      f+2     :     0.000780
      f-2     :     0.000610
      f+3     :     0.000891
      f-3     :     0.000761
  8 C s       :     3.368928  s :     3.368928
      pz      :     0.784691  p :     2.425453
      px      :     0.894071
      py      :     0.746691
      dz2     :     0.006483  d :     0.108703
      dxz     :     0.035436
      dyz     :     0.081606
      dx2y2   :    -0.015678
      dxy     :     0.000857
      f0      :     0.000961  f :     0.007697
      f+1     :     0.001392
      f-1     :     0.002278
      f+2     :     0.000833
      f-2     :     0.000524
      f+3     :     0.000961
      f-3     :     0.000748
  9 C s       :     3.345071  s :     3.345071
      pz      :     0.755975  p :     2.420259
      px      :     0.888607
      py      :     0.775677
      dz2     :     0.052277  d :     0.112292
      dxz     :     0.005456
      dyz     :    -0.032618
      dx2y2   :     0.054724
      dxy     :     0.032453
      f0      :     0.001020  f :     0.007711
      f+1     :     0.000323
      f-1     :     0.002020
      f+2     :     0.001004
      f-2     :     0.001235
      f+3     :     0.001330
      f-3     :     0.000779
 10 C s       :     3.368829  s :     3.368829
      pz      :     0.758378  p :     2.423571
      px      :     0.893527
      py      :     0.771665
      dz2     :     0.026206  d :     0.108863
      dxz     :     0.016341
      dyz     :     0.048797
      dx2y2   :    -0.002653
      dxy     :     0.020173
      f0      :     0.001090  f :     0.007696
      f+1     :     0.001212
      f-1     :     0.002244
      f+2     :     0.000767
      f-2     :     0.000714
      f+3     :     0.000950
      f-3     :     0.000720
 11 C s       :     3.347225  s :     3.347225
      pz      :     0.749469  p :     2.419833
      px      :     0.888244
      py      :     0.782120
      dz2     :     0.009439  d :     0.112363
      dxz     :     0.014959
      dyz     :     0.061730
      dx2y2   :     0.003343
      dxy     :     0.022892
      f0      :     0.001046  f :     0.007712
      f+1     :     0.001231
      f-1     :     0.002252
      f+2     :     0.000828
      f-2     :     0.000621
      f+3     :     0.001037
      f-3     :     0.000698
 12 C s       :     3.366957  s :     3.366957
      pz      :     0.755566  p :     2.424164
      px      :     0.893624
      py      :     0.774974
      dz2     :     0.047010  d :     0.108849
      dxz     :     0.002946
      dyz     :    -0.028440
      dx2y2   :     0.053694
      dxy     :     0.033639
      f0      :     0.001015  f :     0.007698
      f+1     :     0.000325
      f-1     :     0.002023
      f+2     :     0.001012
      f-2     :     0.001217
      f+3     :     0.001335
      f-3     :     0.000771
 13 H s       :     0.936628  s :     0.936628
      pz      :     0.003273  p :     0.049812
      px      :     0.028694
      py      :     0.017844
      dz2     :     0.000389  d :     0.001577
      dxz     :     0.000164
      dyz     :     0.000318
      dx2y2   :     0.000239
      dxy     :     0.000467
 14 H s       :     0.941333  s :     0.941333
      pz      :     0.004377  p :     0.052347
      px      :     0.031041
      py      :     0.016928
      dz2     :     0.000446  d :     0.001576
      dxz     :     0.000198
      dyz     :     0.000251
      dx2y2   :     0.000246
      dxy     :     0.000435
 15 H s       :     0.936045  s :     0.936045
      pz      :     0.023874  p :     0.049622
      px      :     0.028773
      py      :    -0.003025
      dz2     :     0.000198  d :     0.001577
      dxz     :     0.000608
      dyz     :     0.000734
      dx2y2   :     0.000013
      dxy     :     0.000023
 16 H s       :     0.942219  s :     0.942219
      pz      :     0.002972  p :     0.052189
      px      :     0.031020
      py      :     0.018197
      dz2     :     0.000389  d :     0.001576
      dxz     :     0.000143
      dyz     :     0.000319
      dx2y2   :     0.000236
      dxy     :     0.000489
 17 H s       :     0.936461  s :     0.936461
      pz      :     0.004293  p :     0.049458
      px      :     0.028674
      py      :     0.016491
      dz2     :     0.000448  d :     0.001575
      dxz     :     0.000174
      dyz     :     0.000253
      dx2y2   :     0.000243
      dxy     :     0.000456
 18 H s       :     0.940750  s :     0.940750
      pz      :     0.024524  p :     0.052109
      px      :     0.031034
      py      :    -0.003448
      dz2     :     0.000199  d :     0.001577
      dxz     :     0.000609
      dyz     :     0.000732
      dx2y2   :     0.000013
      dxy     :     0.000024


                     *******************************
                     * LOEWDIN POPULATION ANALYSIS *
                     *******************************

----------------------
LOEWDIN ATOMIC CHARGES
----------------------
   0 Mo:    0.721414
   1 O :    0.077466
   2 C :   -0.236151
   3 C :   -0.236193
   4 O :    0.077469
   5 C :   -0.236172
   6 O :    0.077454
   7 C :   -0.052051
   8 C :   -0.050854
   9 C :   -0.052110
  10 C :   -0.050891
  11 C :   -0.052095
  12 C :   -0.050877
  13 H :    0.010742
  14 H :    0.010443
  15 H :    0.010752
  16 H :    0.010450
  17 H :    0.010762
  18 H :    0.010444

-------------------------------
LOEWDIN REDUCED ORBITAL CHARGES
-------------------------------
  0 Mos       :     1.825013  s :     1.825013
      pz      :     2.115997  p :     6.356844
      px      :     2.124852
      py      :     2.115996
      dz2     :     1.078942  d :     4.832690
      dxz     :     0.786400
      dyz     :     1.056042
      dx2y2   :     1.124780
      dxy     :     0.786526
      f0      :     0.022596  f :     0.243916
      f+1     :     0.039319
      f-1     :     0.022555
      f+2     :     0.032524
      f-2     :     0.047023
      f+3     :     0.034203
      f-3     :     0.045696
      g0      :     0.002347  g :     0.020124
      g+1     :     0.001479
      g-1     :     0.000752
      g+2     :     0.001454
      g-2     :     0.004484
      g+3     :     0.001355
      g-3     :     0.003448
      g+4     :     0.002522
      g-4     :     0.002284
  1 O s       :     3.409161  s :     3.409161
      pz      :     1.479223  p :     4.303321
      px      :     1.432241
      py      :     1.391857
      dz2     :     0.044460  d :     0.203702
      dxz     :     0.064943
      dyz     :     0.041173
      dx2y2   :     0.023604
      dxy     :     0.029522
      f0      :     0.000814  f :     0.006351
      f+1     :     0.001490
      f-1     :     0.000792
      f+2     :     0.001082
      f-2     :     0.001458
      f+3     :     0.000335
      f-3     :     0.000379
  2 C s       :     2.929906  s :     2.929906
      pz      :     0.865827  p :     2.368491
      px      :     0.785103
      py      :     0.717562
      dz2     :     0.232387  d :     0.854435
      dxz     :     0.195074
      dyz     :     0.172676
      dx2y2   :     0.136914
      dxy     :     0.117385
      f0      :     0.013234  f :     0.083320
      f+1     :     0.017150
      f-1     :     0.009936
      f+2     :     0.016363
      f-2     :     0.016062
      f+3     :     0.005564
      f-3     :     0.005012
  3 C s       :     2.929840  s :     2.929840
      pz      :     0.664606  p :     2.368493
      px      :     0.784608
      py      :     0.919278
      dz2     :     0.084869  d :     0.854537
      dxz     :     0.089512
      dyz     :     0.194844
      dx2y2   :     0.262493
      dxy     :     0.222819
      f0      :     0.009749  f :     0.083324
      f+1     :     0.005036
      f-1     :     0.008443
      f+2     :     0.002266
      f-2     :     0.014515
      f+3     :     0.019179
      f-3     :     0.024135
  4 O s       :     3.409152  s :     3.409152
      pz      :     1.360669  p :     4.303326
      px      :     1.431959
      py      :     1.510698
      dz2     :     0.026481  d :     0.203703
      dxz     :     0.016796
      dyz     :     0.032736
      dx2y2   :     0.050132
      dxy     :     0.077558
      f0      :     0.000605  f :     0.006351
      f+1     :     0.000452
      f-1     :     0.000825
      f+2     :     0.000120
      f-2     :     0.000896
      f+3     :     0.001933
      f-3     :     0.001519
  5 C s       :     2.929922  s :     2.929922
      pz      :     0.844733  p :     2.368511
      px      :     0.785095
      py      :     0.738683
      dz2     :     0.222871  d :     0.854418
      dxz     :     0.183905
      dyz     :     0.167121
      dx2y2   :     0.151980
      dxy     :     0.128541
      f0      :     0.011384  f :     0.083320
      f+1     :     0.015546
      f-1     :     0.010522
      f+2     :     0.016368
      f-2     :     0.016443
      f+3     :     0.006785
      f-3     :     0.006272
  6 O s       :     3.409165  s :     3.409165
      pz      :     1.466782  p :     4.303327
      px      :     1.432238
      py      :     1.404307
      dz2     :     0.040285  d :     0.203705
      dxz     :     0.059908
      dyz     :     0.043326
      dx2y2   :     0.025631
      dxy     :     0.034553
      f0      :     0.000736  f :     0.006351
      f+1     :     0.001256
      f-1     :     0.000824
      f+2     :     0.001037
      f-2     :     0.001599
      f+3     :     0.000428
      f-3     :     0.000470
  7 C s       :     2.642563  s :     2.642563
      pz      :     0.931207  p :     2.587644
      px      :     0.737417
      py      :     0.919020
      dz2     :     0.191274  d :     0.777602
      dxz     :     0.133112
      dyz     :     0.248135
      dx2y2   :     0.112730
      dxy     :     0.092350
      f0      :     0.007608  f :     0.044243
      f+1     :     0.006579
      f-1     :     0.013669
      f+2     :     0.004808
      f-2     :     0.003579
      f+3     :     0.003824
      f-3     :     0.004176
  8 C s       :     2.642575  s :     2.642575
      pz      :     0.930834  p :     2.588661
      px      :     0.738769
      py      :     0.919058
      dz2     :     0.180035  d :     0.775427
      dxz     :     0.127203
      dyz     :     0.258859
      dx2y2   :     0.112093
      dxy     :     0.097237
      f0      :     0.007513  f :     0.044191
      f+1     :     0.006755
      f-1     :     0.013585
      f+2     :     0.004898
      f-2     :     0.002945
      f+3     :     0.004223
      f-3     :     0.004273
  9 C s       :     2.642560  s :     2.642560
      pz      :     0.921486  p :     2.587655
      px      :     0.737432
      py      :     0.928736
      dz2     :     0.208276  d :     0.777650
      dxz     :     0.068794
      dyz     :     0.174804
      dx2y2   :     0.169094
      dxy     :     0.156681
      f0      :     0.005356  f :     0.044245
      f+1     :     0.001044
      f-1     :     0.012766
      f+2     :     0.007021
      f-2     :     0.008035
      f+3     :     0.004905
      f-3     :     0.005119
 10 C s       :     2.642569  s :     2.642569
      pz      :     0.923117  p :     2.588638
      px      :     0.738762
      py      :     0.926759
      dz2     :     0.195111  d :     0.775493
      dxz     :     0.139938
      dyz     :     0.243199
      dx2y2   :     0.112718
      dxy     :     0.084527
      f0      :     0.007523  f :     0.044193
      f+1     :     0.005952
      f-1     :     0.013562
      f+2     :     0.004982
      f-2     :     0.004152
      f+3     :     0.003819
      f-3     :     0.004202
 11 C s       :     2.642558  s :     2.642558
      pz      :     0.922644  p :     2.587620
      px      :     0.737397
      py      :     0.927579
      dz2     :     0.184058  d :     0.777672
      dxz     :     0.136315
      dyz     :     0.254984
      dx2y2   :     0.113135
      dxy     :     0.089182
      f0      :     0.007415  f :     0.044245
      f+1     :     0.006222
      f-1     :     0.013471
      f+2     :     0.005083
      f-2     :     0.003474
      f+3     :     0.004288
      f-3     :     0.004293
 12 C s       :     2.642580  s :     2.642580
      pz      :     0.920884  p :     2.588658
      px      :     0.738755
      py      :     0.929019
      dz2     :     0.207494  d :     0.775448
      dxz     :     0.069535
      dyz     :     0.175489
      dx2y2   :     0.168022
      dxy     :     0.154908
      f0      :     0.005339  f :     0.044191
      f+1     :     0.001076
      f-1     :     0.012774
      f+2     :     0.007032
      f-2     :     0.007940
      f+3     :     0.004905
      f-3     :     0.005125
 13 H s       :     0.698234  s :     0.698234
      pz      :     0.076728  p :     0.261954
      px      :     0.074269
      py      :     0.110957
      dz2     :     0.004971  d :     0.029070
      dxz     :     0.001930
      dyz     :     0.008949
      dx2y2   :     0.006832
      dxy     :     0.006387
 14 H s       :     0.698365  s :     0.698365
      pz      :     0.080039  p :     0.262106
      px      :     0.074539
      py      :     0.107527
      dz2     :     0.005424  d :     0.029086
      dxz     :     0.002397
      dyz     :     0.008980
      dx2y2   :     0.006338
      dxy     :     0.005948
 15 H s       :     0.698223  s :     0.698223
      pz      :     0.124475  p :     0.261956
      px      :     0.074276
      py      :     0.063205
      dz2     :     0.011897  d :     0.029070
      dxz     :     0.008291
      dyz     :     0.008805
      dx2y2   :     0.000050
      dxy     :     0.000027
 16 H s       :     0.698355  s :     0.698355
      pz      :     0.076864  p :     0.262109
      px      :     0.074544
      py      :     0.110701
      dz2     :     0.004927  d :     0.029086
      dxz     :     0.001811
      dyz     :     0.009019
      dx2y2   :     0.006795
      dxy     :     0.006534
 17 H s       :     0.698206  s :     0.698206
      pz      :     0.080324  p :     0.261960
      px      :     0.074274
      py      :     0.107362
      dz2     :     0.005397  d :     0.029071
      dxz     :     0.002256
      dyz     :     0.009049
      dx2y2   :     0.006309
      dxy     :     0.006062
 18 H s       :     0.698368  s :     0.698368
      pz      :     0.124445  p :     0.262104
      px      :     0.074541
      py      :     0.063117
      dz2     :     0.011902  d :     0.029085
      dxz     :     0.008308
      dyz     :     0.008788
      dx2y2   :     0.000051
      dxy     :     0.000036


                      *****************************
                      * MAYER POPULATION ANALYSIS *
                      *****************************

  NA   - Mulliken gross atomic population
  ZA   - Total nuclear charge
  QA   - Mulliken gross atomic charge
  VA   - Mayer's total valence
  BVA  - Mayer's bonded valence
  FA   - Mayer's free valence

  ATOM       NA         ZA         QA         VA         BVA        FA
  0 Mo    15.4026    14.0000    -1.4026     7.7955     7.7955     0.0000
  1 O      8.3154     8.0000    -0.3154     2.0818     2.0818     0.0000
  2 C      5.4384     6.0000     0.5616     3.4532     3.4532     0.0000
  3 C      5.4379     6.0000     0.5621     3.4526     3.4526    -0.0000
  4 O      8.3155     8.0000    -0.3155     2.0816     2.0816    -0.0000
  5 C      5.4392     6.0000     0.5608     3.4526     3.4526     0.0000
  6 O      8.3156     8.0000    -0.3156     2.0820     2.0820    -0.0000
  7 C      5.8872     6.0000     0.1128     3.1802     3.1802    -0.0000
  8 C      5.9108     6.0000     0.0892     3.2143     3.2143     0.0000
  9 C      5.8853     6.0000     0.1147     3.1745     3.1745    -0.0000
 10 C      5.9090     6.0000     0.0910     3.2112     3.2112    -0.0000
 11 C      5.8871     6.0000     0.1129     3.1806     3.1806     0.0000
 12 C      5.9077     6.0000     0.0923     3.2068     3.2068     0.0000
 13 H      0.9880     1.0000     0.0120     1.0365     1.0365    -0.0000
 14 H      0.9953     1.0000     0.0047     1.0444     1.0444     0.0000
 15 H      0.9872     1.0000     0.0128     1.0356     1.0356    -0.0000
 16 H      0.9960     1.0000     0.0040     1.0443     1.0443    -0.0000
 17 H      0.9875     1.0000     0.0125     1.0359     1.0359     0.0000
 18 H      0.9944     1.0000     0.0056     1.0437     1.0437     0.0000

  Mayer bond orders larger than 0.100000
B(  0-Mo,  1-O ) :   0.1178 B(  0-Mo,  2-C ) :   1.4740 B(  0-Mo,  3-C ) :   1.4743 
B(  0-Mo,  4-O ) :   0.1179 B(  0-Mo,  5-C ) :   1.4734 B(  0-Mo,  6-O ) :   0.1179 
B(  0-Mo,  7-C ) :   0.4622 B(  0-Mo,  8-C ) :   0.4735 B(  0-Mo,  9-C ) :   0.4622 
B(  0-Mo, 10-C ) :   0.4722 B(  0-Mo, 11-C ) :   0.4632 B(  0-Mo, 12-C ) :   0.4727 
B(  1-O ,  2-C ) :   1.8642 B(  3-C ,  4-O ) :   1.8638 B(  5-C ,  6-O ) :   1.8643 
B(  7-C ,  8-C ) :   1.0159 B(  7-C ,  9-C ) :  -0.1179 B(  7-C , 11-C ) :  -0.1182 
B(  7-C , 12-C ) :   0.8348 B(  7-C , 13-H ) :   1.0943 B(  8-C ,  9-C ) :   0.8345 
B(  8-C , 10-C ) :  -0.1190 B(  8-C , 12-C ) :  -0.1204 B(  8-C , 14-H ) :   1.1009 
B(  9-C , 10-C ) :   1.0114 B(  9-C , 11-C ) :  -0.1187 B(  9-C , 15-H ) :   1.0955 
B( 10-C , 11-C ) :   0.8380 B( 10-C , 12-C ) :  -0.1198 B( 10-C , 16-H ) :   1.1013 
B( 11-C , 12-C ) :   1.0119 B( 11-C , 17-H ) :   1.0953 B( 12-C , 18-H ) :   1.1004 


-------
TIMINGS
-------

Total SCF time: 0 days 0 hours 0 min 14 sec 

Total time                  ....      14.243 sec
Sum of individual times     ....      13.747 sec  ( 96.5%)

Fock matrix formation       ....       9.160 sec  ( 64.3%)
  Split-RI-J                ....       3.120 sec  ( 34.1% of F)
  XC integration            ....       5.812 sec  ( 63.4% of F)
    Basis function eval.    ....       0.505 sec  (  8.7% of XC)
    Density eval.           ....       1.633 sec  ( 28.1% of XC)
    XC-Functional eval.     ....       0.074 sec  (  1.3% of XC)
    XC-Potential eval.      ....       2.958 sec  ( 50.9% of XC)
Diagonalization             ....       1.006 sec  (  7.1%)
Density matrix formation    ....       0.062 sec  (  0.4%)
Population analysis         ....       0.102 sec  (  0.7%)
Initial guess               ....       2.341 sec  ( 16.4%)
Orbital Transformation      ....       0.000 sec  (  0.0%)
Orbital Orthonormalization  ....       0.000 sec  (  0.0%)
DIIS solution               ....       0.578 sec  (  4.1%)
Grid generation             ....       0.498 sec  (  3.5%)


-------------------------------------------------------------------------------
                          DFT DISPERSION CORRECTION                            
                                                                               
                              DFTD3 V3.1  Rev 1                                
                          USING Becke-Johnson damping                          
-------------------------------------------------------------------------------
The TPSS functional is recognized
Active option DFTDOPT                   ...         4   

molecular C6(AA) [au] = 6578.097806 


            DFT-D V3
 parameters
 s6 scaling factor         :     1.0000 
 a1 scaling factor         :     0.4535 
 s8 scaling factor         :     1.9435 
 a2 scaling factor         :     4.4752 
 ad hoc parameters k1-k3   :    16.0000     1.3333    -4.0000 

 Edisp/kcal,au: -21.625528738087  -0.034462470011 
 E6   /kcal   :  -9.658608719 
 E8   /kcal   : -11.966920019 
 % E8         :  55.337005462 

-------------------------   ----------------
Dispersion correction           -0.034462470
-------------------------   ----------------


-------------------------   --------------------
FINAL SINGLE POINT ENERGY      -640.947760047775
-------------------------   --------------------


                            ***************************************
                            *     ORCA property calculations      *
                            ***************************************

                                    ---------------------
                                    Active property flags
                                    ---------------------
   (+) Dipole Moment


------------------------------------------------------------------------------
                       ORCA ELECTRIC PROPERTIES CALCULATION
------------------------------------------------------------------------------

Dipole Moment Calculation                       ... on
Quadrupole Moment Calculation                   ... off
Polarizability Calculation                      ... off
GBWName                                         ... MOR18_ed37.gbw
Electron density file                           ... MOR18_ed37.scfp
The origin for moment calculation is the CENTER OF MASS  = (-0.084412,  0.000010 -0.000007)

-------------
DIPOLE MOMENT
-------------
                                X             Y             Z
Electronic contribution:    -11.12339      -0.00590      -0.00264
Nuclear contribution   :     13.46160       0.00506       0.00283
                        -----------------------------------------
Total Dipole Moment    :      2.33821      -0.00084       0.00018
                        -----------------------------------------
Magnitude (a.u.)       :      2.33821
Magnitude (Debye)      :      5.94325



--------------------
Rotational spectrum 
--------------------
 
Rotational constants in cm-1:     0.028916     0.021584     0.021580 
Rotational constants in MHz :   866.875127   647.065472   646.965216 

 Dipole components along the rotational axes: 
x,y,z [a.u.] :    -2.338208    -0.000881     0.000167 
x,y,z [Debye]:    -5.943253    -0.002240     0.000425 

 

Timings for individual modules:

Sum of individual times         ...       17.043 sec (=   0.284 min)
GTO integral calculation        ...        2.445 sec (=   0.041 min)  14.3 %
SCF iterations                  ...       14.598 sec (=   0.243 min)  85.7 %
                             ****ORCA TERMINATED NORMALLY****
TOTAL RUN TIME: 0 days 0 hours 0 minutes 17 seconds 578 msec
