
                                 *****************
                                 * O   R   C   A *
                                 *****************

           --- An Ab Initio, DFT and Semiempirical electronic structure package ---

                  #######################################################
                  #                        -***-                        #
                  #          Department of theory and spectroscopy      #
                  #               Directorship: Frank Neese             #
                  #        Max Planck Institute fuer Kohlenforschung    #
                  #                Kaiser Wilhelm Platz 1               #
                  #                 D-45470 Muelheim/Ruhr               #
                  #                      Germany                        #
                  #                                                     #
                  #                  All rights reserved                #
                  #                        -***-                        #
                  #######################################################


                         Program Version 4.2.0 -  RELEASE  -


 With contributions from (in alphabetic order):
   Daniel Aravena         : Magnetic Suceptibility
   Michael Atanasov       : Ab Initio Ligand Field Theory (pilot matlab implementation)
   Alexander A. Auer      : GIAO ZORA, VPT2
   Ute Becker             : Parallelization
   Giovanni Bistoni       : ED, misc. LED, open-shell LED, HFLED
   Martin Brehm           : Molecular dynamics
   Dmytro Bykov           : SCF Hessian
   Vijay G. Chilkuri      : MRCI spin determinant printing, contributions to CSF-ICE
   Dipayan Datta          : RHF DLPNO-CCSD density
   Achintya Kumar Dutta   : EOM-CC, STEOM-CC
   Dmitry Ganyushin       : Spin-Orbit,Spin-Spin,Magnetic field MRCI
   Miquel Garcia          : C-PCM Hessian, Gaussian charge scheme
   Yang Guo               : DLPNO-NEVPT2, CIM, IAO-localization
   Andreas Hansen         : Spin unrestricted coupled pair/coupled cluster methods
   Benjamin Helmich-Paris : CASSCF linear response (MC-RPA)
   Lee Huntington         : MR-EOM, pCC
   Robert Izsak           : Overlap fitted RIJCOSX, COSX-SCS-MP3, EOM
   Christian Kollmar      : KDIIS, OOCD, Brueckner-CCSD(T), CCSD density
   Simone Kossmann        : Meta GGA functionals, TD-DFT gradient, OOMP2, MP2 Hessian
   Martin Krupicka        : AUTO-CI
   Lucas Lang             : DCDCAS
   Dagmar Lenk            : GEPOL surface, SMD
   Dimitrios Liakos       : Extrapolation schemes; Compound Job, initial MDCI parallelization
   Dimitrios Manganas     : Further ROCIS development; embedding schemes
   Dimitrios Pantazis     : SARC Basis sets
   Taras Petrenko         : DFT Hessian,TD-DFT gradient, ASA, ECA, R-Raman, ABS, FL, XAS/XES, NRVS
   Peter Pinski           : DLPNO-MP2, DLPNO-MP2 Gradient
   Christoph Reimann      : Effective Core Potentials
   Marius Retegan         : Local ZFS, SOC
   Christoph Riplinger    : Optimizer, TS searches, QM/MM, DLPNO-CCSD(T), (RO)-DLPNO pert. Triples
   Tobias Risthaus        : Range-separated hybrids, TD-DFT gradient, RPA, STAB
   Michael Roemelt        : Original ROCIS implementation
   Masaaki Saitow         : Open-shell DLPNO-CCSD energy and density
   Barbara Sandhoefer     : DKH picture change effects
   Avijit Sen             : IP-ROCIS
   Kantharuban Sivalingam : CASSCF convergence, NEVPT2, FIC-MRCI
   Bernardo de Souza      : ESD, SOC TD-DFT
   Georgi Stoychev        : AutoAux, RI-MP2 NMR
   Willem Van den Heuvel  : Paramagnetic NMR
   Boris Wezisla          : Elementary symmetry handling
   Frank Wennmohs         : Technical directorship


 We gratefully acknowledge several colleagues who have allowed us to
 interface, adapt or use parts of their codes:
   Stefan Grimme, W. Hujo, H. Kruse,             : VdW corrections, initial TS optimization,
                  C. Bannwarth                     DFT functionals, gCP, sTDA/sTD-DF
   Ed Valeev, F. Pavosevic, A. Kumar             : LibInt (2-el integral package), F12 methods
   Garnet Chan, S. Sharma, J. Yang, R. Olivares  : DMRG
   Ulf Ekstrom                                   : XCFun DFT Library
   Mihaly Kallay                                 : mrcc  (arbitrary order and MRCC methods)
   Andreas Klamt, Michael Diedenhofen            : otool_cosmo (COSMO solvation model)
   Jiri Pittner, Ondrej Demel                    : Mk-CCSD
   Frank Weinhold                                : gennbo (NPA and NBO analysis)
   Christopher J. Cramer and Donald G. Truhlar   : smd solvation model
   Lars Goerigk                                  : TD-DFT with DH, B97 family of functionals
   V. Asgeirsson, H. Jonsson                     : NEB implementation
   FAccTs GmbH                                   : IRC, NEB, NEB-TS, Multilevel, MM, QM/MM, CI optimization
   S Lehtola, MJT Oliveira, MAL Marques          : LibXC Library


 Your calculation uses the libint2 library for the computation of 2-el integrals
 For citations please refer to: http://libint.valeyev.net

 Your ORCA version has been built with support for libXC version: 4.2.3
 For citations please refer to: https://tddft.org/programs/libxc/

 This ORCA versions uses:
   CBLAS   interface :  Fast vector & matrix operations
   LAPACKE interface :  Fast linear algebra routines
   SCALAPACK package :  Parallel linear algebra routines


Your calculation utilizes the atom-pairwise dispersion correction
with the Becke-Johnson damping scheme (D3BJ)
Cite in your paper:
S.Grimme, S.Ehrlich, L.Goerigk, J Comput Chem, (2011), 32, 1456–1465 
S.Grimme, J.Antony, S.Ehrlich and H.Krieg, J.Chem.Phys., 132, (2010), 154104 
   

----- Orbital basis set information -----
Your calculation utilizes the basis: def2-TZVPPD
   F. Weigend and R. Ahlrichs, Phys. Chem. Chem. Phys. 7, 3297 (2005).
   D. Rappoport and F. Furche, J. Chem. Phys. 133 134105 (2010).

----- AuxJ basis set information -----
Your calculation utilizes the auxiliary basis: def2/J
   F. Weigend, Phys. Chem. Chem. Phys. 8, 1057 (2006).

cite the ECPs for Rh [Def2-ECP] as follows:
Ce-Yb(ecp-28): M. Dolg, H. Stoll, H.Preuss, J. Chem. Phys., 1989, 90, 1730-1734.
Y-Cd(ecp-28), Hf-Hg(ecp-46): D. Andrae,U. Haeussermann, M. Dolg, H. Stoll, H. Preuss, Theor. Chim. Acta, 1990, 77, 123-141.
In-Sb(ecp-28), Tl-Bi(ecp-46): B. Metz, H. Stoll, M. Dolg, J. Chem. Phys., 2000, 113, 2563-2569.
Te-Xe(ecp-28), Po-Rn(ecp-46): K. A. Peterson, D. Figgen, E. Goll, H. Stoll, M. Dolg, J. Chem. Phys., 2003, 119, 11113-11123.
Rb(ecp-28), Cs(ecp-46): T. Leininger, A. Nicklass, W. Kuechle, H. Stoll, M. Dolg, A. Bergner, Chem. Phys. Lett., 1996, 255, 274-280.
Sr(ecp-28), Ba(ecp-46): M. Kaupp, P. V. Schleyer, H. Stoll and H. Preuss, J. Chem. Phys., 1991, 94, 1360-1366.
La(ecp-46): M. Dolg, H. Stoll, A. Savin, H. Preuss, Theor. Chim. Acta, 1989, 75, 173-194.
Lu(ecp-28): X. Cao, M. Dolg, J. Chem. Phys., 2001, 115, 7348-7355.

ECP parameters for Rh [Def2-ECP] have been obtained from:
TURBOMOLE (7.0.2)

================================================================================
                                        WARNINGS
                       Please study these warnings very carefully!
================================================================================


INFO   : the flag for use of LIBINT has been found!

================================================================================
                                       INPUT FILE
================================================================================
NAME = MOR10_ed09.in
|  1> #
|  2> # MOR10_ed09 TPSS-D3BJ/Def2-TZVPPD
|  3> #
|  4> ! tpss d3bj def2-tzvppd def2/j grid4 nofinalgrid
|  5> 
|  6> *xyz 0 1
|  7> C        0.808995    0.630455    2.540471 
|  8> C        1.251846    1.095590    1.293526 
|  9> C        1.383898    2.476779    1.093534 
| 10> C        1.096273    3.369549    2.123624 
| 11> C        0.674512    2.896605    3.366402 
| 12> C        0.527691    1.524549    3.571013 
| 13> P        1.574642   -0.069667   -0.082699 
| 14> C        2.832960    0.843508   -1.058615 
| 15> C        2.470614    1.376098   -2.300811 
| 16> C        3.389175    2.120533   -3.040434 
| 17> C        4.677141    2.329565   -2.547864 
| 18> C        5.047172    1.790502   -1.313611 
| 19> C        4.129605    1.051595   -0.570111 
| 20> Rh      -0.002604   -0.796146   -1.344377 
| 21> Cl       1.074079   -1.834200   -3.101706 
| 22> P       -1.622228   -0.075877   -0.088018 
| 23> C       -1.803842    1.702415    0.297126 
| 24> C       -2.229632    2.223789    1.521581 
| 25> C       -2.349352    3.604004    1.692487 
| 26> C       -2.048907    4.471915    0.644369 
| 27> C       -1.606201    3.958746   -0.577355 
| 28> C       -1.475459    2.583893   -0.746478 
| 29> C       -3.062543   -0.419252   -1.169366 
| 30> C       -3.141320   -1.718422   -1.702099 
| 31> C       -4.157899   -2.054399   -2.592475 
| 32> C       -5.110047   -1.100127   -2.955969 
| 33> C       -5.041177    0.189383   -2.426273 
| 34> C       -4.021006    0.532927   -1.539475 
| 35> C       -2.066176   -1.000166    1.430207 
| 36> C       -1.181452   -1.986758    1.882501 
| 37> C       -1.497950   -2.762866    2.997043 
| 38> C       -2.708929   -2.565810    3.661246 
| 39> C       -3.611118   -1.604929    3.197782 
| 40> C       -3.296146   -0.830428    2.082866 
| 41> C        2.526762   -1.412838    0.731905 
| 42> C        3.276788   -1.210573    1.900876 
| 43> C        4.004905   -2.259926    2.460546 
| 44> C        3.996021   -3.518658    1.858231 
| 45> C        3.258939   -3.724012    0.690924 
| 46> C        2.525229   -2.679846    0.130400 
| 47> H       -2.400862   -2.462118   -1.411221 
| 48> H       -4.205196   -3.058543   -3.003745 
| 49> H       -5.903513   -1.360959   -3.650464 
| 50> H       -5.783053    0.932397   -2.706210 
| 51> H       -3.967070    1.539632   -1.137031 
| 52> H       -2.450107    1.557807    2.348608 
| 53> H       -2.671735    3.999637    2.651651 
| 54> H       -2.145762    5.545320    0.781176 
| 55> H       -1.354424    4.630618   -1.393167 
| 56> H       -1.106831    2.171328   -1.683412 
| 57> H       -0.254747   -2.145782    1.334840 
| 58> H       -0.803470   -3.525000    3.339550 
| 59> H       -2.958943   -3.170852    4.528281 
| 60> H       -4.564895   -1.467934    3.699990 
| 61> H       -4.014311   -0.106909    1.706849 
| 62> H        3.285372   -0.236670    2.380292 
| 63> H        4.578140   -2.092663    3.368393 
| 64> H        4.561493   -4.335782    2.297848 
| 65> H        3.251715   -4.700268    0.214323 
| 66> H        1.950377   -2.830532   -0.780423 
| 67> H        1.471910    1.178524   -2.682000 
| 68> H        3.101239    2.524675   -4.006836 
| 69> H        5.396289    2.901586   -3.127755 
| 70> H        6.053788    1.939891   -0.932858 
| 71> H        4.425922    0.628717    0.384972 
| 72> H        1.719088    2.850389    0.131432 
| 73> H        1.199114    4.437105    1.952609 
| 74> H        0.454504    3.594780    4.169138 
| 75> H        0.193294    1.146402    4.533186 
| 76> H        0.698101   -0.433995    2.712341 
| 77> *
| 78> 
| 79> %maxcore 5000
| 80> 
| 81> %pal
| 82> nprocs = 24
| 83> end
| 84> 
| 85> 
| 86>                          ****END OF INPUT****
================================================================================

                       ****************************
                       * Single Point Calculation *
                       ****************************

---------------------------------
CARTESIAN COORDINATES (ANGSTROEM)
---------------------------------
  C      0.808995    0.630455    2.540471
  C      1.251846    1.095590    1.293526
  C      1.383898    2.476779    1.093534
  C      1.096273    3.369549    2.123624
  C      0.674512    2.896605    3.366402
  C      0.527691    1.524549    3.571013
  P      1.574642   -0.069667   -0.082699
  C      2.832960    0.843508   -1.058615
  C      2.470614    1.376098   -2.300811
  C      3.389175    2.120533   -3.040434
  C      4.677141    2.329565   -2.547864
  C      5.047172    1.790502   -1.313611
  C      4.129605    1.051595   -0.570111
  Rh    -0.002604   -0.796146   -1.344377
  Cl     1.074079   -1.834200   -3.101706
  P     -1.622228   -0.075877   -0.088018
  C     -1.803842    1.702415    0.297126
  C     -2.229632    2.223789    1.521581
  C     -2.349352    3.604004    1.692487
  C     -2.048907    4.471915    0.644369
  C     -1.606201    3.958746   -0.577355
  C     -1.475459    2.583893   -0.746478
  C     -3.062543   -0.419252   -1.169366
  C     -3.141320   -1.718422   -1.702099
  C     -4.157899   -2.054399   -2.592475
  C     -5.110047   -1.100127   -2.955969
  C     -5.041177    0.189383   -2.426273
  C     -4.021006    0.532927   -1.539475
  C     -2.066176   -1.000166    1.430207
  C     -1.181452   -1.986758    1.882501
  C     -1.497950   -2.762866    2.997043
  C     -2.708929   -2.565810    3.661246
  C     -3.611118   -1.604929    3.197782
  C     -3.296146   -0.830428    2.082866
  C      2.526762   -1.412838    0.731905
  C      3.276788   -1.210573    1.900876
  C      4.004905   -2.259926    2.460546
  C      3.996021   -3.518658    1.858231
  C      3.258939   -3.724012    0.690924
  C      2.525229   -2.679846    0.130400
  H     -2.400862   -2.462118   -1.411221
  H     -4.205196   -3.058543   -3.003745
  H     -5.903513   -1.360959   -3.650464
  H     -5.783053    0.932397   -2.706210
  H     -3.967070    1.539632   -1.137031
  H     -2.450107    1.557807    2.348608
  H     -2.671735    3.999637    2.651651
  H     -2.145762    5.545320    0.781176
  H     -1.354424    4.630618   -1.393167
  H     -1.106831    2.171328   -1.683412
  H     -0.254747   -2.145782    1.334840
  H     -0.803470   -3.525000    3.339550
  H     -2.958943   -3.170852    4.528281
  H     -4.564895   -1.467934    3.699990
  H     -4.014311   -0.106909    1.706849
  H      3.285372   -0.236670    2.380292
  H      4.578140   -2.092663    3.368393
  H      4.561493   -4.335782    2.297848
  H      3.251715   -4.700268    0.214323
  H      1.950377   -2.830532   -0.780423
  H      1.471910    1.178524   -2.682000
  H      3.101239    2.524675   -4.006836
  H      5.396289    2.901586   -3.127755
  H      6.053788    1.939891   -0.932858
  H      4.425922    0.628717    0.384972
  H      1.719088    2.850389    0.131432
  H      1.199114    4.437105    1.952609
  H      0.454504    3.594780    4.169138
  H      0.193294    1.146402    4.533186
  H      0.698101   -0.433995    2.712341

----------------------------
CARTESIAN COORDINATES (A.U.)
----------------------------
  NO LB      ZA    FRAG     MASS         X           Y           Z
   0 C     6.0000    0    12.011    1.528779    1.191387    4.800794
   1 C     6.0000    0    12.011    2.365646    2.070365    2.444410
   2 C     6.0000    0    12.011    2.615188    4.680434    2.066480
   3 C     6.0000    0    12.011    2.071656    6.367525    4.013068
   4 C     6.0000    0    12.011    1.274643    5.473790    6.361578
   5 C     6.0000    0    12.011    0.997191    2.880980    6.748237
   6 P    15.0000    0    30.974    2.975642   -0.131652   -0.156278
   7 C     6.0000    0    12.011    5.353519    1.593999   -2.000492
   8 C     6.0000    0    12.011    4.668784    2.600448   -4.347903
   9 C     6.0000    0    12.011    6.404613    4.007227   -5.745588
  10 C     6.0000    0    12.011    8.838516    4.402240   -4.814765
  11 C     6.0000    0    12.011    9.537773    3.383558   -2.482365
  12 C     6.0000    0    12.011    7.803822    1.987227   -1.077354
  13 Rh   17.0000*   0   102.910   -0.004921   -1.504498   -2.540504
  14 Cl   17.0000    0    35.453    2.029715   -3.466136   -5.861375
  15 P    15.0000    0    30.974   -3.065567   -0.143387   -0.166330
  16 C     6.0000    0    12.011   -3.408767    3.217098    0.561487
  17 C     6.0000    0    12.011   -4.213394    4.202352    2.875371
  18 C     6.0000    0    12.011   -4.439632    6.810581    3.198337
  19 C     6.0000    0    12.011   -3.871873    8.450695    1.217681
  20 C     6.0000    0    12.011   -3.035280    7.480946   -1.091043
  21 C     6.0000    0    12.011   -2.788213    4.882850   -1.410639
  22 C     6.0000    0    12.011   -5.787368   -0.792271   -2.209781
  23 C     6.0000    0    12.011   -5.936234   -3.247347   -3.216501
  24 C     6.0000    0    12.011   -7.857290   -3.882251   -4.899068
  25 C     6.0000    0    12.011   -9.656589   -2.078939   -5.585972
  26 C     6.0000    0    12.011   -9.526444    0.357882   -4.584991
  27 C     6.0000    0    12.011   -7.598600    1.007086   -2.909186
  28 C     6.0000    0    12.011   -3.904507   -1.890040    2.702700
  29 C     6.0000    0    12.011   -2.232621   -3.754429    3.557411
  30 C     6.0000    0    12.011   -2.830715   -5.221060    5.663590
  31 C     6.0000    0    12.011   -5.119134   -4.848678    6.918752
  32 C     6.0000    0    12.011   -6.824024   -3.032876    6.042932
  33 C     6.0000    0    12.011   -6.228813   -1.569281    3.936046
  34 C     6.0000    0    12.011    4.774888   -2.669877    1.383100
  35 C     6.0000    0    12.011    6.192232   -2.287651    3.592135
  36 C     6.0000    0    12.011    7.568174   -4.270641    4.649758
  37 C     6.0000    0    12.011    7.551385   -6.649300    3.511548
  38 C     6.0000    0    12.011    6.158502   -7.037363    1.305657
  39 C     6.0000    0    12.011    4.771991   -5.064175    0.246420
  40 H     1.0000    0     1.008   -4.536972   -4.652729   -2.666821
  41 H     1.0000    0     1.008   -7.946669   -5.779809   -5.676255
  42 H     1.0000    0     1.008  -11.156023   -2.571840   -6.898377
  43 H     1.0000    0     1.008  -10.928386    1.761975   -5.113996
  44 H     1.0000    0     1.008   -7.496676    2.909483   -2.148677
  45 H     1.0000    0     1.008   -4.630031    2.943829    4.438226
  46 H     1.0000    0     1.008   -5.048847    7.558219    5.010894
  47 H     1.0000    0     1.008   -4.054903   10.479136    1.476209
  48 H     1.0000    0     1.008   -2.559490    8.750600   -2.632704
  49 H     1.0000    0     1.008   -2.091607    4.103215   -3.181188
  50 H     1.0000    0     1.008   -0.481402   -4.054940    2.522482
  51 H     1.0000    0     1.008   -1.518338   -6.661285    6.310835
  52 H     1.0000    0     1.008   -5.591592   -5.992042    8.557211
  53 H     1.0000    0     1.008   -8.626401   -2.773993    6.991968
  54 H     1.0000    0     1.008   -7.585948   -0.202029    3.225477
  55 H     1.0000    0     1.008    6.208453   -0.447241    4.498100
  56 H     1.0000    0     1.008    8.651431   -3.954560    6.365340
  57 H     1.0000    0     1.008    8.619973   -8.193441    4.342303
  58 H     1.0000    0     1.008    6.144851   -8.882219    0.405012
  59 H     1.0000    0     1.008    3.685678   -5.348930   -1.474786
  60 H     1.0000    0     1.008    2.781507    2.227088   -5.068245
  61 H     1.0000    0     1.008    5.860492    4.770944   -7.571823
  62 H     1.0000    0     1.008   10.197508    5.483203   -5.910600
  63 H     1.0000    0     1.008   11.440001    3.665863   -1.762846
  64 H     1.0000    0     1.008    8.363780    1.188103    0.727492
  65 H     1.0000    0     1.008    3.248606    5.386455    0.248370
  66 H     1.0000    0     1.008    2.265997    8.384913    3.689896
  67 H     1.0000    0     1.008    0.858888    6.793150    7.878529
  68 H     1.0000    0     1.008    0.365273    2.166386    8.566480
  69 H     1.0000    0     1.008    1.319220   -0.820132    5.125582
* core charge reduced due to ECP

--------------------------------
INTERNAL COORDINATES (ANGSTROEM)
--------------------------------
 C      0   0   0     0.000000000000     0.00000000     0.00000000
 C      1   0   0     1.402618768394     0.00000000     0.00000000
 C      2   1   0     1.401826517258   118.90180699     0.00000000
 C      3   2   1     1.393144580302   120.42843219     0.83820739
 C      4   3   2     1.395010941011   120.25653494     0.05614847
 C      1   2   3     1.393037269787   120.56983421   358.87056170
 P      2   1   3     1.831943335447   120.83432960   183.02036390
 C      7   2   1     1.835664677659   101.75631923   206.91237124
 C      8   7   2     1.399284686628   118.93345329   250.88364388
 C      9   8   7     1.394625384135   120.22602970   177.42027668
 C     10   9   8     1.394695665398   120.06229825     0.43077663
 C     11  10   9     1.396743472130   119.92686884     0.10935244
 C     12  11  10     1.393091886466   120.12112872   359.60173541
 Rh     7   2   1     2.146464082542   121.82851499    82.75553087
 Cl    14   7   2     2.307597799368   104.89389407   168.60243162
 P     14   7   2     2.172649826967    95.48996015   347.94732276
 C     16  14   7     1.828562818991   121.21420767    59.69672999
 C     17  16  14     1.397289525832   125.28987829   216.90555073
 C     18  17  16     1.395899418103   120.15658434   180.97498081
 C     19  18  17     1.393588190202   120.34581645     0.15488265
 C     20  19  18     1.397118662524   119.81771675   359.02892369
 C     21  20  19     1.391372283504   119.93459909     0.43299219
 C     16  14   7     1.833501346319   100.51374466   172.27814484
 C     23  16  14     1.406361601409   116.13028508    50.29604268
 C     24  23  16     1.392509543646   120.39676507   183.51832406
 C     25  24  23     1.396190800687   119.96128407   359.70107647
 C     26  25  24     1.395763937568   119.93385930     0.00000000
 C     27  26  25     1.394697831783   120.32890195     0.32196931
 C     16  14   7     1.832049980991   119.51130497   282.35937928
 C     29  16  14     1.400239334213   118.03717543    12.69527644
 C     30  29  16     1.394531635149   120.45676772   182.95896016
 C     31  30  29     1.395158353301   119.92595169     0.57750926
 C     32  31  30     1.397152878957   119.98032857     0.92143998
 C     33  32  31     1.393591348581   120.10989407   359.17044683
 C      7   2   1     1.836905143565   102.90246661   314.58506758
 C     35   7   2     1.403546696673   122.74883741   335.16173334
 C     36  35   7     1.394462833208   120.32166871   181.42265913
 C     37  36  35     1.395445639394   120.14764842     0.22078509
 C     38  37  36     1.395731267934   119.80612139     0.18455377
 C     39  38  37     1.393843662048   120.27137079   359.56209911
 H     24  23  16     1.089023324389   119.44498214     3.62811337
 H     25  24  23     1.086133137256   119.79942019   179.54439023
 H     26  25  24     1.086252700989   120.03181252   179.99742497
 H     27  26  25     1.086652901133   120.01718825   180.16206512
 H     28  27  26     1.085506896458   120.03413027   179.47451870
 H     18  17  16     1.084488316524   120.07143612     2.14367626
 H     19  18  17     1.086486009240   119.57638837   180.60816763
 H     20  19  18     1.086413982006   120.09284417   179.85624797
 H     21  20  19     1.086440454630   120.19342074   181.02181995
 H     22  21  20     1.088090897841   120.74126662   181.62843481
 H     30  29  16     1.088119184888   118.58793099     1.78588529
 H     31  30  29     1.086490565723   119.81949676   180.04998212
 H     32  31  30     1.086431089939   120.06768174   179.84611620
 H     33  32  31     1.086586890689   120.01323518   178.49380313
 H     34  33  32     1.086567758989   119.83742379   178.02379391
 H     36  35   7     1.085541542052   120.08879578     2.01124803
 H     37  36  35     1.086628479197   119.66556180   180.28746079
 H     38  37  36     1.086606332049   120.02524557   180.20046084
 H     39  38  37     1.086405300481   120.17369648   179.70023055
 H     40  39  38     1.087547529917   120.74635557   179.83214102
 H      9   8   7     1.087083354124   118.68605252   356.08168287
 H     10   9   8     1.086356627385   119.72150707   179.59771948
 H     11  10   9     1.086579698976   120.10692748   179.42723845
 H     12  11  10     1.086538398671   120.13466148   179.17179969
 H     13  12  11     1.085731598629   119.75618332   179.52372273
 H      3   2   1     1.085162212116   119.65686381   180.41332350
 H      4   3   2     1.086047059129   119.59988151   180.26038658
 H      5   4   3     1.086387102457   120.10722170   179.76710998
 H      6   1   2     1.086551144285   119.59540479   180.49376559
 H      1   2   3     1.083923695947   119.92905203   179.81912703

---------------------------
INTERNAL COORDINATES (A.U.)
---------------------------
 C      0   0   0     0.000000000000     0.00000000     0.00000000
 C      1   0   0     2.650565342563     0.00000000     0.00000000
 C      2   1   0     2.649068204887   118.90180699     0.00000000
 C      3   2   1     2.632661721728   120.42843219     0.83820739
 C      4   3   2     2.636188632335   120.25653494     0.05614847
 C      1   2   3     2.632458934243   120.56983421   358.87056170
 P      2   1   3     3.461871196858   120.83432960   183.02036390
 C      7   2   1     3.468903514488   101.75631923   206.91237124
 C      8   7   2     2.644264841117   118.93345329   250.88364388
 C      9   8   7     2.635460035431   120.22602970   177.42027668
 C     10   9   8     2.635592847769   120.06229825     0.43077663
 C     11  10   9     2.639462641669   119.92686884     0.10935244
 C     12  11  10     2.632562144809   120.12112872   359.60173541
 Rh     7   2   1     4.056229272302   121.82851499    82.75553087
 Cl    14   7   2     4.360727868044   104.89389407   168.60243162
 P     14   7   2     4.105713157878    95.48996015   347.94732276
 C     16  14   7     3.455482946564   121.21420767    59.69672999
 C     17  16  14     2.640494533620   125.28987829   216.90555073
 C     18  17  16     2.637867610715   120.15658434   180.97498081
 C     19  18  17     2.633500022948   120.34581645     0.15488265
 C     20  19  18     2.640171648761   119.81771675   359.02892369
 C     21  20  19     2.629312566150   119.93459909     0.43299219
 C     16  14   7     3.464815410719   100.51374466   172.27814484
 C     23  16  14     2.657638271926   116.13028508    50.29604268
 C     24  23  16     2.631461676363   120.39676507   183.51832406
 C     25  24  23     2.638418243999   119.96128407   359.70107647
 C     26  25  24     2.637611589608   119.93385930     0.00000000
 C     27  26  25     2.635596941644   120.32890195     0.32196931
 C     16  14   7     3.462072727729   119.51130497   282.35937928
 C     29  16  14     2.646068863606   118.03717543    12.69527644
 C     30  29  16     2.635282875521   120.45676772   182.95896016
 C     31  30  29     2.636467201192   119.92595169     0.57750926
 C     32  31  30     2.640236308448   119.98032857     0.92143998
 C     33  32  31     2.633505991421   120.10989407   359.17044683
 C      7   2   1     3.471247655330   102.90246661   314.58506758
 C     35   7   2     2.652318872882   122.74883741   335.16173334
 C     36  35   7     2.635152858695   120.32166871   181.42265913
 C     37  36  35     2.637010093230   120.14764842     0.22078509
 C     38  37  36     2.637549852946   119.80612139     0.18455377
 C     39  38  37     2.633982794773   120.27137079   359.56209911
 H     24  23  16     2.057955836548   119.44498214     3.62811337
 H     25  24  23     2.052494174390   119.79942019   179.54439023
 H     26  25  24     2.052720117101   120.03181252   179.99742497
 H     27  26  25     2.053476385773   120.01718825   180.16206512
 H     28  27  26     2.051310750788   120.03413027   179.47451870
 H     18  17  16     2.049385913668   120.07143612     2.14367626
 H     19  18  17     2.053161005800   119.57638837   180.60816763
 H     20  19  18     2.053024894055   120.09284417   179.85624797
 H     21  20  19     2.053074920064   120.19342074   181.02181995
 H     22  21  20     2.056193805732   120.74126662   181.62843481
 H     30  29  16     2.056247260505   118.58793099     1.78588529
 H     31  30  29     2.053169616306   119.81949676   180.04998212
 H     32  31  30     2.053057223361   120.06768174   179.84611620
 H     33  32  31     2.053351644112   120.01323518   178.49380313
 H     34  33  32     2.053315490438   119.83742379   178.02379391
 H     36  35   7     2.051376221473   120.08879578     2.01124803
 H     37  36  35     2.053430235003   119.66556180   180.28746079
 H     38  37  36     2.053388382957   120.02524557   180.20046084
 H     39  38  37     2.053008488349   120.17369648   179.70023055
 H     40  39  38     2.055166989166   120.74635557   179.83214102
 H      9   8   7     2.054289824038   118.68605252   356.08168287
 H     10   9   8     2.052916509529   119.72150707   179.59771948
 H     11  10   9     2.053338053743   120.10692748   179.42723845
 H     12  11  10     2.053260007477   120.13466148   179.17179969
 H     13  12  11     2.051735376354   119.75618332   179.52372273
 H      3   2   1     2.050659391779   119.65686381   180.41332350
 H      4   3   2     2.052331510304   119.59988151   180.26038658
 H      5   4   3     2.052974099068   120.10722170   179.76710998
 H      6   1   2     2.053284093197   119.59540479   180.49376559
 H      1   2   3     2.048318935408   119.92905203   179.81912703

---------------------
BASIS SET INFORMATION
---------------------
There are 5 groups of distinct atoms

 Group   1 Type C   : 12s6p3d1f contracted to 6s3p3d1f pattern {621111/411/111/1}
 Group   2 Type P   : 15s9p4d1f contracted to 6s5p4d1f pattern {732111/51111/1111/1}
 Group   3 Type Rh  : 7s7p6d2f1g contracted to 6s4p3d2f1g pattern {211111/4111/411/11/1}
 Group   4 Type Cl  : 15s10p4d1f contracted to 6s6p4d1f pattern {732111/511111/1111/1}
 Group   5 Type H   : 5s3p1d contracted to 3s3p1d pattern {311/111/1}

Atom   0C    basis set group =>   1
Atom   1C    basis set group =>   1
Atom   2C    basis set group =>   1
Atom   3C    basis set group =>   1
Atom   4C    basis set group =>   1
Atom   5C    basis set group =>   1
Atom   6P    basis set group =>   2
Atom   7C    basis set group =>   1
Atom   8C    basis set group =>   1
Atom   9C    basis set group =>   1
Atom  10C    basis set group =>   1
Atom  11C    basis set group =>   1
Atom  12C    basis set group =>   1
Atom  13Rh   basis set group =>   3
Atom  14Cl   basis set group =>   4
Atom  15P    basis set group =>   2
Atom  16C    basis set group =>   1
Atom  17C    basis set group =>   1
Atom  18C    basis set group =>   1
Atom  19C    basis set group =>   1
Atom  20C    basis set group =>   1
Atom  21C    basis set group =>   1
Atom  22C    basis set group =>   1
Atom  23C    basis set group =>   1
Atom  24C    basis set group =>   1
Atom  25C    basis set group =>   1
Atom  26C    basis set group =>   1
Atom  27C    basis set group =>   1
Atom  28C    basis set group =>   1
Atom  29C    basis set group =>   1
Atom  30C    basis set group =>   1
Atom  31C    basis set group =>   1
Atom  32C    basis set group =>   1
Atom  33C    basis set group =>   1
Atom  34C    basis set group =>   1
Atom  35C    basis set group =>   1
Atom  36C    basis set group =>   1
Atom  37C    basis set group =>   1
Atom  38C    basis set group =>   1
Atom  39C    basis set group =>   1
Atom  40H    basis set group =>   5
Atom  41H    basis set group =>   5
Atom  42H    basis set group =>   5
Atom  43H    basis set group =>   5
Atom  44H    basis set group =>   5
Atom  45H    basis set group =>   5
Atom  46H    basis set group =>   5
Atom  47H    basis set group =>   5
Atom  48H    basis set group =>   5
Atom  49H    basis set group =>   5
Atom  50H    basis set group =>   5
Atom  51H    basis set group =>   5
Atom  52H    basis set group =>   5
Atom  53H    basis set group =>   5
Atom  54H    basis set group =>   5
Atom  55H    basis set group =>   5
Atom  56H    basis set group =>   5
Atom  57H    basis set group =>   5
Atom  58H    basis set group =>   5
Atom  59H    basis set group =>   5
Atom  60H    basis set group =>   5
Atom  61H    basis set group =>   5
Atom  62H    basis set group =>   5
Atom  63H    basis set group =>   5
Atom  64H    basis set group =>   5
Atom  65H    basis set group =>   5
Atom  66H    basis set group =>   5
Atom  67H    basis set group =>   5
Atom  68H    basis set group =>   5
Atom  69H    basis set group =>   5
---------------------------------
AUXILIARY/J BASIS SET INFORMATION
---------------------------------
There are 5 groups of distinct atoms

 Group   1 Type C   : 12s5p4d2f1g contracted to 6s4p3d1f1g pattern {711111/2111/211/2/1}
 Group   2 Type P   : 14s5p5d2f1g contracted to 8s4p3d1f1g pattern {71111111/2111/311/2/1}
 Group   3 Type Rh  : 11s5p5d3f3g contracted to 8s5p5d2f3g pattern {41111111/11111/11111/21/111}
 Group   4 Type Cl  : 14s5p5d2f1g contracted to 8s4p3d1f1g pattern {71111111/2111/311/2/1}
 Group   5 Type H   : 5s2p1d contracted to 3s1p1d pattern {311/2/1}

Atom   0C    basis set group =>   1
Atom   1C    basis set group =>   1
Atom   2C    basis set group =>   1
Atom   3C    basis set group =>   1
Atom   4C    basis set group =>   1
Atom   5C    basis set group =>   1
Atom   6P    basis set group =>   2
Atom   7C    basis set group =>   1
Atom   8C    basis set group =>   1
Atom   9C    basis set group =>   1
Atom  10C    basis set group =>   1
Atom  11C    basis set group =>   1
Atom  12C    basis set group =>   1
Atom  13Rh   basis set group =>   3
Atom  14Cl   basis set group =>   4
Atom  15P    basis set group =>   2
Atom  16C    basis set group =>   1
Atom  17C    basis set group =>   1
Atom  18C    basis set group =>   1
Atom  19C    basis set group =>   1
Atom  20C    basis set group =>   1
Atom  21C    basis set group =>   1
Atom  22C    basis set group =>   1
Atom  23C    basis set group =>   1
Atom  24C    basis set group =>   1
Atom  25C    basis set group =>   1
Atom  26C    basis set group =>   1
Atom  27C    basis set group =>   1
Atom  28C    basis set group =>   1
Atom  29C    basis set group =>   1
Atom  30C    basis set group =>   1
Atom  31C    basis set group =>   1
Atom  32C    basis set group =>   1
Atom  33C    basis set group =>   1
Atom  34C    basis set group =>   1
Atom  35C    basis set group =>   1
Atom  36C    basis set group =>   1
Atom  37C    basis set group =>   1
Atom  38C    basis set group =>   1
Atom  39C    basis set group =>   1
Atom  40H    basis set group =>   5
Atom  41H    basis set group =>   5
Atom  42H    basis set group =>   5
Atom  43H    basis set group =>   5
Atom  44H    basis set group =>   5
Atom  45H    basis set group =>   5
Atom  46H    basis set group =>   5
Atom  47H    basis set group =>   5
Atom  48H    basis set group =>   5
Atom  49H    basis set group =>   5
Atom  50H    basis set group =>   5
Atom  51H    basis set group =>   5
Atom  52H    basis set group =>   5
Atom  53H    basis set group =>   5
Atom  54H    basis set group =>   5
Atom  55H    basis set group =>   5
Atom  56H    basis set group =>   5
Atom  57H    basis set group =>   5
Atom  58H    basis set group =>   5
Atom  59H    basis set group =>   5
Atom  60H    basis set group =>   5
Atom  61H    basis set group =>   5
Atom  62H    basis set group =>   5
Atom  63H    basis set group =>   5
Atom  64H    basis set group =>   5
Atom  65H    basis set group =>   5
Atom  66H    basis set group =>   5
Atom  67H    basis set group =>   5
Atom  68H    basis set group =>   5
Atom  69H    basis set group =>   5
-------------------------
ECP PARAMETER INFORMATION
-------------------------

 Group 1, Type Rh ECP Def2-ECP (replacing 28 core electrons, lmax=3)

Atom  13Rh   ECP group =>   1



           ************************************************************
           *        Program running with 24 parallel MPI-processes    *
           *              working on a common directory               *
           ************************************************************
------------------------------------------------------------------------------
                           ORCA GTO INTEGRAL CALCULATION
                           -- RI-GTO INTEGRALS CHOSEN --
------------------------------------------------------------------------------

                         BASIS SET STATISTICS AND STARTUP INFO

Gaussian basis set:
 # of primitive gaussian shells          ... 1173
 # of primitive gaussian functions       ... 2733
 # of contracted shells                  ...  743
 # of contracted basis functions         ... 2045
 Highest angular momentum                ...    4
 Maximum contraction depth               ...    7
Auxiliary gaussian basis set:
 # of primitive gaussian shells          ... 1212
 # of primitive gaussian functions       ... 3330
 # of contracted shells                  ...  764
 # of contracted aux-basis functions     ... 2336
 Highest angular momentum                ...    4
 Maximum contraction depth               ...    7
Ratio of auxiliary to basis functions    ...  1.14
Integral package used                  ... LIBINT
 One Electron integrals                  
   ECP integrals                         ... done
 Ordering auxiliary basis shells         ... done
 Integral threshhold             Thresh  ...  1.000e-10
 Primitive cut-off               TCut    ...  1.000e-11
 Pre-screening matrix                    ... done
 Shell pair data                         ... 
 Ordering of the shell pairs             ... done (   0.043 sec) 193133 of 276396 pairs
 Determination of significant pairs      ... done (   0.001 sec)
 Creation of shell pair data             ... done (   0.018 sec)
 Storage of shell pair data              ... done (   0.048 sec)
 Shell pair data done in (   0.110 sec)
 Computing two index integrals           ... done
 Cholesky decomposition of the V-matrix  ... done


Timings:
 Total evaluation time                   ...  12.542 sec (  0.209 min)
 One electron matrix time                ...  10.221 sec (  0.170 min) = 81.5%
 Schwartz matrix evaluation time         ...   1.788 sec (  0.030 min) = 14.3%
 Two index repulsion integral time       ...   0.122 sec (  0.002 min) =  1.0%
 Cholesky decomposition of V             ...   0.274 sec (  0.005 min) =  2.2%
 Three index repulsion integral time     ...   0.000 sec (  0.000 min) =  0.0%



           ************************************************************
           *        Program running with 24 parallel MPI-processes    *
           *              working on a common directory               *
           ************************************************************
-------------------------------------------------------------------------------
                                 ORCA SCF
-------------------------------------------------------------------------------

------------
SCF SETTINGS
------------
Hamiltonian:
 Density Functional     Method          .... DFT(GTOs)
 Exchange Functional    Exchange        .... TPSS
 Correlation Functional Correlation     .... TPSS
 LDA part of GGA corr.  LDAOpt          .... PW91-LDA
 Gradients option       PostSCFGGA      .... off
   Density functional embedding theory  .... OFF
   NL short-range parameter             ....  5.000000
 RI-approximation to the Coulomb term is turned on
   Number of auxiliary basis functions  .... 2336


General Settings:
 Integral files         IntName         .... MOR10_ed09
 Hartree-Fock type      HFTyp           .... RHF
 Total Charge           Charge          ....    0
 Multiplicity           Mult            ....    1
 Number of Electrons    NEL             ....  310
 Basis Dimension        Dim             .... 2045
 Nuclear Repulsion      ENuc            ....   5608.1046348967 Eh

Convergence Acceleration:
 DIIS                   CNVDIIS         .... on
   Start iteration      DIISMaxIt       ....    12
   Startup error        DIISStart       ....  0.200000
   # of expansion vecs  DIISMaxEq       ....     5
   Bias factor          DIISBfac        ....   1.050
   Max. coefficient     DIISMaxC        ....  10.000
 Newton-Raphson         CNVNR           .... off
 SOSCF                  CNVSOSCF        .... off
 Level Shifting         CNVShift        .... on
   Level shift para.    LevelShift      ....    0.2500
   Turn off err/grad.   ShiftErr        ....    0.0010
 Zerner damping         CNVZerner       .... off
 Static damping         CNVDamp         .... on
   Fraction old density DampFac         ....    0.7000
   Max. Damping (<1)    DampMax         ....    0.9800
   Min. Damping (>=0)   DampMin         ....    0.0000
   Turn off err/grad.   DampErr         ....    0.1000
 Fernandez-Rico         CNVRico         .... off

SCF Procedure:
 Maximum # iterations   MaxIter         ....   125
 SCF integral mode      SCFMode         .... Direct
   Integral package                     .... LIBINT
 Reset frequency        DirectResetFreq ....    20
 Integral Threshold     Thresh          ....  1.000e-10 Eh
 Primitive CutOff       TCut            ....  1.000e-11 Eh

Convergence Tolerance:
 Convergence Check Mode ConvCheckMode   .... Total+1el-Energy
 Convergence forced     ConvForced      .... 0
 Energy Change          TolE            ....  1.000e-06 Eh
 1-El. energy change                    ....  1.000e-03 Eh
 DIIS Error             TolErr          ....  1.000e-06


Diagonalization of the overlap matrix:
Smallest eigenvalue                        ... 1.739e-07
Time for diagonalization                   ...    0.479 sec
Threshold for overlap eigenvalues          ... 1.000e-08
Number of eigenvalues below threshold      ... 0
Time for construction of square roots      ...    0.603 sec
Total time needed                          ...    1.110 sec

-------------------
DFT GRID GENERATION
-------------------

General Integration Accuracy     IntAcc      ...  4.670
Radial Grid Type                 RadialGrid  ... Gauss-Chebyshev
Angular Grid (max. acc.)         AngularGrid ... Lebedev-302
Angular grid pruning method      GridPruning ... 3 (G Style)
Weight generation scheme         WeightScheme... Becke
Basis function cutoff            BFCut       ...    1.0000e-10
Integration weight cutoff        WCut        ...    1.0000e-14
Grids for H and He will be reduced by one unit

# of grid points (after initial pruning)     ... 356480 (   0.0 sec)
# of grid points (after weights+screening)   ... 299731 (   0.4 sec)
nearest neighbour list constructed           ...    0.0 sec
Grid point re-assignment to atoms done       ...    0.1 sec
Grid point division into batches done        ...    0.9 sec
Reduced shell lists constructed in    1.7 sec

Total number of grid points                  ...   299731
Total number of batches                      ...     4720
Average number of points per batch           ...       63
Average number of grid points per atom       ...     4282
Average number of shells per batch           ...   375.28 (50.51%)
Average number of basis functions per batch  ...  1004.74 (49.13%)
Average number of large shells per batch     ...   255.70 (68.14%)
Average number of large basis fcns per batch ...   685.30 (68.21%)
Maximum spatial batch extension              ...   9.84, 19.52, 10.18 au
Average spatial batch extension              ...   0.05,  0.06,  0.05 au

Time for grid setup =    2.258 sec

------------------------------
INITIAL GUESS: MODEL POTENTIAL
------------------------------
Loading Hartree-Fock densities                     ... done
  calling /sw/apps/orca/orca_4_2_0_linux_x86-64_openmpi314/orca MOR10_ed09_atom45.inp > MOR10_ed09_atom45.out in order to generate an atomic fitting density for atom 13 (Rh with ECP) on-the-fly... 
    atom 13 (Rh), assumed electronic state with S=4: 1s2 2s2 2p6 3s2 3p6 4s2 3d10 4p6 5s2 4d7           ... done
Calculating cut-offs                               ... done
Setting up the integral package                    ... done
Initializing the effective Hamiltonian             ... done
Starting the Coulomb interaction                   ... done (   1.0 sec)
Reading the grid                                   ... done
Mapping shells                                     ... done
Starting the XC term evaluation                    ... done (   2.4 sec)
  promolecular density results
     # of electrons  =    337.984309171
     EX              =   -399.017829475
     EC              =    -12.428552549
     EX+EC           =   -411.446382024
Transforming the Hamiltonian                       ... done (   0.3 sec)
Diagonalizing the Hamiltonian                      ... done (   0.5 sec)
Back transforming the eigenvectors                 ... done (   0.2 sec)
Now organizing SCF variables                       ... done
                      ------------------
                      INITIAL GUESS DONE (   8.1 sec)
                      ------------------
--------------
SCF ITERATIONS
--------------
ITER       Energy         Delta-E        Max-DP      RMS-DP      [F,P]     Damp
               ***  Starting incremental Fock matrix formation  ***
  0  -2643.5182763631   0.000000000000 1.66690707  0.00456117  0.4743606 0.7000
  1  -2643.9062081954  -0.387931832269 1.05175726  0.00347123  0.3016015 0.7000
  2  -2644.0492805384  -0.143072342949 1.00229468  0.00257970  0.2028131 0.7000
                               ***Turning on DIIS***
  3  -2644.1353590545  -0.086078516178 0.76687773  0.00165246  0.1459179 0.7000
  4  -2644.1953424403  -0.059983385806 0.61722683  0.00123065  0.1041487 0.7000
  5  -2644.2382262304  -0.042883790024 1.18125436  0.00292454  0.0701428 0.0000
  6  -2644.3376112488  -0.099385018428 0.21380307  0.00061865  0.0091322 0.0000
  7  -2644.3377585256  -0.000147276851 0.24587074  0.00064647  0.0088536 0.0000
  8  -2644.3379400862  -0.000181560603 0.66296651  0.00121845  0.0003977 0.0000
  9  -2644.3379420870  -0.000002000727 0.30734809  0.00081876  0.0002023 0.0000
 10  -2644.3379423326  -0.000000245660 0.23258935  0.00057437  0.0001695 0.0000
 11  -2644.3379426203  -0.000000287631 0.26145099  0.00071761  0.0000438 0.0000
                 **** Energy Check signals convergence ****

               *****************************************************
               *                     SUCCESS                       *
               *           SCF CONVERGED AFTER  12 CYCLES          *
               *****************************************************


----------------
TOTAL SCF ENERGY
----------------

Total Energy       :        -2644.33794227 Eh          -71956.09359 eV

Components:
Nuclear Repulsion  :         5608.10463490 Eh          152604.28537 eV
Electronic Energy  :        -8252.44257717 Eh         -224560.37895 eV
One Electron Energy:       -14830.01971109 Eh         -403545.35219 eV
Two Electron Energy:         6577.57713392 Eh          178984.97323 eV

Virial components:
Potential Energy   :        -5210.10764531 Eh         -141774.23669 eV
Kinetic Energy     :         2565.76970304 Eh           69818.14311 eV
Virial Ratio       :            2.03062170


DFT components:
N(Alpha)           :      154.999535555935 electrons
N(Beta)            :      154.999535555935 electrons
N(Total)           :      309.999071111870 electrons
E(X)               :     -282.800564364308 Eh       
E(C)               :      -10.797825671897 Eh       
E(XC)              :     -293.598390036205 Eh       
DFET-embed. en.    :        0.000000000000 Eh       

---------------
SCF CONVERGENCE
---------------

  Last Energy change         ...    3.4606e-07  Tolerance :   1.0000e-06
  Last MAX-Density change    ...    2.9052e-01  Tolerance :   1.0000e-05
  Last RMS-Density change    ...    5.8588e-04  Tolerance :   1.0000e-06
  Last DIIS Error            ...    3.0353e-05  Tolerance :   1.0000e-06

             **** THE GBW FILE WAS UPDATED (MOR10_ed09.gbw) ****
             **** DENSITY FILE WAS UPDATED (MOR10_ed09.scfp) ****
             **** ENERGY FILE WAS UPDATED (MOR10_ed09.en.tmp) ****
             **** THE GBW FILE WAS UPDATED (MOR10_ed09.gbw) ****
             **** DENSITY FILE WAS UPDATED (MOR10_ed09.scfp) ****
----------------
ORBITAL ENERGIES
----------------

  NO   OCC          E(Eh)            E(eV) 
   0   2.0000    -100.907069     -2745.8209 
   1   2.0000     -76.623557     -2085.0330 
   2   2.0000     -76.614280     -2084.7805 
   3   2.0000     -10.004300      -272.2308 
   4   2.0000     -10.004007      -272.2229 
   5   2.0000     -10.003921      -272.2205 
   6   2.0000     -10.003902      -272.2200 
   7   2.0000     -10.002691      -272.1871 
   8   2.0000     -10.002585      -272.1842 
   9   2.0000     -10.001491      -272.1544 
  10   2.0000     -10.001028      -272.1418 
  11   2.0000     -10.000763      -272.1346 
  12   2.0000      -9.999838      -272.1094 
  13   2.0000      -9.999828      -272.1092 
  14   2.0000      -9.999680      -272.1051 
  15   2.0000      -9.999665      -272.1047 
  16   2.0000      -9.999331      -272.0956 
  17   2.0000      -9.999247      -272.0933 
  18   2.0000      -9.999162      -272.0910 
  19   2.0000      -9.999016      -272.0870 
  20   2.0000      -9.998974      -272.0859 
  21   2.0000      -9.998590      -272.0755 
  22   2.0000      -9.998245      -272.0661 
  23   2.0000      -9.998111      -272.0624 
  24   2.0000      -9.997751      -272.0526 
  25   2.0000      -9.997605      -272.0487 
  26   2.0000      -9.997154      -272.0364 
  27   2.0000      -9.997096      -272.0348 
  28   2.0000      -9.996139      -272.0088 
  29   2.0000      -9.996080      -272.0072 
  30   2.0000      -9.995499      -271.9914 
  31   2.0000      -9.995353      -271.9874 
  32   2.0000      -9.993984      -271.9501 
  33   2.0000      -9.992812      -271.9182 
  34   2.0000      -9.991779      -271.8901 
  35   2.0000      -9.991567      -271.8844 
  36   2.0000      -9.989709      -271.8338 
  37   2.0000      -9.989513      -271.8285 
  38   2.0000      -9.988989      -271.8142 
  39   2.0000      -9.156586      -249.1634 
  40   2.0000      -6.931166      -188.6066 
  41   2.0000      -6.928405      -188.5315 
  42   2.0000      -6.927900      -188.5178 
  43   2.0000      -6.394332      -173.9986 
  44   2.0000      -6.386815      -173.7941 
  45   2.0000      -4.571939      -124.4088 
  46   2.0000      -4.571742      -124.4034 
  47   2.0000      -4.569843      -124.3517 
  48   2.0000      -4.564487      -124.2060 
  49   2.0000      -4.564182      -124.1977 
  50   2.0000      -4.561819      -124.1334 
  51   2.0000      -3.076863       -83.7257 
  52   2.0000      -1.875509       -51.0352 
  53   2.0000      -1.875017       -51.0218 
  54   2.0000      -1.838281       -50.0222 
  55   2.0000      -0.811181       -22.0733 
  56   2.0000      -0.806591       -21.9485 
  57   2.0000      -0.803066       -21.8525 
  58   2.0000      -0.800341       -21.7784 
  59   2.0000      -0.797810       -21.7095 
  60   2.0000      -0.794696       -21.6248 
  61   2.0000      -0.727579       -19.7984 
  62   2.0000      -0.723140       -19.6776 
  63   2.0000      -0.702264       -19.1096 
  64   2.0000      -0.702197       -19.1078 
  65   2.0000      -0.699705       -19.0399 
  66   2.0000      -0.698298       -19.0016 
  67   2.0000      -0.695584       -18.9278 
  68   2.0000      -0.695112       -18.9150 
  69   2.0000      -0.694065       -18.8865 
  70   2.0000      -0.692236       -18.8367 
  71   2.0000      -0.690512       -18.7898 
  72   2.0000      -0.688639       -18.7388 
  73   2.0000      -0.668357       -18.1869 
  74   2.0000      -0.612708       -16.6726 
  75   2.0000      -0.608156       -16.5488 
  76   2.0000      -0.570643       -15.5280 
  77   2.0000      -0.568632       -15.4733 
  78   2.0000      -0.567229       -15.4351 
  79   2.0000      -0.562836       -15.3155 
  80   2.0000      -0.560827       -15.2609 
  81   2.0000      -0.557373       -15.1669 
  82   2.0000      -0.555953       -15.1283 
  83   2.0000      -0.554937       -15.1006 
  84   2.0000      -0.553092       -15.0504 
  85   2.0000      -0.548103       -14.9146 
  86   2.0000      -0.522979       -14.2310 
  87   2.0000      -0.517879       -14.0922 
  88   2.0000      -0.483881       -13.1671 
  89   2.0000      -0.483386       -13.1536 
  90   2.0000      -0.479989       -13.0612 
  91   2.0000      -0.475767       -12.9463 
  92   2.0000      -0.464333       -12.6351 
  93   2.0000      -0.460066       -12.5190 
  94   2.0000      -0.424971       -11.5640 
  95   2.0000      -0.423618       -11.5272 
  96   2.0000      -0.421755       -11.4765 
  97   2.0000      -0.421295       -11.4640 
  98   2.0000      -0.419197       -11.4069 
  99   2.0000      -0.414746       -11.2858 
 100   2.0000      -0.413140       -11.2421 
 101   2.0000      -0.410890       -11.1809 
 102   2.0000      -0.410608       -11.1732 
 103   2.0000      -0.410391       -11.1673 
 104   2.0000      -0.406968       -11.0742 
 105   2.0000      -0.404439       -11.0054 
 106   2.0000      -0.392374       -10.6770 
 107   2.0000      -0.390516       -10.6265 
 108   2.0000      -0.388663       -10.5761 
 109   2.0000      -0.386880       -10.5275 
 110   2.0000      -0.385097       -10.4790 
 111   2.0000      -0.383034       -10.4229 
 112   2.0000      -0.380250       -10.3471 
 113   2.0000      -0.377525       -10.2730 
 114   2.0000      -0.374406       -10.1881 
 115   2.0000      -0.368494       -10.0272 
 116   2.0000      -0.359195        -9.7742 
 117   2.0000      -0.348365        -9.4795 
 118   2.0000      -0.345135        -9.3916 
 119   2.0000      -0.343509        -9.3474 
 120   2.0000      -0.339106        -9.2275 
 121   2.0000      -0.337909        -9.1950 
 122   2.0000      -0.333219        -9.0673 
 123   2.0000      -0.327418        -8.9095 
 124   2.0000      -0.319868        -8.7041 
 125   2.0000      -0.316024        -8.5994 
 126   2.0000      -0.314757        -8.5650 
 127   2.0000      -0.313835        -8.5399 
 128   2.0000      -0.312809        -8.5120 
 129   2.0000      -0.310614        -8.4522 
 130   2.0000      -0.307118        -8.3571 
 131   2.0000      -0.305228        -8.3057 
 132   2.0000      -0.297531        -8.0962 
 133   2.0000      -0.296692        -8.0734 
 134   2.0000      -0.293252        -7.9798 
 135   2.0000      -0.292691        -7.9645 
 136   2.0000      -0.263412        -7.1678 
 137   2.0000      -0.253956        -6.9105 
 138   2.0000      -0.247147        -6.7252 
 139   2.0000      -0.245954        -6.6927 
 140   2.0000      -0.243633        -6.6296 
 141   2.0000      -0.240768        -6.5516 
 142   2.0000      -0.238366        -6.4863 
 143   2.0000      -0.237317        -6.4577 
 144   2.0000      -0.236213        -6.4277 
 145   2.0000      -0.234895        -6.3918 
 146   2.0000      -0.232160        -6.3174 
 147   2.0000      -0.229272        -6.2388 
 148   2.0000      -0.226120        -6.1530 
 149   2.0000      -0.225441        -6.1346 
 150   2.0000      -0.220589        -6.0025 
 151   2.0000      -0.186531        -5.0758 
 152   2.0000      -0.183248        -4.9864 
 153   2.0000      -0.167250        -4.5511 
 154   2.0000      -0.151715        -4.1284 
 155   0.0000      -0.087758        -2.3880 
 156   0.0000      -0.067362        -1.8330 
 157   0.0000      -0.062505        -1.7009 
 158   0.0000      -0.061352        -1.6695 
 159   0.0000      -0.055681        -1.5152 
 160   0.0000      -0.053113        -1.4453 
 161   0.0000      -0.047394        -1.2896 
 162   0.0000      -0.046350        -1.2613 
 163   0.0000      -0.044971        -1.2237 
 164   0.0000      -0.041131        -1.1192 
 165   0.0000      -0.036323        -0.9884 
 166   0.0000      -0.031862        -0.8670 
 167   0.0000      -0.028929        -0.7872 
 168   0.0000      -0.014983        -0.4077 
 169   0.0000      -0.013091        -0.3562 
 170   0.0000      -0.002111        -0.0575 
 171   0.0000      -0.000519        -0.0141 
 172   0.0000       0.002510         0.0683 
 173   0.0000       0.009033         0.2458 
 174   0.0000       0.011362         0.3092 
 175   0.0000       0.013843         0.3767 
 176   0.0000       0.018610         0.5064 
 177   0.0000       0.022377         0.6089 
 178   0.0000       0.025548         0.6952 
 179   0.0000       0.026929         0.7328 
 180   0.0000       0.028962         0.7881 
 181   0.0000       0.033310         0.9064 
 182   0.0000       0.036290         0.9875 
 183   0.0000       0.037578         1.0226 
 184   0.0000       0.042069         1.1448 
 185   0.0000       0.043385         1.1806 
 186   0.0000       0.045002         1.2246 
 187   0.0000       0.046298         1.2598 
 188   0.0000       0.049255         1.3403 
 189   0.0000       0.052281         1.4226 
 190   0.0000       0.052636         1.4323 
 191   0.0000       0.054429         1.4811 
 192   0.0000       0.058692         1.5971 
 193   0.0000       0.061439         1.6718 
 194   0.0000       0.063310         1.7227 
 195   0.0000       0.065376         1.7790 
 196   0.0000       0.068712         1.8698 
 197   0.0000       0.072129         1.9627 
 198   0.0000       0.072621         1.9761 
 199   0.0000       0.074137         2.0174 
 200   0.0000       0.077868         2.1189 
 201   0.0000       0.081909         2.2288 
 202   0.0000       0.083257         2.2655 
 203   0.0000       0.085344         2.3223 
 204   0.0000       0.087916         2.3923 
 205   0.0000       0.089072         2.4238 
 206   0.0000       0.091110         2.4792 
 207   0.0000       0.092851         2.5266 
 208   0.0000       0.093938         2.5562 
 209   0.0000       0.095167         2.5896 
 210   0.0000       0.099130         2.6975 
 211   0.0000       0.100039         2.7222 
 212   0.0000       0.102132         2.7792 
 213   0.0000       0.105477         2.8702 
 214   0.0000       0.106113         2.8875 
 215   0.0000       0.107416         2.9229 
 216   0.0000       0.110114         2.9963 
 217   0.0000       0.112678         3.0661 
 218   0.0000       0.114002         3.1022 
 219   0.0000       0.115409         3.1404 
 220   0.0000       0.120139         3.2692 
 221   0.0000       0.120968         3.2917 
 222   0.0000       0.121401         3.3035 
 223   0.0000       0.125558         3.4166 
 224   0.0000       0.126534         3.4432 
 225   0.0000       0.128253         3.4899 
 226   0.0000       0.130197         3.5428 
 227   0.0000       0.131953         3.5906 
 228   0.0000       0.134018         3.6468 
 229   0.0000       0.135174         3.6783 
 230   0.0000       0.139787         3.8038 
 231   0.0000       0.141612         3.8534 
 232   0.0000       0.141996         3.8639 
 233   0.0000       0.142968         3.8904 
 234   0.0000       0.147704         4.0192 
 235   0.0000       0.148501         4.0409 
 236   0.0000       0.149614         4.0712 
 237   0.0000       0.152901         4.1606 
 238   0.0000       0.153758         4.1840 
 239   0.0000       0.156141         4.2488 
 240   0.0000       0.158481         4.3125 
 241   0.0000       0.161027         4.3818 
 242   0.0000       0.162838         4.4310 
 243   0.0000       0.163227         4.4416 
 244   0.0000       0.166257         4.5241 
 245   0.0000       0.168521         4.5857 
 246   0.0000       0.170716         4.6454 
 247   0.0000       0.171907         4.6778 
 248   0.0000       0.172751         4.7008 
 249   0.0000       0.175244         4.7686 
 250   0.0000       0.176677         4.8076 
 251   0.0000       0.178668         4.8618 
 252   0.0000       0.179965         4.8971 
 253   0.0000       0.182555         4.9676 
 254   0.0000       0.182991         4.9794 
 255   0.0000       0.184257         5.0139 
 256   0.0000       0.184944         5.0326 
 257   0.0000       0.187992         5.1155 
 258   0.0000       0.188658         5.1337 
 259   0.0000       0.190160         5.1745 
 260   0.0000       0.192064         5.2263 
 261   0.0000       0.192456         5.2370 
 262   0.0000       0.195897         5.3306 
 263   0.0000       0.196737         5.3535 
 264   0.0000       0.198177         5.3927 
 265   0.0000       0.199576         5.4308 
 266   0.0000       0.201013         5.4699 
 267   0.0000       0.202527         5.5110 
 268   0.0000       0.203776         5.5450 
 269   0.0000       0.204727         5.5709 
 270   0.0000       0.207126         5.6362 
 271   0.0000       0.207987         5.6596 
 272   0.0000       0.208721         5.6796 
 273   0.0000       0.210172         5.7191 
 274   0.0000       0.212270         5.7762 
 275   0.0000       0.213719         5.8156 
 276   0.0000       0.214728         5.8431 
 277   0.0000       0.215577         5.8662 
 278   0.0000       0.215943         5.8761 
 279   0.0000       0.217870         5.9285 
 280   0.0000       0.220651         6.0042 
 281   0.0000       0.222229         6.0472 
 282   0.0000       0.222377         6.0512 
 283   0.0000       0.226050         6.1511 
 284   0.0000       0.226569         6.1653 
 285   0.0000       0.227816         6.1992 
 286   0.0000       0.228933         6.2296 
 287   0.0000       0.229786         6.2528 
 288   0.0000       0.231263         6.2930 
 289   0.0000       0.234384         6.3779 
 290   0.0000       0.236883         6.4459 
 291   0.0000       0.237733         6.4691 
 292   0.0000       0.238556         6.4914 
 293   0.0000       0.241713         6.5773 
 294   0.0000       0.242003         6.5852 
 295   0.0000       0.243772         6.6334 
 296   0.0000       0.244567         6.6550 
 297   0.0000       0.246174         6.6987 
 298   0.0000       0.247748         6.7416 
 299   0.0000       0.249189         6.7808 
 300   0.0000       0.250815         6.8250 
 301   0.0000       0.252835         6.8800 
 302   0.0000       0.253055         6.8860 
 303   0.0000       0.255099         6.9416 
 304   0.0000       0.257921         7.0184 
 305   0.0000       0.259778         7.0689 
 306   0.0000       0.260691         7.0938 
 307   0.0000       0.261910         7.1269 
 308   0.0000       0.263752         7.1771 
 309   0.0000       0.265833         7.2337 
 310   0.0000       0.268293         7.3006 
 311   0.0000       0.269395         7.3306 
 312   0.0000       0.270213         7.3529 
 313   0.0000       0.272453         7.4138 
 314   0.0000       0.274965         7.4822 
 315   0.0000       0.275194         7.4884 
 316   0.0000       0.277248         7.5443 
 317   0.0000       0.278376         7.5750 
 318   0.0000       0.279416         7.6033 
 319   0.0000       0.281344         7.6558 
 320   0.0000       0.282957         7.6996 
 321   0.0000       0.284319         7.7367 
 322   0.0000       0.284920         7.7531 
 323   0.0000       0.285736         7.7753 
 324   0.0000       0.287889         7.8339 
 325   0.0000       0.288307         7.8452 
 326   0.0000       0.290069         7.8932 
 327   0.0000       0.291971         7.9449 
 328   0.0000       0.293289         7.9808 
 329   0.0000       0.293784         7.9943 
 330   0.0000       0.295618         8.0442 
 331   0.0000       0.295829         8.0499 
 332   0.0000       0.299034         8.1371 
 333   0.0000       0.299743         8.1564 
 334   0.0000       0.301265         8.1978 
 335   0.0000       0.301921         8.2157 
 336   0.0000       0.302796         8.2395 
 337   0.0000       0.304673         8.2906 
 338   0.0000       0.306023         8.3273 
 339   0.0000       0.309569         8.4238 
 340   0.0000       0.310197         8.4409 
 341   0.0000       0.311465         8.4754 
 342   0.0000       0.311686         8.4814 
 343   0.0000       0.314776         8.5655 
 344   0.0000       0.315355         8.5812 
 345   0.0000       0.316613         8.6155 
 346   0.0000       0.318347         8.6627 
 347   0.0000       0.320021         8.7082 
 348   0.0000       0.320966         8.7339 
 349   0.0000       0.322365         8.7720 
 350   0.0000       0.324710         8.8358 
 351   0.0000       0.326293         8.8789 
 352   0.0000       0.327066         8.8999 
 353   0.0000       0.328590         8.9414 
 354   0.0000       0.328991         8.9523 
 355   0.0000       0.331618         9.0238 
 356   0.0000       0.332149         9.0382 
 357   0.0000       0.332219         9.0401 
 358   0.0000       0.333850         9.0845 
 359   0.0000       0.335795         9.1374 
 360   0.0000       0.336410         9.1542 
 361   0.0000       0.338662         9.2155 
 362   0.0000       0.339407         9.2357 
 363   0.0000       0.340234         9.2582 
 364   0.0000       0.341162         9.2835 
 365   0.0000       0.342737         9.3263 
 366   0.0000       0.344646         9.3783 
 367   0.0000       0.344780         9.3819 
 368   0.0000       0.346908         9.4398 
 369   0.0000       0.348149         9.4736 
 370   0.0000       0.349116         9.4999 
 371   0.0000       0.350763         9.5447 
 372   0.0000       0.351937         9.5767 
 373   0.0000       0.353649         9.6233 
 374   0.0000       0.354925         9.6580 
 375   0.0000       0.355022         9.6606 
 376   0.0000       0.357077         9.7165 
 377   0.0000       0.358634         9.7589 
 378   0.0000       0.359468         9.7816 
 379   0.0000       0.359909         9.7936 
 380   0.0000       0.360844         9.8191 
 381   0.0000       0.364078         9.9071 
 382   0.0000       0.365627         9.9492 
 383   0.0000       0.367231         9.9929 
 384   0.0000       0.367562        10.0019 
 385   0.0000       0.369108        10.0439 
 386   0.0000       0.371177        10.1002 
 387   0.0000       0.371299        10.1036 
 388   0.0000       0.372069        10.1245 
 389   0.0000       0.375744        10.2245 
 390   0.0000       0.376908        10.2562 
 391   0.0000       0.377997        10.2858 
 392   0.0000       0.380438        10.3522 
 393   0.0000       0.382022        10.3954 
 394   0.0000       0.382682        10.4133 
 395   0.0000       0.385228        10.4826 
 396   0.0000       0.385802        10.4982 
 397   0.0000       0.388297        10.5661 
 398   0.0000       0.389537        10.5998 
 399   0.0000       0.391728        10.6594 
 400   0.0000       0.394001        10.7213 
 401   0.0000       0.396321        10.7845 
 402   0.0000       0.396485        10.7889 
 403   0.0000       0.398224        10.8362 
 404   0.0000       0.400939        10.9101 
 405   0.0000       0.401096        10.9144 
 406   0.0000       0.402616        10.9557 
 407   0.0000       0.406090        11.0503 
 408   0.0000       0.407820        11.0973 
 409   0.0000       0.409824        11.1519 
 410   0.0000       0.410321        11.1654 
 411   0.0000       0.413403        11.2493 
 412   0.0000       0.415042        11.2939 
 413   0.0000       0.416393        11.3306 
 414   0.0000       0.417660        11.3651 
 415   0.0000       0.421109        11.4590 
 416   0.0000       0.421460        11.4685 
 417   0.0000       0.423698        11.5294 
 418   0.0000       0.425321        11.5736 
 419   0.0000       0.425588        11.5808 
 420   0.0000       0.428501        11.6601 
 421   0.0000       0.429478        11.6867 
 422   0.0000       0.431709        11.7474 
 423   0.0000       0.432320        11.7640 
 424   0.0000       0.435175        11.8417 
 425   0.0000       0.436745        11.8844 
 426   0.0000       0.440181        11.9779 
 427   0.0000       0.441515        12.0142 
 428   0.0000       0.443140        12.0584 
 429   0.0000       0.443734        12.0746 
 430   0.0000       0.445421        12.1205 
 431   0.0000       0.446594        12.1524 
 432   0.0000       0.449081        12.2201 
 433   0.0000       0.451379        12.2826 
 434   0.0000       0.451910        12.2971 
 435   0.0000       0.454069        12.3559 
 436   0.0000       0.455844        12.4041 
 437   0.0000       0.458846        12.4858 
 438   0.0000       0.460097        12.5199 
 439   0.0000       0.462657        12.5895 
 440   0.0000       0.464064        12.6278 
 441   0.0000       0.465974        12.6798 
 442   0.0000       0.468040        12.7360 
 443   0.0000       0.468833        12.7576 
 444   0.0000       0.469647        12.7797 
 445   0.0000       0.474453        12.9105 
 446   0.0000       0.475535        12.9400 
 447   0.0000       0.477533        12.9943 
 448   0.0000       0.478549        13.0220 
 449   0.0000       0.479358        13.0440 
 450   0.0000       0.481223        13.0947 
 451   0.0000       0.484225        13.1764 
 452   0.0000       0.485345        13.2069 
 453   0.0000       0.488083        13.2814 
 454   0.0000       0.489649        13.3240 
 455   0.0000       0.491230        13.3671 
 456   0.0000       0.494134        13.4461 
 457   0.0000       0.495937        13.4951 
 458   0.0000       0.497596        13.5403 
 459   0.0000       0.498836        13.5740 
 460   0.0000       0.500953        13.6316 
 461   0.0000       0.502378        13.6704 
 462   0.0000       0.503314        13.6959 
 463   0.0000       0.505480        13.7548 
 464   0.0000       0.507827        13.8187 
 465   0.0000       0.509389        13.8612 
 466   0.0000       0.510550        13.8928 
 467   0.0000       0.512365        13.9421 
 468   0.0000       0.514326        13.9955 
 469   0.0000       0.515912        14.0387 
 470   0.0000       0.516578        14.0568 
 471   0.0000       0.519087        14.1251 
 472   0.0000       0.521327        14.1860 
 473   0.0000       0.522833        14.2270 
 474   0.0000       0.525080        14.2882 
 475   0.0000       0.526300        14.3214 
 476   0.0000       0.529203        14.4003 
 477   0.0000       0.529854        14.4181 
 478   0.0000       0.531940        14.4748 
 479   0.0000       0.532776        14.4976 
 480   0.0000       0.533576        14.5194 
 481   0.0000       0.535554        14.5732 
 482   0.0000       0.536658        14.6032 
 483   0.0000       0.538376        14.6500 
 484   0.0000       0.541561        14.7366 
 485   0.0000       0.543067        14.7776 
 486   0.0000       0.543346        14.7852 
 487   0.0000       0.546126        14.8608 
 488   0.0000       0.547672        14.9029 
 489   0.0000       0.548922        14.9369 
 490   0.0000       0.551306        15.0018 
 491   0.0000       0.552110        15.0237 
 492   0.0000       0.553852        15.0711 
 493   0.0000       0.556018        15.1300 
 494   0.0000       0.557005        15.1569 
 495   0.0000       0.558589        15.2000 
 496   0.0000       0.559709        15.2304 
 497   0.0000       0.561169        15.2702 
 498   0.0000       0.562200        15.2982 
 499   0.0000       0.564614        15.3639 
 500   0.0000       0.565618        15.3912 
 501   0.0000       0.566893        15.4259 
 502   0.0000       0.569236        15.4897 
 503   0.0000       0.570723        15.5302 
 504   0.0000       0.572297        15.5730 
 505   0.0000       0.572709        15.5842 
 506   0.0000       0.574574        15.6350 
 507   0.0000       0.575457        15.6590 
 508   0.0000       0.576667        15.6919 
 509   0.0000       0.577575        15.7166 
 510   0.0000       0.579573        15.7710 
 511   0.0000       0.582669        15.8552 
 512   0.0000       0.583692        15.8831 
 513   0.0000       0.584789        15.9129 
 514   0.0000       0.586425        15.9574 
 515   0.0000       0.587808        15.9951 
 516   0.0000       0.589049        16.0288 
 517   0.0000       0.591944        16.1076 
 518   0.0000       0.592631        16.1263 
 519   0.0000       0.594242        16.1702 
 520   0.0000       0.594749        16.1840 
 521   0.0000       0.596189        16.2231 
 522   0.0000       0.597319        16.2539 
 523   0.0000       0.598291        16.2803 
 524   0.0000       0.600642        16.3443 
 525   0.0000       0.602337        16.3904 
 526   0.0000       0.602571        16.3968 
 527   0.0000       0.603338        16.4177 
 528   0.0000       0.604243        16.4423 
 529   0.0000       0.605784        16.4842 
 530   0.0000       0.608940        16.5701 
 531   0.0000       0.610591        16.6150 
 532   0.0000       0.611519        16.6403 
 533   0.0000       0.611885        16.6502 
 534   0.0000       0.613933        16.7060 
 535   0.0000       0.615072        16.7370 
 536   0.0000       0.616339        16.7714 
 537   0.0000       0.617980        16.8161 
 538   0.0000       0.620741        16.8912 
 539   0.0000       0.621815        16.9204 
 540   0.0000       0.623756        16.9733 
 541   0.0000       0.624095        16.9825 
 542   0.0000       0.625064        17.0089 
 543   0.0000       0.626800        17.0561 
 544   0.0000       0.627672        17.0798 
 545   0.0000       0.628692        17.1076 
 546   0.0000       0.630769        17.1641 
 547   0.0000       0.631007        17.1706 
 548   0.0000       0.633388        17.2354 
 549   0.0000       0.634998        17.2792 
 550   0.0000       0.635217        17.2851 
 551   0.0000       0.635455        17.2916 
 552   0.0000       0.636479        17.3195 
 553   0.0000       0.638244        17.3675 
 554   0.0000       0.640277        17.4228 
 555   0.0000       0.640893        17.4396 
 556   0.0000       0.643130        17.5005 
 557   0.0000       0.643749        17.5173 
 558   0.0000       0.645133        17.5550 
 559   0.0000       0.646983        17.6053 
 560   0.0000       0.648644        17.6505 
 561   0.0000       0.649204        17.6657 
 562   0.0000       0.650396        17.6982 
 563   0.0000       0.651306        17.7229 
 564   0.0000       0.652114        17.7449 
 565   0.0000       0.652516        17.7559 
 566   0.0000       0.655377        17.8337 
 567   0.0000       0.656568        17.8661 
 568   0.0000       0.658264        17.9123 
 569   0.0000       0.659700        17.9514 
 570   0.0000       0.662710        18.0333 
 571   0.0000       0.663490        18.0545 
 572   0.0000       0.665608        18.1121 
 573   0.0000       0.667129        18.1535 
 574   0.0000       0.667790        18.1715 
 575   0.0000       0.670105        18.2345 
 576   0.0000       0.672084        18.2883 
 577   0.0000       0.673407        18.3243 
 578   0.0000       0.673942        18.3389 
 579   0.0000       0.676561        18.4102 
 580   0.0000       0.677221        18.4281 
 581   0.0000       0.678775        18.4704 
 582   0.0000       0.680087        18.5061 
 583   0.0000       0.682226        18.5643 
 584   0.0000       0.683566        18.6008 
 585   0.0000       0.685579        18.6556 
 586   0.0000       0.686899        18.6915 
 587   0.0000       0.687820        18.7165 
 588   0.0000       0.689794        18.7702 
 589   0.0000       0.691736        18.8231 
 590   0.0000       0.692373        18.8404 
 591   0.0000       0.695236        18.9183 
 592   0.0000       0.696550        18.9541 
 593   0.0000       0.698967        19.0199 
 594   0.0000       0.700450        19.0602 
 595   0.0000       0.701381        19.0855 
 596   0.0000       0.702611        19.1190 
 597   0.0000       0.703804        19.1515 
 598   0.0000       0.705411        19.1952 
 599   0.0000       0.706238        19.2177 
 600   0.0000       0.707927        19.2637 
 601   0.0000       0.710614        19.3368 
 602   0.0000       0.712600        19.3908 
 603   0.0000       0.713168        19.4063 
 604   0.0000       0.715857        19.4795 
 605   0.0000       0.718227        19.5439 
 606   0.0000       0.719044        19.5662 
 607   0.0000       0.720594        19.6083 
 608   0.0000       0.722322        19.6554 
 609   0.0000       0.723431        19.6856 
 610   0.0000       0.723911        19.6986 
 611   0.0000       0.726825        19.7779 
 612   0.0000       0.727595        19.7989 
 613   0.0000       0.730723        19.8840 
 614   0.0000       0.731694        19.9104 
 615   0.0000       0.732414        19.9300 
 616   0.0000       0.734694        19.9920 
 617   0.0000       0.735268        20.0077 
 618   0.0000       0.736979        20.0542 
 619   0.0000       0.739184        20.1142 
 620   0.0000       0.740994        20.1635 
 621   0.0000       0.741646        20.1812 
 622   0.0000       0.742649        20.2085 
 623   0.0000       0.743354        20.2277 
 624   0.0000       0.745094        20.2750 
 625   0.0000       0.746319        20.3084 
 626   0.0000       0.747319        20.3356 
 627   0.0000       0.749242        20.3879 
 628   0.0000       0.751471        20.4486 
 629   0.0000       0.753472        20.5030 
 630   0.0000       0.755917        20.5695 
 631   0.0000       0.758146        20.6302 
 632   0.0000       0.760304        20.6889 
 633   0.0000       0.761373        20.7180 
 634   0.0000       0.762809        20.7571 
 635   0.0000       0.763022        20.7629 
 636   0.0000       0.766640        20.8613 
 637   0.0000       0.768238        20.9048 
 638   0.0000       0.770432        20.9645 
 639   0.0000       0.771468        20.9927 
 640   0.0000       0.772715        21.0267 
 641   0.0000       0.774957        21.0877 
 642   0.0000       0.775823        21.1112 
 643   0.0000       0.777254        21.1501 
 644   0.0000       0.779582        21.2135 
 645   0.0000       0.782033        21.2802 
 646   0.0000       0.783851        21.3297 
 647   0.0000       0.786149        21.3922 
 648   0.0000       0.786651        21.4059 
 649   0.0000       0.788477        21.4555 
 650   0.0000       0.790864        21.5205 
 651   0.0000       0.792930        21.5767 
 652   0.0000       0.794723        21.6255 
 653   0.0000       0.795775        21.6541 
 654   0.0000       0.797009        21.6877 
 655   0.0000       0.798470        21.7275 
 656   0.0000       0.801215        21.8022 
 657   0.0000       0.804689        21.8967 
 658   0.0000       0.805282        21.9128 
 659   0.0000       0.806861        21.9558 
 660   0.0000       0.808748        22.0072 
 661   0.0000       0.811189        22.0736 
 662   0.0000       0.812426        22.1072 
 663   0.0000       0.813793        22.1444 
 664   0.0000       0.815930        22.2026 
 665   0.0000       0.819439        22.2981 
 666   0.0000       0.822834        22.3905 
 667   0.0000       0.825217        22.4553 
 668   0.0000       0.826059        22.4782 
 669   0.0000       0.828290        22.5389 
 670   0.0000       0.829901        22.5828 
 671   0.0000       0.831395        22.6234 
 672   0.0000       0.835436        22.7334 
 673   0.0000       0.836784        22.7701 
 674   0.0000       0.838448        22.8153 
 675   0.0000       0.839770        22.8513 
 676   0.0000       0.840739        22.8777 
 677   0.0000       0.846640        23.0382 
 678   0.0000       0.848226        23.0814 
 679   0.0000       0.848461        23.0878 
 680   0.0000       0.849890        23.1267 
 681   0.0000       0.853792        23.2329 
 682   0.0000       0.856355        23.3026 
 683   0.0000       0.857540        23.3348 
 684   0.0000       0.859904        23.3992 
 685   0.0000       0.862147        23.4602 
 686   0.0000       0.864723        23.5303 
 687   0.0000       0.866707        23.5843 
 688   0.0000       0.869165        23.6512 
 689   0.0000       0.871012        23.7014 
 690   0.0000       0.871303        23.7094 
 691   0.0000       0.872422        23.7398 
 692   0.0000       0.875598        23.8262 
 693   0.0000       0.877788        23.8858 
 694   0.0000       0.879162        23.9232 
 695   0.0000       0.880908        23.9707 
 696   0.0000       0.882846        24.0235 
 697   0.0000       0.884215        24.0607 
 698   0.0000       0.885959        24.1082 
 699   0.0000       0.887554        24.1516 
 700   0.0000       0.891198        24.2507 
 701   0.0000       0.891663        24.2634 
 702   0.0000       0.894969        24.3533 
 703   0.0000       0.898858        24.4592 
 704   0.0000       0.899347        24.4725 
 705   0.0000       0.900733        24.5102 
 706   0.0000       0.905507        24.6401 
 707   0.0000       0.908169        24.7125 
 708   0.0000       0.910140        24.7662 
 709   0.0000       0.912728        24.8366 
 710   0.0000       0.914522        24.8854 
 711   0.0000       0.916995        24.9527 
[...]
 53 H s       :     0.709034  s :     0.709034
      pz      :     0.080744  p :     0.262897
      px      :     0.111825
      py      :     0.070329
      dz2     :     0.004729  d :     0.028596
      dxz     :     0.008439
      dyz     :     0.001989
      dx2y2   :     0.006664
      dxy     :     0.006775
 54 H s       :     0.687458  s :     0.687458
      pz      :     0.082176  p :     0.279731
      px      :     0.094096
      py      :     0.103459
      dz2     :     0.004083  d :     0.029016
      dxz     :     0.004827
      dyz     :     0.004885
      dx2y2   :     0.007489
      dxy     :     0.007732
 55 H s       :     0.677576  s :     0.677576
      pz      :     0.083968  p :     0.297883
      px      :     0.087293
      py      :     0.126622
      dz2     :     0.004594  d :     0.029324
      dxz     :     0.001695
      dyz     :     0.008940
      dx2y2   :     0.007076
      dxy     :     0.007019
 56 H s       :     0.709213  s :     0.709213
      pz      :     0.108800  p :     0.263308
      px      :     0.087358
      py      :     0.067151
      dz2     :     0.008651  d :     0.028612
      dxz     :     0.008176
      dyz     :     0.006432
      dx2y2   :     0.002658
      dxy     :     0.002695
 57 H s       :     0.710784  s :     0.710784
      pz      :     0.077688  p :     0.263179
      px      :     0.086430
      py      :     0.099062
      dz2     :     0.004319  d :     0.028487
      dxz     :     0.003758
      dyz     :     0.006279
      dx2y2   :     0.007101
      dxy     :     0.007030
 58 H s       :     0.708222  s :     0.708222
      pz      :     0.078713  p :     0.261808
      px      :     0.070263
      py      :     0.112832
      dz2     :     0.004602  d :     0.028601
      dxz     :     0.001668
      dyz     :     0.008621
      dx2y2   :     0.006913
      dxy     :     0.006797
 59 H s       :     0.683269  s :     0.683269
      pz      :     0.170713  p :     0.366745
      px      :     0.109452
      py      :     0.086580
      dz2     :     0.008616  d :     0.028800
      dxz     :     0.008374
      dyz     :     0.006499
      dx2y2   :     0.002544
      dxy     :     0.002766
 60 H s       :     0.689232  s :     0.689232
      pz      :     0.081994  p :     0.328502
      px      :     0.142009
      py      :     0.104498
      dz2     :     0.003995  d :     0.029073
      dxz     :     0.008733
      dyz     :     0.001407
      dx2y2   :     0.007671
      dxy     :     0.007267
 61 H s       :     0.708851  s :     0.708851
      pz      :     0.113231  p :     0.262239
      px      :     0.070113
      py      :     0.078895
      dz2     :     0.009483  d :     0.028608
      dxz     :     0.007613
      dyz     :     0.007822
      dx2y2   :     0.001867
      dxy     :     0.001824
 62 H s       :     0.710810  s :     0.710810
      pz      :     0.084005  p :     0.263304
      px      :     0.091978
      py      :     0.087322
      dz2     :     0.005421  d :     0.028502
      dxz     :     0.006241
      dyz     :     0.004801
      dx2y2   :     0.006003
      dxy     :     0.006035
 63 H s       :     0.709565  s :     0.709565
      pz      :     0.074422  p :     0.263378
      px      :     0.116054
      py      :     0.072903
      dz2     :     0.004046  d :     0.028613
      dxz     :     0.008558
      dyz     :     0.001217
      dx2y2   :     0.007396
      dxy     :     0.007396
 64 H s       :     0.683625  s :     0.683625
      pz      :     0.127266  p :     0.294656
      px      :     0.075514
      py      :     0.091876
      dz2     :     0.009448  d :     0.028950
      dxz     :     0.007707
      dyz     :     0.007744
      dx2y2   :     0.002021
      dxy     :     0.002029
 65 H s       :     0.678937  s :     0.678937
      pz      :     0.128253  p :     0.289461
      px      :     0.079833
      py      :     0.081375
      dz2     :     0.009664  d :     0.029175
      dxz     :     0.007349
      dyz     :     0.008419
      dx2y2   :     0.001836
      dxy     :     0.001907
 66 H s       :     0.705944  s :     0.705944
      pz      :     0.067658  p :     0.261546
      px      :     0.072735
      py      :     0.121152
      dz2     :     0.003248  d :     0.028704
      dxz     :     0.000317
      dyz     :     0.008824
      dx2y2   :     0.008273
      dxy     :     0.008041
 67 H s       :     0.709472  s :     0.709472
      pz      :     0.097211  p :     0.261855
      px      :     0.075111
      py      :     0.089533
      dz2     :     0.007707  d :     0.028552
      dxz     :     0.004820
      dyz     :     0.008344
      dx2y2   :     0.003940
      dxy     :     0.003741
 68 H s       :     0.707343  s :     0.707343
      pz      :     0.110544  p :     0.260631
      px      :     0.078104
      py      :     0.071983
      dz2     :     0.009617  d :     0.028635
      dxz     :     0.007260
      dyz     :     0.008003
      dx2y2   :     0.001894
      dxy     :     0.001862
 69 H s       :     0.669508  s :     0.669508
      pz      :     0.077539  p :     0.315342
      px      :     0.092094
      py      :     0.145709
      dz2     :     0.003194  d :     0.029464
      dxz     :     0.000339
      dyz     :     0.009070
      dx2y2   :     0.008566
      dxy     :     0.008295


                      *****************************
                      * MAYER POPULATION ANALYSIS *
                      *****************************

  NA   - Mulliken gross atomic population
  ZA   - Total nuclear charge
  QA   - Mulliken gross atomic charge
  VA   - Mayer's total valence
  BVA  - Mayer's bonded valence
  FA   - Mayer's free valence

  ATOM       NA         ZA         QA         VA         BVA        FA
  0 C      5.4275     6.0000     0.5725     3.1071     3.1071    -0.0000
  1 C      6.0898     6.0000    -0.0898     3.3984     3.3984     0.0000
  2 C      6.0598     6.0000    -0.0598     3.5436     3.5436    -0.0000
  3 C      6.3625     6.0000    -0.3625     3.5844     3.5844    -0.0000
  4 C      6.1894     6.0000    -0.1894     3.3950     3.3950    -0.0000
  5 C      6.7038     6.0000    -0.7038     3.3045     3.3045     0.0000
  6 P     11.8753    15.0000     3.1247    -0.4051    -0.4051    -0.0000
  7 C      6.5200     6.0000    -0.5200     3.4016     3.4016    -0.0000
  8 C      5.8922     6.0000     0.1078     3.3382     3.3382     0.0000
  9 C      6.4005     6.0000    -0.4005     3.3793     3.3793    -0.0000
 10 C      6.1116     6.0000    -0.1116     3.3039     3.3039     0.0000
 11 C      6.4814     6.0000    -0.4814     3.3899     3.3899     0.0000
 12 C      5.9174     6.0000     0.0826     3.3916     3.3916    -0.0000
 13 Rh    18.7563    17.0000    -1.7563     3.7583     3.7583    -0.0000
 14 Cl    17.6270    17.0000    -0.6270     0.7456     0.7456    -0.0000
 15 P     13.0414    15.0000     1.9586     0.7352     0.7352    -0.0000
 16 C      5.4395     6.0000     0.5605     1.7197     1.7197     0.0000
 17 C      6.1772     6.0000    -0.1772     3.5884     3.5884    -0.0000
 18 C      6.4022     6.0000    -0.4022     3.5446     3.5446    -0.0000
 19 C      6.1393     6.0000    -0.1393     3.4911     3.4911     0.0000
 20 C      6.3858     6.0000    -0.3858     3.5364     3.5364    -0.0000
 21 C      5.8746     6.0000     0.1254     4.0294     4.0294    -0.0000
 22 C      5.1937     6.0000     0.8063     1.5998     1.5998    -0.0000
 23 C      6.3022     6.0000    -0.3022     3.4207     3.4207    -0.0000
 24 C      6.5045     6.0000    -0.5045     3.6445     3.6445     0.0000
 25 C      6.1318     6.0000    -0.1318     3.4171     3.4171     0.0000
 26 C      6.3790     6.0000    -0.3790     3.4938     3.4938     0.0000
 27 C      6.2047     6.0000    -0.2047     3.2037     3.2037    -0.0000
 28 C      5.8750     6.0000     0.1250     2.6814     2.6814     0.0000
 29 C      6.6795     6.0000    -0.6795     3.4438     3.4438     0.0000
 30 C      6.1865     6.0000    -0.1865     3.4385     3.4385    -0.0000
 31 C      6.1780     6.0000    -0.1780     3.4121     3.4121     0.0000
 32 C      6.3900     6.0000    -0.3900     3.6085     3.6085     0.0000
 33 C      5.9197     6.0000     0.0803     3.3617     3.3617     0.0000
 34 C      5.9689     6.0000     0.0311     2.7834     2.7834     0.0000
 35 C      5.7378     6.0000     0.2622     3.0740     3.0740    -0.0000
 36 C      6.6143     6.0000    -0.6143     3.4615     3.4615    -0.0000
 37 C      6.1837     6.0000    -0.1837     3.4513     3.4513    -0.0000
 38 C      6.4025     6.0000    -0.4025     3.4647     3.4647    -0.0000
 39 C      6.0544     6.0000    -0.0544     4.0134     4.0134     0.0000
 40 H      0.9907     1.0000     0.0093     1.0970     1.0970    -0.0000
 41 H      0.9465     1.0000     0.0535     1.0045     1.0045     0.0000
 42 H      0.9134     1.0000     0.0866     0.9577     0.9577     0.0000
 43 H      0.9412     1.0000     0.0588     1.0030     1.0030     0.0000
 44 H      0.7532     1.0000     0.2468     0.8682     0.8682    -0.0000
 45 H      0.7227     1.0000     0.2773     0.8055     0.8055    -0.0000
 46 H      1.0545     1.0000    -0.0545     1.0786     1.0786    -0.0000
 47 H      0.9997     1.0000     0.0003     1.0187     1.0187    -0.0000
 48 H      1.0022     1.0000    -0.0022     1.0281     1.0281     0.0000
 49 H      1.1715     1.0000    -0.1715     1.2131     1.2131    -0.0000
 50 H      0.5191     1.0000     0.4809     0.8236     0.8236     0.0000
 51 H      0.9550     1.0000     0.0450     1.0414     1.0414    -0.0000
 52 H      0.9222     1.0000     0.0778     0.9676     0.9676     0.0000
 53 H      0.9448     1.0000     0.0552     0.9993     0.9993    -0.0000
 54 H      0.8327     1.0000     0.1673     0.9104     0.9104    -0.0000
 55 H      0.7597     1.0000     0.2403     0.8607     0.8607     0.0000
 56 H      0.9509     1.0000     0.0491     1.0182     1.0182    -0.0000
 57 H      0.9102     1.0000     0.0898     0.9627     0.9627    -0.0000
 58 H      0.9450     1.0000     0.0550     1.0087     1.0087    -0.0000
 59 H      0.9467     1.0000     0.0533     0.8994     0.8994    -0.0000
 60 H      0.9163     1.0000     0.0837     0.9063     0.9063     0.0000
 61 H      0.9418     1.0000     0.0582     0.9972     0.9972    -0.0000
 62 H      0.9076     1.0000     0.0924     0.9523     0.9523     0.0000
 63 H      0.9389     1.0000     0.0611     1.0038     1.0038    -0.0000
 64 H      0.7744     1.0000     0.2256     0.7882     0.7882    -0.0000
 65 H      0.8600     1.0000     0.1400     0.9746     0.9746    -0.0000
 66 H      1.0380     1.0000    -0.0380     1.0392     1.0392     0.0000
 67 H      0.9729     1.0000     0.0271     0.9774     0.9774    -0.0000
 68 H      0.9959     1.0000     0.0041     1.0325     1.0325     0.0000
 69 H      0.6913     1.0000     0.3087     0.7821     0.7821    -0.0000

  Mayer bond orders larger than 0.100000
B(  0-C ,  1-C ) :   1.0045 B(  0-C ,  2-C ) :   0.1595 B(  0-C ,  5-C ) :   1.0231 
B(  0-C ,  7-C ) :  -0.1321 B(  0-C , 28-C ) :   0.1014 B(  0-C , 69-H ) :   0.9131 
B(  1-C ,  2-C ) :   0.9893 B(  1-C ,  3-C ) :  -0.2977 B(  1-C ,  5-C ) :  -0.1875 
B(  1-C ,  6-P ) :   0.7549 B(  1-C ,  7-C ) :   0.4822 B(  1-C , 12-C ) :   0.1143 
B(  1-C , 13-Rh) :   0.1331 B(  1-C , 15-P ) :   0.3727 B(  1-C , 16-C ) :  -0.1108 
B(  1-C , 28-C ) :  -0.1489 B(  1-C , 34-C ) :   0.2720 B(  1-C , 35-C ) :   0.1049 
B(  1-C , 69-H ) :  -0.1774 B(  2-C ,  3-C ) :   1.4041 B(  2-C ,  5-C ) :   0.1118 
B(  2-C ,  6-P ) :  -0.2865 B(  2-C ,  7-C ) :   0.1377 B(  2-C , 65-H ) :   0.9538 
B(  3-C ,  4-C ) :   1.2655 B(  3-C , 66-H ) :   1.1325 B(  4-C ,  5-C ) :   1.2429 
B(  4-C , 67-H ) :   1.0961 B(  5-C , 39-C ) :  -0.1352 B(  5-C , 68-H ) :   1.2022 
B(  6-P ,  7-C ) :   0.4526 B(  6-P ,  8-C ) :  -0.1413 B(  6-P , 12-C ) :  -0.4549 
B(  6-P , 13-Rh) :   0.1339 B(  6-P , 14-Cl) :  -1.2453 B(  6-P , 15-P ) :  -0.4021 
B(  6-P , 22-C ) :   0.3051 B(  6-P , 34-C ) :   0.1847 B(  6-P , 35-C ) :   0.2780 
B(  6-P , 39-C ) :   0.1310 B(  6-P , 50-H ) :   0.1323 B(  6-P , 55-H ) :   0.1105 
B(  7-C ,  8-C ) :   0.9459 B(  7-C ,  9-C ) :  -0.1342 B(  7-C , 11-C ) :  -0.1056 
B(  7-C , 12-C ) :   1.1147 B(  7-C , 13-Rh) :   0.2238 B(  7-C , 15-P ) :   0.1110 
B(  7-C , 34-C ) :   0.9976 B(  7-C , 35-C ) :  -0.4992 B(  8-C ,  9-C ) :   1.2333 
B(  8-C , 12-C ) :   0.1274 B(  8-C , 14-Cl) :   0.1363 B(  8-C , 39-C ) :   0.1159 
B(  8-C , 60-H ) :   0.9487 B(  9-C , 10-C ) :   1.2028 B(  9-C , 61-H ) :   1.1031 
B( 10-C , 11-C ) :   1.2109 B( 10-C , 62-H ) :   1.0524 B( 11-C , 12-C ) :   1.2471 
B( 11-C , 63-H ) :   1.1104 B( 12-C , 35-C ) :   0.3642 B( 12-C , 39-C ) :  -0.1338 
B( 12-C , 64-H ) :   0.9137 B( 13-Rh, 14-Cl) :   1.6975 B( 13-Rh, 15-P ) :   0.3871 
B( 13-Rh, 21-C ) :   0.2416 B( 13-Rh, 29-C ) :   0.1648 B( 13-Rh, 34-C ) :   0.3337 
B( 13-Rh, 35-C ) :  -0.1241 B( 13-Rh, 39-C ) :   0.1442 B( 13-Rh, 49-H ) :   0.1531 
B( 14-Cl, 60-H ) :   0.1395 B( 15-P , 16-C ) :   0.4849 B( 15-P , 21-C ) :   0.3358 
B( 15-P , 22-C ) :  -0.2398 B( 15-P , 23-C ) :  -0.2797 B( 15-P , 24-C ) :  -0.1325 
B( 15-P , 27-C ) :  -0.3789 B( 15-P , 28-C ) :   1.3105 B( 15-P , 29-C ) :  -0.1852 
B( 15-P , 33-C ) :  -0.3396 B( 16-C , 17-C ) :   0.9412 B( 16-C , 18-C ) :  -0.3598 
B( 16-C , 19-C ) :  -0.1203 B( 16-C , 20-C ) :  -0.2754 B( 16-C , 21-C ) :   1.0790 
B( 16-C , 22-C ) :   0.2903 B( 16-C , 27-C ) :   0.1029 B( 16-C , 28-C ) :   0.3837 
B( 16-C , 49-H ) :  -0.2022 B( 17-C , 18-C ) :   1.3922 B( 17-C , 20-C ) :   0.1163 
B( 17-C , 22-C ) :  -0.1261 B( 17-C , 28-C ) :   0.1180 B( 17-C , 33-C ) :   0.1183 
B( 17-C , 45-H ) :   0.8129 B( 18-C , 19-C ) :   1.2599 B( 18-C , 46-H ) :   1.1832 
B( 19-C , 20-C ) :   1.3307 B( 19-C , 47-H ) :   1.1172 B( 20-C , 21-C ) :   1.1716 
B( 20-C , 48-H ) :   1.1648 B( 21-C , 33-C ) :   0.1058 B( 21-C , 49-H ) :   1.0820 
B( 22-C , 23-C ) :   0.5209 B( 22-C , 24-C ) :  -0.2277 B( 22-C , 26-C ) :  -0.1960 
B( 22-C , 27-C ) :   1.0758 B( 22-C , 28-C ) :   0.2638 B( 22-C , 29-C ) :   0.3253 
B( 22-C , 40-H ) :  -0.2715 B( 23-C , 24-C ) :   1.4893 B( 23-C , 27-C ) :   0.1068 
B( 23-C , 28-C ) :   0.1901 B( 23-C , 33-C ) :   0.1337 B( 23-C , 40-H ) :   1.1775 
B( 24-C , 25-C ) :   1.2322 B( 24-C , 41-H ) :   1.1039 B( 25-C , 26-C ) :   1.2287 
B( 25-C , 42-H ) :   1.0547 B( 26-C , 27-C ) :   1.2694 B( 26-C , 43-H ) :   1.0976 
B( 27-C , 44-H ) :   0.9795 B( 28-C , 29-C ) :   0.5863 B( 28-C , 30-C ) :  -0.1087 
B( 28-C , 32-C ) :  -0.3210 B( 28-C , 33-C ) :   0.5870 B( 29-C , 30-C ) :   1.2424 
B( 29-C , 33-C ) :   0.4367 B( 29-C , 50-H ) :   0.8339 B( 30-C , 31-C ) :   1.2118 
B( 30-C , 51-H ) :   1.0779 B( 31-C , 32-C ) :   1.2803 B( 31-C , 52-H ) :   1.0826 
B( 32-C , 33-C ) :   1.4884 B( 32-C , 53-H ) :   1.1058 B( 33-C , 54-H ) :   0.9126 
B( 34-C , 35-C ) :   0.6014 B( 34-C , 36-C ) :  -0.2075 B( 34-C , 38-C ) :  -0.1753 
B( 34-C , 39-C ) :   1.0711 B( 34-C , 55-H ) :  -0.1114 B( 35-C , 36-C ) :   1.1425 
B( 35-C , 39-C ) :   0.3607 B( 35-C , 55-H ) :   1.0066 B( 36-C , 37-C ) :   1.2567 
B( 36-C , 56-H ) :   1.1684 B( 37-C , 38-C ) :   1.2437 B( 37-C , 57-H ) :   1.0638 
B( 38-C , 39-C ) :   1.2411 B( 38-C , 58-H ) :   1.1259 B( 39-C , 59-H ) :   1.0861 
B( 39-C , 69-H ) :   0.1099 

-------
TIMINGS
-------

Total SCF time: 0 days 0 hours 2 min 35 sec 

Total time                  ....     155.732 sec
Sum of individual times     ....     150.416 sec  ( 96.6%)

Fock matrix formation       ....     115.569 sec  ( 74.2%)
  Split-RI-J                ....      48.420 sec  ( 41.9% of F)
  XC integration            ....      64.044 sec  ( 55.4% of F)
    Basis function eval.    ....       5.352 sec  (  8.4% of XC)
    Density eval.           ....      28.664 sec  ( 44.8% of XC)
    XC-Functional eval.     ....       0.290 sec  (  0.5% of XC)
    XC-Potential eval.      ....      23.356 sec  ( 36.5% of XC)
Diagonalization             ....       9.969 sec  (  6.4%)
Density matrix formation    ....       0.746 sec  (  0.5%)
Population analysis         ....       1.714 sec  (  1.1%)
Initial guess               ....       5.811 sec  (  3.7%)
Orbital Transformation      ....       0.000 sec  (  0.0%)
Orbital Orthonormalization  ....       0.000 sec  (  0.0%)
DIIS solution               ....      14.350 sec  (  9.2%)
Grid generation             ....       2.258 sec  (  1.4%)


-------------------------------------------------------------------------------
                          DFT DISPERSION CORRECTION                            
                                                                               
                              DFTD3 V3.1  Rev 1                                
                          USING Becke-Johnson damping                          
-------------------------------------------------------------------------------
The TPSS functional is recognized
Active option DFTDOPT                   ...         4   

molecular C6(AA) [au] = 79714.285088 


            DFT-D V3
 parameters
 s6 scaling factor         :     1.0000 
 a1 scaling factor         :     0.4535 
 s8 scaling factor         :     1.9435 
 a2 scaling factor         :     4.4752 
 ad hoc parameters k1-k3   :    16.0000     1.3333    -4.0000 

 Edisp/kcal,au: -113.498784154525  -0.180871806305 
 E6   /kcal   : -54.228760654 
 E8   /kcal   : -59.270023500 
 % E8         :  52.220844427 

-------------------------   ----------------
Dispersion correction           -0.180871806
-------------------------   ----------------


-------------------------   --------------------
FINAL SINGLE POINT ENERGY     -2644.518814080513
-------------------------   --------------------


                            ***************************************
                            *     ORCA property calculations      *
                            ***************************************

                                    ---------------------
                                    Active property flags
                                    ---------------------
   (+) Dipole Moment


------------------------------------------------------------------------------
                       ORCA ELECTRIC PROPERTIES CALCULATION
------------------------------------------------------------------------------

Dipole Moment Calculation                       ... on
Quadrupole Moment Calculation                   ... off
Polarizability Calculation                      ... off
GBWName                                         ... MOR10_ed09.gbw
Electron density file                           ... MOR10_ed09.scfp
The origin for moment calculation is the CENTER OF MASS  = ( 0.010488, -0.064277 -0.107573)

-------------
DIPOLE MOMENT
-------------
                                X             Y             Z
Electronic contribution:      2.26194     -60.73944    -102.26153
Nuclear contribution   :     -3.11357      62.05191     104.48164
                        -----------------------------------------
Total Dipole Moment    :     -0.85163       1.31247       2.22011
                        -----------------------------------------
Magnitude (a.u.)       :      2.71601
Magnitude (Debye)      :      6.90355



--------------------
Rotational spectrum 
--------------------
 
Rotational constants in cm-1:     0.003240     0.002395     0.002360 
Rotational constants in MHz :    97.140326    71.802021    70.757797 

 Dipole components along the rotational axes: 
x,y,z [a.u.] :    -0.870711     2.251762     1.244247 
x,y,z [Debye]:    -2.213171     5.723524     3.162624 

 

Timings for individual modules:

Sum of individual times         ...      169.066 sec (=   2.818 min)
GTO integral calculation        ...       12.902 sec (=   0.215 min)   7.6 %
SCF iterations                  ...      156.164 sec (=   2.603 min)  92.4 %
                             ****ORCA TERMINATED NORMALLY****
TOTAL RUN TIME: 0 days 0 hours 2 minutes 50 seconds 316 msec
