
                                 *****************
                                 * O   R   C   A *
                                 *****************

           --- An Ab Initio, DFT and Semiempirical electronic structure package ---

                  #######################################################
                  #                        -***-                        #
                  #          Department of theory and spectroscopy      #
                  #               Directorship: Frank Neese             #
                  #        Max Planck Institute fuer Kohlenforschung    #
                  #                Kaiser Wilhelm Platz 1               #
                  #                 D-45470 Muelheim/Ruhr               #
                  #                      Germany                        #
                  #                                                     #
                  #                  All rights reserved                #
                  #                        -***-                        #
                  #######################################################


                         Program Version 4.2.0 -  RELEASE  -


 With contributions from (in alphabetic order):
   Daniel Aravena         : Magnetic Suceptibility
   Michael Atanasov       : Ab Initio Ligand Field Theory (pilot matlab implementation)
   Alexander A. Auer      : GIAO ZORA, VPT2
   Ute Becker             : Parallelization
   Giovanni Bistoni       : ED, misc. LED, open-shell LED, HFLED
   Martin Brehm           : Molecular dynamics
   Dmytro Bykov           : SCF Hessian
   Vijay G. Chilkuri      : MRCI spin determinant printing, contributions to CSF-ICE
   Dipayan Datta          : RHF DLPNO-CCSD density
   Achintya Kumar Dutta   : EOM-CC, STEOM-CC
   Dmitry Ganyushin       : Spin-Orbit,Spin-Spin,Magnetic field MRCI
   Miquel Garcia          : C-PCM Hessian, Gaussian charge scheme
   Yang Guo               : DLPNO-NEVPT2, CIM, IAO-localization
   Andreas Hansen         : Spin unrestricted coupled pair/coupled cluster methods
   Benjamin Helmich-Paris : CASSCF linear response (MC-RPA)
   Lee Huntington         : MR-EOM, pCC
   Robert Izsak           : Overlap fitted RIJCOSX, COSX-SCS-MP3, EOM
   Christian Kollmar      : KDIIS, OOCD, Brueckner-CCSD(T), CCSD density
   Simone Kossmann        : Meta GGA functionals, TD-DFT gradient, OOMP2, MP2 Hessian
   Martin Krupicka        : AUTO-CI
   Lucas Lang             : DCDCAS
   Dagmar Lenk            : GEPOL surface, SMD
   Dimitrios Liakos       : Extrapolation schemes; Compound Job, initial MDCI parallelization
   Dimitrios Manganas     : Further ROCIS development; embedding schemes
   Dimitrios Pantazis     : SARC Basis sets
   Taras Petrenko         : DFT Hessian,TD-DFT gradient, ASA, ECA, R-Raman, ABS, FL, XAS/XES, NRVS
   Peter Pinski           : DLPNO-MP2, DLPNO-MP2 Gradient
   Christoph Reimann      : Effective Core Potentials
   Marius Retegan         : Local ZFS, SOC
   Christoph Riplinger    : Optimizer, TS searches, QM/MM, DLPNO-CCSD(T), (RO)-DLPNO pert. Triples
   Tobias Risthaus        : Range-separated hybrids, TD-DFT gradient, RPA, STAB
   Michael Roemelt        : Original ROCIS implementation
   Masaaki Saitow         : Open-shell DLPNO-CCSD energy and density
   Barbara Sandhoefer     : DKH picture change effects
   Avijit Sen             : IP-ROCIS
   Kantharuban Sivalingam : CASSCF convergence, NEVPT2, FIC-MRCI
   Bernardo de Souza      : ESD, SOC TD-DFT
   Georgi Stoychev        : AutoAux, RI-MP2 NMR
   Willem Van den Heuvel  : Paramagnetic NMR
   Boris Wezisla          : Elementary symmetry handling
   Frank Wennmohs         : Technical directorship


 We gratefully acknowledge several colleagues who have allowed us to
 interface, adapt or use parts of their codes:
   Stefan Grimme, W. Hujo, H. Kruse,             : VdW corrections, initial TS optimization,
                  C. Bannwarth                     DFT functionals, gCP, sTDA/sTD-DF
   Ed Valeev, F. Pavosevic, A. Kumar             : LibInt (2-el integral package), F12 methods
   Garnet Chan, S. Sharma, J. Yang, R. Olivares  : DMRG
   Ulf Ekstrom                                   : XCFun DFT Library
   Mihaly Kallay                                 : mrcc  (arbitrary order and MRCC methods)
   Andreas Klamt, Michael Diedenhofen            : otool_cosmo (COSMO solvation model)
   Jiri Pittner, Ondrej Demel                    : Mk-CCSD
   Frank Weinhold                                : gennbo (NPA and NBO analysis)
   Christopher J. Cramer and Donald G. Truhlar   : smd solvation model
   Lars Goerigk                                  : TD-DFT with DH, B97 family of functionals
   V. Asgeirsson, H. Jonsson                     : NEB implementation
   FAccTs GmbH                                   : IRC, NEB, NEB-TS, Multilevel, MM, QM/MM, CI optimization
   S Lehtola, MJT Oliveira, MAL Marques          : LibXC Library


 Your calculation uses the libint2 library for the computation of 2-el integrals
 For citations please refer to: http://libint.valeyev.net

 Your ORCA version has been built with support for libXC version: 4.2.3
 For citations please refer to: https://tddft.org/programs/libxc/

 This ORCA versions uses:
   CBLAS   interface :  Fast vector & matrix operations
   LAPACKE interface :  Fast linear algebra routines
   SCALAPACK package :  Parallel linear algebra routines


Your calculation utilizes the atom-pairwise dispersion correction
with the Becke-Johnson damping scheme (D3BJ)
Cite in your paper:
S.Grimme, S.Ehrlich, L.Goerigk, J Comput Chem, (2011), 32, 1456–1465 
S.Grimme, J.Antony, S.Ehrlich and H.Krieg, J.Chem.Phys., 132, (2010), 154104 
   

----- Orbital basis set information -----
Your calculation utilizes the basis: def2-TZVPPD
   F. Weigend and R. Ahlrichs, Phys. Chem. Chem. Phys. 7, 3297 (2005).
   D. Rappoport and F. Furche, J. Chem. Phys. 133 134105 (2010).

----- AuxJ basis set information -----
Your calculation utilizes the auxiliary basis: def2/J
   F. Weigend, Phys. Chem. Chem. Phys. 8, 1057 (2006).

cite the ECPs for Ru [Def2-ECP] as follows:
Ce-Yb(ecp-28): M. Dolg, H. Stoll, H.Preuss, J. Chem. Phys., 1989, 90, 1730-1734.
Y-Cd(ecp-28), Hf-Hg(ecp-46): D. Andrae,U. Haeussermann, M. Dolg, H. Stoll, H. Preuss, Theor. Chim. Acta, 1990, 77, 123-141.
In-Sb(ecp-28), Tl-Bi(ecp-46): B. Metz, H. Stoll, M. Dolg, J. Chem. Phys., 2000, 113, 2563-2569.
Te-Xe(ecp-28), Po-Rn(ecp-46): K. A. Peterson, D. Figgen, E. Goll, H. Stoll, M. Dolg, J. Chem. Phys., 2003, 119, 11113-11123.
Rb(ecp-28), Cs(ecp-46): T. Leininger, A. Nicklass, W. Kuechle, H. Stoll, M. Dolg, A. Bergner, Chem. Phys. Lett., 1996, 255, 274-280.
Sr(ecp-28), Ba(ecp-46): M. Kaupp, P. V. Schleyer, H. Stoll and H. Preuss, J. Chem. Phys., 1991, 94, 1360-1366.
La(ecp-46): M. Dolg, H. Stoll, A. Savin, H. Preuss, Theor. Chim. Acta, 1989, 75, 173-194.
Lu(ecp-28): X. Cao, M. Dolg, J. Chem. Phys., 2001, 115, 7348-7355.

ECP parameters for Ru [Def2-ECP] have been obtained from:
TURBOMOLE (7.0.2)

================================================================================
                                        WARNINGS
                       Please study these warnings very carefully!
================================================================================


INFO   : the flag for use of LIBINT has been found!

================================================================================
                                       INPUT FILE
================================================================================
NAME = MOR14_ed26.in
|  1> #
|  2> # MOR14_ed26 TPSS-D3BJ/Def2-TZVPPD
|  3> #
|  4> ! tpss d3bj def2-tzvppd def2/j grid4 nofinalgrid
|  5> 
|  6> *xyz 0 1
|  7> Ru      -0.064344   -0.175682   -0.012222 
|  8> C        1.546320    1.136494   -0.983353 
|  9> C        1.182588    1.622095    0.326342 
| 10> C        2.076803   -0.497674    0.579629 
| 11> C        2.043947   -0.183601   -0.846926 
| 12> C        1.561141    0.611266    1.297590 
| 13> C        1.492783    1.931783   -2.249249 
| 14> H        0.696535    2.680581   -2.225612 
| 15> H        1.338709    1.291322   -3.121811 
| 16> H        2.442862    2.463439   -2.390633 
| 17> C        2.565540   -1.075324   -1.928175 
| 18> H        2.249514   -0.728507   -2.915600 
| 19> H        2.192282   -2.094362   -1.786204 
| 20> H        3.663236   -1.101421   -1.912436 
| 21> C        2.692583   -1.723434    1.172166 
| 22> H        3.783501   -1.598681    1.210971 
| 23> H        2.457484   -2.606090    0.574387 
| 24> H        2.333089   -1.899010    2.188816 
| 25> C        1.552612    0.773239    2.786124 
| 26> H        2.502734    1.205302    3.127194 
| 27> H        1.421923   -0.187720    3.289969 
| 28> H        0.754394    1.442873    3.118115 
| 29> C        0.799428    3.031668    0.660505 
| 30> H        1.693878    3.613580    0.920796 
| 31> H        0.118442    3.075561    1.514596 
| 32> H        0.315927    3.528553   -0.183556 
| 33> Cl      -0.006885   -2.617235   -0.279085 
| 34> C       -1.774511   -0.580489   -1.372668 
| 35> C       -1.428717    0.775607   -1.463600 
| 36> C       -2.230150    1.901113   -0.842184 
| 37> C       -2.597560    1.596364    0.619137 
| 38> C       -1.528383    0.747182    1.301561 
| 39> C       -1.615603   -0.659023    1.435525 
| 40> C       -2.738883   -1.472042    0.832207 
| 41> C       -3.001399   -1.117797   -0.653050 
| 42> H       -3.131417    2.097786   -1.444322 
| 43> H       -3.561641    1.080890    0.673312 
| 44> H       -1.631000    2.816891   -0.882167 
| 45> H       -3.816216   -0.389170   -0.734954 
| 46> H       -1.353755   -1.240657   -2.123162 
| 47> H       -0.836828    1.063474   -2.328552 
| 48> H       -3.337183   -2.018298   -1.174989 
| 49> H       -2.460187   -2.525401    0.898608 
| 50> H       -1.127422   -1.117347    2.293712 
| 51> H       -3.660878   -1.338434    1.419672 
| 52> H       -2.720080    2.533691    1.172959 
| 53> H       -0.970929    1.269583    2.073632 
| 54> *
| 55> 
| 56> %maxcore 5000
| 57> 
| 58> %pal
| 59> nprocs = 24
| 60> end
| 61> 
| 62> 
| 63>                          ****END OF INPUT****
================================================================================

                       ****************************
                       * Single Point Calculation *
                       ****************************

---------------------------------
CARTESIAN COORDINATES (ANGSTROEM)
---------------------------------
  Ru    -0.064344   -0.175682   -0.012222
  C      1.546320    1.136494   -0.983353
  C      1.182588    1.622095    0.326342
  C      2.076803   -0.497674    0.579629
  C      2.043947   -0.183601   -0.846926
  C      1.561141    0.611266    1.297590
  C      1.492783    1.931783   -2.249249
  H      0.696535    2.680581   -2.225612
  H      1.338709    1.291322   -3.121811
  H      2.442862    2.463439   -2.390633
  C      2.565540   -1.075324   -1.928175
  H      2.249514   -0.728507   -2.915600
  H      2.192282   -2.094362   -1.786204
  H      3.663236   -1.101421   -1.912436
  C      2.692583   -1.723434    1.172166
  H      3.783501   -1.598681    1.210971
  H      2.457484   -2.606090    0.574387
  H      2.333089   -1.899010    2.188816
  C      1.552612    0.773239    2.786124
  H      2.502734    1.205302    3.127194
  H      1.421923   -0.187720    3.289969
  H      0.754394    1.442873    3.118115
  C      0.799428    3.031668    0.660505
  H      1.693878    3.613580    0.920796
  H      0.118442    3.075561    1.514596
  H      0.315927    3.528553   -0.183556
  Cl    -0.006885   -2.617235   -0.279085
  C     -1.774511   -0.580489   -1.372668
  C     -1.428717    0.775607   -1.463600
  C     -2.230150    1.901113   -0.842184
  C     -2.597560    1.596364    0.619137
  C     -1.528383    0.747182    1.301561
  C     -1.615603   -0.659023    1.435525
  C     -2.738883   -1.472042    0.832207
  C     -3.001399   -1.117797   -0.653050
  H     -3.131417    2.097786   -1.444322
  H     -3.561641    1.080890    0.673312
  H     -1.631000    2.816891   -0.882167
  H     -3.816216   -0.389170   -0.734954
  H     -1.353755   -1.240657   -2.123162
  H     -0.836828    1.063474   -2.328552
  H     -3.337183   -2.018298   -1.174989
  H     -2.460187   -2.525401    0.898608
  H     -1.127422   -1.117347    2.293712
  H     -3.660878   -1.338434    1.419672
  H     -2.720080    2.533691    1.172959
  H     -0.970929    1.269583    2.073632

----------------------------
CARTESIAN COORDINATES (A.U.)
----------------------------
  NO LB      ZA    FRAG     MASS         X           Y           Z
   0 Ru   16.0000*   0   101.070   -0.121593   -0.331991   -0.023096
   1 C     6.0000    0    12.011    2.922121    2.147662   -1.858268
   2 C     6.0000    0    12.011    2.234767    3.065315    0.616697
   3 C     6.0000    0    12.011    3.924589   -0.940468    1.095340
   4 C     6.0000    0    12.011    3.862500   -0.346956   -1.600458
   5 C     6.0000    0    12.011    2.950129    1.155125    2.452090
   6 C     6.0000    0    12.011    2.820951    3.650541   -4.250465
   7 H     1.0000    0     1.008    1.316260    5.065564   -4.205797
   8 H     1.0000    0     1.008    2.529793    2.440245   -5.899368
   9 H     1.0000    0     1.008    4.616340    4.655225   -4.517642
  10 C     6.0000    0    12.011    4.848168   -2.032068   -3.643723
  11 H     1.0000    0     1.008    4.250965   -1.376679   -5.509686
  12 H     1.0000    0     1.008    4.142813   -3.957771   -3.375436
  13 H     1.0000    0     1.008    6.922513   -2.081384   -3.613980
  14 C     6.0000    0    12.011    5.088244   -3.256818    2.215073
  15 H     1.0000    0     1.008    7.149781   -3.021069    2.288404
  16 H     1.0000    0     1.008    4.643972   -4.924796    1.085434
  17 H     1.0000    0     1.008    4.408899   -3.588609    4.136263
  18 C     6.0000    0    12.011    2.934011    1.461210    5.265011
  19 H     1.0000    0     1.008    4.729482    2.277691    5.909540
  20 H     1.0000    0     1.008    2.687045   -0.354739    6.217140
  21 H     1.0000    0     1.008    1.425598    2.726635    5.892383
  22 C     6.0000    0    12.011    1.510700    5.729022    1.248174
  23 H     1.0000    0     1.008    3.200966    6.828677    1.740052
  24 H     1.0000    0     1.008    0.223823    5.811968    2.862172
  25 H     1.0000    0     1.008    0.597016    6.667999   -0.346871
  26 Cl   17.0000    0    35.453   -0.013011   -4.945857   -0.527394
  27 C     6.0000    0    12.011   -3.353340   -1.096965   -2.593967
  28 C     6.0000    0    12.011   -2.699884    1.465685   -2.765803
  29 C     6.0000    0    12.011   -4.214373    3.592583   -1.591497
  30 C     6.0000    0    12.011   -4.908677    3.016691    1.169999
  31 C     6.0000    0    12.011   -2.888225    1.411969    2.459594
  32 C     6.0000    0    12.011   -3.053047   -1.245373    2.712749
  33 C     6.0000    0    12.011   -5.175739   -2.781756    1.572643
  34 C     6.0000    0    12.011   -5.671822   -2.112330   -1.234086
  35 H     1.0000    0     1.008   -5.917521    3.964241   -2.729373
  36 H     1.0000    0     1.008   -6.730526    2.042586    1.272375
  37 H     1.0000    0     1.008   -3.082143    5.323153   -1.667054
  38 H     1.0000    0     1.008   -7.211603   -0.735425   -1.388862
  39 H     1.0000    0     1.008   -2.558226   -2.344502   -4.012195
  40 H     1.0000    0     1.008   -1.581376    2.009675   -4.400326
  41 H     1.0000    0     1.008   -6.306362   -3.814030   -2.220407
  42 H     1.0000    0     1.008   -4.649080   -4.772316    1.698123
  43 H     1.0000    0     1.008   -2.130519   -2.111480    4.334488
  44 H     1.0000    0     1.008   -6.918057   -2.529274    2.682791
  45 H     1.0000    0     1.008   -5.140206    4.787982    2.216571
  46 H     1.0000    0     1.008   -1.834790    2.399164    3.918597
* core charge reduced due to ECP

--------------------------------
INTERNAL COORDINATES (ANGSTROEM)
--------------------------------
 Ru     0   0   0     0.000000000000     0.00000000     0.00000000
 C      1   0   0     2.293281446974     0.00000000     0.00000000
 C      2   1   0     1.443402332009    68.36272180     0.00000000
 C      1   2   3     2.244655191755    61.56130184   278.88233492
 C      2   1   3     1.417355201240    70.90767887   119.69047010
 C      4   1   2     1.418140761478    71.00206706    80.81739060
 C      2   1   3     1.495942340702   129.59831823   241.21106963
 H      7   2   1     1.093283142684   111.83206440    59.23937258
 H      7   2   1     1.093294806464   111.65275576   297.56304777
 H      7   2   1     1.097860484776   109.60033498   178.40212829
 C      5   2   1     1.495435911826   127.46244564   123.03479324
 H     11   5   2     1.093234922050   111.28814169   342.33770441
 H     11   5   2     1.094493373598   110.02627288   222.29537860
 H     11   5   2     1.098118972583   110.63807912   102.44604329
 C      4   1   2     1.494246526638   127.97579921   202.39005459
 H     15   4   1     1.098713439327   109.27116241   172.11190762
 H     15   4   1     1.091646869174   110.93917151    51.95303718
 H     15   4   1     1.092538370178   111.42180116   291.60538210
 C      6   4   1     1.497344805222   126.15342628   124.57193803
 H     19   6   4     1.098061471755   110.26841167    85.90734056
 H     19   6   4     1.092877668555   111.33856197   326.25335473
 H     19   6   4     1.093517120836   111.85213757   205.14719153
 C      3   2   1     1.498456718927   125.67984263   230.59750296
 H     23   3   2     1.098368691708   110.05902698   270.90079480
 H     23   3   2     1.093224571589   111.79421720   151.49850839
 H     23   3   2     1.092294324780   111.64028998    30.33460964
 Cl     1   2   3     2.456765851533   120.41201345   218.71916022
 C      1   2   3     2.222465566450   112.67135192   131.19623551
 C     28   1   2     1.402440187771    70.96384791   316.06890727
 C     29  28   1     1.514997179727   124.14792320   254.90401730
 C     30  29  28     1.537309704042   111.65759980    47.52342252
 C     31  30  29     1.526418043076   111.58342661    31.58478783
 C     32  31  30     1.415261878142   123.49845665   262.69114951
 C     33  32  31     1.512200536267   122.83436769     4.17033904
 C     28   1   2     1.520461810547   113.30130880   195.43993823
 H     30  29  28     1.101604577542   109.95165936   283.77216171
 H     31  30  29     1.094577795253   110.54270185   269.54793262
 H     30  29  28     1.095093013434   108.47307601   168.08212482
 H     35  28   1     1.096144294258   109.24180883   114.98822098
 H     28   1   2     1.084480817625   103.64744398    69.89814302
 H     29  28   1     1.086895560905   116.22969447   101.15209273
 H     35  28   1     1.093651345438   108.23088149   230.52178431
 H     34  33  32     1.091625272746   107.75108057   168.25504834
 H     33  32  31     1.088515734708   117.73273449   209.24569279
 H     34  33  32     1.101381407104   110.10864504   285.04910266
 H     31  30  29     1.095587451102   109.73332571   152.71459867
 H     32  31  30     1.086163613807   114.18695060   111.21594198

---------------------------
INTERNAL COORDINATES (A.U.)
---------------------------
 Ru     0   0   0     0.000000000000     0.00000000     0.00000000
 C      1   0   0     4.333673882783     0.00000000     0.00000000
 C      2   1   0     2.727635108561    68.36272180     0.00000000
 C      1   2   3     4.241783577502    61.56130184   278.88233492
 C      2   1   3     2.678413164833    70.90767887   119.69047010
 C      4   1   2     2.679897658544    71.00206706    80.81739060
 C      2   1   3     2.826921336065   129.59831823   241.21106963
 H      7   2   1     2.066005726506   111.83206440    59.23937258
 H      7   2   1     2.066027767855   111.65275576   297.56304777
 H      7   2   1     2.074655649481   109.60033498   178.40212829
 C      5   2   1     2.825964324182   127.46244564   123.03479324
 H     11   5   2     2.065914602714   111.28814169   342.33770441
 H     11   5   2     2.068292731491   110.02627288   222.29537860
 H     11   5   2     2.075144120644   110.63807912   102.44604329
 C      4   1   2     2.823716711908   127.97579921   202.39005459
 H     15   4   1     2.076267499987   109.27116241   172.11190762
 H     15   4   1     2.062913617692   110.93917151    51.95303718
 H     15   4   1     2.064598310438   111.42180116   291.60538210
 C      6   4   1     2.829571609920   126.15342628   124.57193803
 H     19   6   4     2.075035459828   110.26841167    85.90734056
 H     19   6   4     2.065239491448   111.33856197   326.25335473
 H     19   6   4     2.066447881134   111.85213757   205.14719153
 C      3   2   1     2.831672822307   125.67984263   230.59750296
 H     23   3   2     2.075616021402   110.05902698   270.90079480
 H     23   3   2     2.065895043177   111.79421720   151.49850839
 H     23   3   2     2.064137131471   111.64028998    30.33460964
 Cl     1   2   3     4.642614634567   120.41201345   218.71916022
 C      1   2   3     4.199851262660   112.67135192   131.19623551
 C     28   1   2     2.650227874093    70.96384791   316.06890727
 C     29  28   1     2.862929763347   124.14792320   254.90401730
 C     30  29  28     2.905094323659   111.65759980    47.52342252
 C     31  30  29     2.884512067290   111.58342661    31.58478783
 C     32  31  30     2.674457357467   123.49845665   262.69114951
 C     33  32  31     2.857644873113   122.83436769     4.17033904
 C     28   1   2     2.873256419020   113.30130880   195.43993823
 H     30  29  28     2.081730959429   109.95165936   283.77216171
 H     31  30  29     2.068452265300   110.54270185   269.54793262
 H     30  29  28     2.069425886562   108.47307601   168.08212482
 H     35  28   1     2.071412519408   109.24180883   114.98822098
 H     28   1   2     2.049371742802   103.64744398    69.89814302
 H     29  28   1     2.053934946284   116.22969447   101.15209273
 H     35  28   1     2.066701528872   108.23088149   230.52178431
 H     34  33  32     2.062872806357   107.75108057   168.25504834
 H     33  32  31     2.056996631061   117.73273449   209.24569279
 H     34  33  32     2.081309228419   110.10864504   285.04910266
 H     31  30  29     2.070360238344   109.73332571   152.71459867
 H     32  31  30     2.052551766725   114.18695060   111.21594198

---------------------
BASIS SET INFORMATION
---------------------
There are 4 groups of distinct atoms

 Group   1 Type Ru  : 7s7p5d2f1g contracted to 6s4p3d2f1g pattern {211111/4111/311/11/1}
 Group   2 Type C   : 12s6p3d1f contracted to 6s3p3d1f pattern {621111/411/111/1}
 Group   3 Type H   : 5s3p1d contracted to 3s3p1d pattern {311/111/1}
 Group   4 Type Cl  : 15s10p4d1f contracted to 6s6p4d1f pattern {732111/511111/1111/1}

Atom   0Ru   basis set group =>   1
Atom   1C    basis set group =>   2
Atom   2C    basis set group =>   2
Atom   3C    basis set group =>   2
Atom   4C    basis set group =>   2
Atom   5C    basis set group =>   2
Atom   6C    basis set group =>   2
Atom   7H    basis set group =>   3
Atom   8H    basis set group =>   3
Atom   9H    basis set group =>   3
Atom  10C    basis set group =>   2
Atom  11H    basis set group =>   3
Atom  12H    basis set group =>   3
Atom  13H    basis set group =>   3
Atom  14C    basis set group =>   2
Atom  15H    basis set group =>   3
Atom  16H    basis set group =>   3
Atom  17H    basis set group =>   3
Atom  18C    basis set group =>   2
Atom  19H    basis set group =>   3
Atom  20H    basis set group =>   3
Atom  21H    basis set group =>   3
Atom  22C    basis set group =>   2
Atom  23H    basis set group =>   3
Atom  24H    basis set group =>   3
Atom  25H    basis set group =>   3
Atom  26Cl   basis set group =>   4
Atom  27C    basis set group =>   2
Atom  28C    basis set group =>   2
Atom  29C    basis set group =>   2
Atom  30C    basis set group =>   2
Atom  31C    basis set group =>   2
Atom  32C    basis set group =>   2
Atom  33C    basis set group =>   2
Atom  34C    basis set group =>   2
Atom  35H    basis set group =>   3
Atom  36H    basis set group =>   3
Atom  37H    basis set group =>   3
Atom  38H    basis set group =>   3
Atom  39H    basis set group =>   3
Atom  40H    basis set group =>   3
Atom  41H    basis set group =>   3
Atom  42H    basis set group =>   3
Atom  43H    basis set group =>   3
Atom  44H    basis set group =>   3
Atom  45H    basis set group =>   3
Atom  46H    basis set group =>   3
---------------------------------
AUXILIARY/J BASIS SET INFORMATION
---------------------------------
There are 4 groups of distinct atoms

 Group   1 Type Ru  : 11s5p5d3f3g contracted to 8s5p5d2f3g pattern {41111111/11111/11111/21/111}
 Group   2 Type C   : 12s5p4d2f1g contracted to 6s4p3d1f1g pattern {711111/2111/211/2/1}
 Group   3 Type H   : 5s2p1d contracted to 3s1p1d pattern {311/2/1}
 Group   4 Type Cl  : 14s5p5d2f1g contracted to 8s4p3d1f1g pattern {71111111/2111/311/2/1}

Atom   0Ru   basis set group =>   1
Atom   1C    basis set group =>   2
Atom   2C    basis set group =>   2
Atom   3C    basis set group =>   2
Atom   4C    basis set group =>   2
Atom   5C    basis set group =>   2
Atom   6C    basis set group =>   2
Atom   7H    basis set group =>   3
Atom   8H    basis set group =>   3
Atom   9H    basis set group =>   3
Atom  10C    basis set group =>   2
Atom  11H    basis set group =>   3
Atom  12H    basis set group =>   3
Atom  13H    basis set group =>   3
Atom  14C    basis set group =>   2
Atom  15H    basis set group =>   3
Atom  16H    basis set group =>   3
Atom  17H    basis set group =>   3
Atom  18C    basis set group =>   2
Atom  19H    basis set group =>   3
Atom  20H    basis set group =>   3
Atom  21H    basis set group =>   3
Atom  22C    basis set group =>   2
Atom  23H    basis set group =>   3
Atom  24H    basis set group =>   3
Atom  25H    basis set group =>   3
Atom  26Cl   basis set group =>   4
Atom  27C    basis set group =>   2
Atom  28C    basis set group =>   2
Atom  29C    basis set group =>   2
Atom  30C    basis set group =>   2
Atom  31C    basis set group =>   2
Atom  32C    basis set group =>   2
Atom  33C    basis set group =>   2
Atom  34C    basis set group =>   2
Atom  35H    basis set group =>   3
Atom  36H    basis set group =>   3
Atom  37H    basis set group =>   3
Atom  38H    basis set group =>   3
Atom  39H    basis set group =>   3
Atom  40H    basis set group =>   3
Atom  41H    basis set group =>   3
Atom  42H    basis set group =>   3
Atom  43H    basis set group =>   3
Atom  44H    basis set group =>   3
Atom  45H    basis set group =>   3
Atom  46H    basis set group =>   3
-------------------------
ECP PARAMETER INFORMATION
-------------------------

 Group 1, Type Ru ECP Def2-ECP (replacing 28 core electrons, lmax=3)

Atom   0Ru   ECP group =>   1



           ************************************************************
           *        Program running with 24 parallel MPI-processes    *
           *              working on a common directory               *
           ************************************************************
------------------------------------------------------------------------------
                           ORCA GTO INTEGRAL CALCULATION
                           -- RI-GTO INTEGRALS CHOSEN --
------------------------------------------------------------------------------

                         BASIS SET STATISTICS AND STARTUP INFO

Gaussian basis set:
 # of primitive gaussian shells          ...  691
 # of primitive gaussian functions       ... 1597
 # of contracted shells                  ...  456
 # of contracted basis functions         ... 1232
 Highest angular momentum                ...    4
 Maximum contraction depth               ...    7
Auxiliary gaussian basis set:
 # of primitive gaussian shells          ...  702
 # of primitive gaussian functions       ... 1868
 # of contracted shells                  ...  445
 # of contracted aux-basis functions     ... 1319
 Highest angular momentum                ...    4
 Maximum contraction depth               ...    7
Ratio of auxiliary to basis functions    ...  1.07
Integral package used                  ... LIBINT
 One Electron integrals                  
   ECP integrals                         ... done
 Ordering auxiliary basis shells         ... done
 Integral threshhold             Thresh  ...  1.000e-10
 Primitive cut-off               TCut    ...  1.000e-11
 Pre-screening matrix                    ... done
 Shell pair data                         ... 
 Ordering of the shell pairs             ... done (   0.017 sec) 87816 of 104196 pairs
 Determination of significant pairs      ... done (   0.000 sec)
 Creation of shell pair data             ... done (   0.008 sec)
 Storage of shell pair data              ... done (   0.017 sec)
 Shell pair data done in (   0.043 sec)
 Computing two index integrals           ... done
 Cholesky decomposition of the V-matrix  ... done


Timings:
 Total evaluation time                   ...   7.133 sec (  0.119 min)
 One electron matrix time                ...   6.312 sec (  0.105 min) = 88.5%
 Schwartz matrix evaluation time         ...   0.635 sec (  0.011 min) =  8.9%
 Two index repulsion integral time       ...   0.039 sec (  0.001 min) =  0.5%
 Cholesky decomposition of V             ...   0.077 sec (  0.001 min) =  1.1%
 Three index repulsion integral time     ...   0.000 sec (  0.000 min) =  0.0%



           ************************************************************
           *        Program running with 24 parallel MPI-processes    *
           *              working on a common directory               *
           ************************************************************
-------------------------------------------------------------------------------
                                 ORCA SCF
-------------------------------------------------------------------------------

------------
SCF SETTINGS
------------
Hamiltonian:
 Density Functional     Method          .... DFT(GTOs)
 Exchange Functional    Exchange        .... TPSS
 Correlation Functional Correlation     .... TPSS
 LDA part of GGA corr.  LDAOpt          .... PW91-LDA
 Gradients option       PostSCFGGA      .... off
   Density functional embedding theory  .... OFF
   NL short-range parameter             ....  5.000000
 RI-approximation to the Coulomb term is turned on
   Number of auxiliary basis functions  .... 1319


General Settings:
 Integral files         IntName         .... MOR14_ed26
 Hartree-Fock type      HFTyp           .... RHF
 Total Charge           Charge          ....    0
 Multiplicity           Mult            ....    1
 Number of Electrons    NEL             ....  168
 Basis Dimension        Dim             .... 1232
 Nuclear Repulsion      ENuc            ....   2177.8911490975 Eh

Convergence Acceleration:
 DIIS                   CNVDIIS         .... on
   Start iteration      DIISMaxIt       ....    12
   Startup error        DIISStart       ....  0.200000
   # of expansion vecs  DIISMaxEq       ....     5
   Bias factor          DIISBfac        ....   1.050
   Max. coefficient     DIISMaxC        ....  10.000
 Newton-Raphson         CNVNR           .... off
 SOSCF                  CNVSOSCF        .... off
 Level Shifting         CNVShift        .... on
   Level shift para.    LevelShift      ....    0.2500
   Turn off err/grad.   ShiftErr        ....    0.0010
 Zerner damping         CNVZerner       .... off
 Static damping         CNVDamp         .... on
   Fraction old density DampFac         ....    0.7000
   Max. Damping (<1)    DampMax         ....    0.9800
   Min. Damping (>=0)   DampMin         ....    0.0000
   Turn off err/grad.   DampErr         ....    0.1000
 Fernandez-Rico         CNVRico         .... off

SCF Procedure:
 Maximum # iterations   MaxIter         ....   125
 SCF integral mode      SCFMode         .... Direct
   Integral package                     .... LIBINT
 Reset frequency        DirectResetFreq ....    20
 Integral Threshold     Thresh          ....  1.000e-10 Eh
 Primitive CutOff       TCut            ....  1.000e-11 Eh

Convergence Tolerance:
 Convergence Check Mode ConvCheckMode   .... Total+1el-Energy
 Convergence forced     ConvForced      .... 0
 Energy Change          TolE            ....  1.000e-06 Eh
 1-El. energy change                    ....  1.000e-03 Eh
 DIIS Error             TolErr          ....  1.000e-06


Diagonalization of the overlap matrix:
Smallest eigenvalue                        ... 1.424e-07
Time for diagonalization                   ...    0.221 sec
Threshold for overlap eigenvalues          ... 1.000e-08
Number of eigenvalues below threshold      ... 0
Time for construction of square roots      ...    0.166 sec
Total time needed                          ...    0.393 sec

-------------------
DFT GRID GENERATION
-------------------

General Integration Accuracy     IntAcc      ...  4.670
Radial Grid Type                 RadialGrid  ... Gauss-Chebyshev
Angular Grid (max. acc.)         AngularGrid ... Lebedev-302
Angular grid pruning method      GridPruning ... 3 (G Style)
Weight generation scheme         WeightScheme... Becke
Basis function cutoff            BFCut       ...    1.0000e-10
Integration weight cutoff        WCut        ...    1.0000e-14
Grids for H and He will be reduced by one unit

# of grid points (after initial pruning)     ... 220706 (   0.0 sec)
# of grid points (after weights+screening)   ... 185140 (   0.2 sec)
nearest neighbour list constructed           ...    0.0 sec
Grid point re-assignment to atoms done       ...    0.0 sec
Grid point division into batches done        ...    0.5 sec
Reduced shell lists constructed in    0.8 sec

Total number of grid points                  ...   185140
Total number of batches                      ...     2918
Average number of points per batch           ...       63
Average number of grid points per atom       ...     3939
Average number of shells per batch           ...   312.32 (68.49%)
Average number of basis functions per batch  ...   855.75 (69.46%)
Average number of large shells per batch     ...   238.80 (76.46%)
Average number of large basis fcns per batch ...   649.18 (75.86%)
Maximum spatial batch extension              ...   1.98,  2.08,  1.84 au
Average spatial batch extension              ...   0.04,  0.04,  0.04 au

Time for grid setup =    1.089 sec

------------------------------
INITIAL GUESS: MODEL POTENTIAL
------------------------------
Loading Hartree-Fock densities                     ... done
  calling /sw/apps/orca/orca_4_2_0_linux_x86-64_openmpi314/orca MOR14_ed26_atom44.inp > MOR14_ed26_atom44.out in order to generate an atomic fitting density for atom 0 (Ru with ECP) on-the-fly... 
    atom 0 (Ru), assumed electronic state with S=5: 1s2 2s2 2p6 3s2 3p6 4s2 3d10 4p6 5s2 4d6           ... done
Calculating cut-offs                               ... done
Setting up the integral package                    ... done
Initializing the effective Hamiltonian             ... done
Starting the Coulomb interaction                   ... done (   0.3 sec)
Reading the grid                                   ... done
Mapping shells                                     ... done
Starting the XC term evaluation                    ... done (   1.2 sec)
  promolecular density results
     # of electrons  =    195.985915939
     EX              =   -256.296218234
     EC              =     -7.513843562
     EX+EC           =   -263.810061796
Transforming the Hamiltonian                       ... done (   0.1 sec)
Diagonalizing the Hamiltonian                      ... done (   0.2 sec)
Back transforming the eigenvectors                 ... done (   0.1 sec)
Now organizing SCF variables                       ... done
                      ------------------
                      INITIAL GUESS DONE (   4.1 sec)
                      ------------------
--------------
SCF ITERATIONS
--------------
ITER       Energy         Delta-E        Max-DP      RMS-DP      [F,P]     Damp
               ***  Starting incremental Fock matrix formation  ***
  0  -1257.0127415412   0.000000000000 5.88588861  0.01437628  0.3974964 0.7000
  1  -1257.4063724087  -0.393630867491 0.50607225  0.00358527  0.3311212 0.7000
  2  -1257.5084605156  -0.102088106884 1.49273946  0.00444192  0.2396479 0.7000
                               ***Turning on DIIS***
  3  -1257.5999502609  -0.091489745308 0.88059744  0.00258468  0.1531505 0.7000
  4  -1257.6552290886  -0.055278827722 0.21682102  0.00140473  0.1000062 0.7000
  5  -1257.6971879217  -0.041958833080 0.83494611  0.00433112  0.0714397 0.0000
  6  -1257.7922276728  -0.095039751064 0.49380313  0.00151874  0.0146160 0.0000
  7  -1257.7931691674  -0.000941494668 1.38009068  0.00340568  0.0028506 0.0000
  8  -1257.7932299779  -0.000060810476 1.17820470  0.00301903  0.0016473 0.0000
  9  -1257.7932469988  -0.000017020898 0.64856015  0.00217346  0.0004239 0.0000
 10  -1257.7932490683  -0.000002069446 0.59604175  0.00172284  0.0003585 0.0000
 11  -1257.7932501164  -0.000001048180 0.70013162  0.00209665  0.0001264 0.0000
 12  -1257.7932499537   0.000000162708 0.37292920  0.00106792  0.0000755 0.0000
 13  -1257.7932500250  -0.000000071243 0.37493747  0.00108274  0.0000744 0.0000
                 **** Energy Check signals convergence ****

               *****************************************************
               *                     SUCCESS                       *
               *           SCF CONVERGED AFTER  14 CYCLES          *
               *****************************************************


----------------
TOTAL SCF ENERGY
----------------

Total Energy       :        -1257.79325005 Eh          -34226.29436 eV

Components:
Nuclear Repulsion  :         2177.89114910 Eh           59263.43106 eV
Electronic Energy  :        -3435.68439914 Eh          -93489.72543 eV
One Electron Energy:        -6084.29436217 Eh         -165562.06661 eV
Two Electron Energy:         2648.60996303 Eh           72072.34118 eV

Virial components:
Potential Energy   :        -2450.31313977 Eh          -66676.41030 eV
Kinetic Energy     :         1192.51988972 Eh           32450.11593 eV
Virial Ratio       :            2.05473566


DFT components:
N(Alpha)           :       83.999773971366 electrons
N(Beta)            :       83.999773971366 electrons
N(Total)           :      167.999547942733 electrons
E(X)               :     -140.826410777390 Eh       
E(C)               :       -5.871710172212 Eh       
E(XC)              :     -146.698120949602 Eh       
DFET-embed. en.    :        0.000000000000 Eh       

---------------
SCF CONVERGENCE
---------------

  Last Energy change         ...   -2.0730e-08  Tolerance :   1.0000e-06
  Last MAX-Density change    ...    8.3699e-01  Tolerance :   1.0000e-05
  Last RMS-Density change    ...    1.8396e-03  Tolerance :   1.0000e-06
  Last DIIS Error            ...    2.0190e-05  Tolerance :   1.0000e-06

             **** THE GBW FILE WAS UPDATED (MOR14_ed26.gbw) ****
             **** DENSITY FILE WAS UPDATED (MOR14_ed26.scfp) ****
             **** ENERGY FILE WAS UPDATED (MOR14_ed26.en.tmp) ****
             **** THE GBW FILE WAS UPDATED (MOR14_ed26.gbw) ****
             **** DENSITY FILE WAS UPDATED (MOR14_ed26.scfp) ****
----------------
ORBITAL ENERGIES
----------------

  NO   OCC          E(Eh)            E(eV) 
   0   2.0000    -100.901494     -2745.6692 
   1   2.0000     -10.018809      -272.6256 
   2   2.0000     -10.015696      -272.5409 
   3   2.0000     -10.012344      -272.4497 
   4   2.0000     -10.011707      -272.4324 
   5   2.0000     -10.008012      -272.3319 
   6   2.0000     -10.001768      -272.1619 
   7   2.0000     -10.000168      -272.1184 
   8   2.0000      -9.997998      -272.0594 
   9   2.0000      -9.992612      -271.9128 
  10   2.0000      -9.988923      -271.8124 
  11   2.0000      -9.988318      -271.7960 
  12   2.0000      -9.985567      -271.7211 
  13   2.0000      -9.983454      -271.6636 
  14   2.0000      -9.981756      -271.6174 
  15   2.0000      -9.981256      -271.6038 
  16   2.0000      -9.978748      -271.5355 
  17   2.0000      -9.975841      -271.4564 
  18   2.0000      -9.970706      -271.3167 
  19   2.0000      -9.151186      -249.0164 
  20   2.0000      -6.927787      -188.5147 
  21   2.0000      -6.921854      -188.3532 
  22   2.0000      -6.921585      -188.3459 
  23   2.0000      -2.897648       -78.8490 
  24   2.0000      -1.783783       -48.5392 
  25   2.0000      -1.768963       -48.1359 
  26   2.0000      -1.758401       -47.8485 
  27   2.0000      -0.839718       -22.8499 
  28   2.0000      -0.770805       -20.9747 
  29   2.0000      -0.736026       -20.0283 
  30   2.0000      -0.730385       -19.8748 
  31   2.0000      -0.714126       -19.4324 
  32   2.0000      -0.708221       -19.2717 
  33   2.0000      -0.679894       -18.5009 
  34   2.0000      -0.670184       -18.2366 
  35   2.0000      -0.668252       -18.1841 
  36   2.0000      -0.660391       -17.9701 
  37   2.0000      -0.632698       -17.2166 
  38   2.0000      -0.609562       -16.5870 
  39   2.0000      -0.585981       -15.9454 
  40   2.0000      -0.577342       -15.7103 
  41   2.0000      -0.542304       -14.7568 
  42   2.0000      -0.502168       -13.6647 
  43   2.0000      -0.482732       -13.1358 
  44   2.0000      -0.481610       -13.1053 
  45   2.0000      -0.468103       -12.7377 
  46   2.0000      -0.449624       -12.2349 
  47   2.0000      -0.435889       -11.8611 
  48   2.0000      -0.424005       -11.5378 
  49   2.0000      -0.418523       -11.3886 
  50   2.0000      -0.411992       -11.2109 
  51   2.0000      -0.399392       -10.8680 
  52   2.0000      -0.396880       -10.7997 
  53   2.0000      -0.392225       -10.6730 
  54   2.0000      -0.386508       -10.5174 
  55   2.0000      -0.384225       -10.4553 
  56   2.0000      -0.376446       -10.2436 
  57   2.0000      -0.373783       -10.1712 
  58   2.0000      -0.369823       -10.0634 
  59   2.0000      -0.367988       -10.0135 
  60   2.0000      -0.365987        -9.9590 
  61   2.0000      -0.364493        -9.9183 
  62   2.0000      -0.353120        -9.6089 
  63   2.0000      -0.345535        -9.4025 
  64   2.0000      -0.344635        -9.3780 
  65   2.0000      -0.325991        -8.8707 
  66   2.0000      -0.324908        -8.8412 
  67   2.0000      -0.317873        -8.6498 
  68   2.0000      -0.315298        -8.5797 
  69   2.0000      -0.313279        -8.5247 
  70   2.0000      -0.309095        -8.4109 
  71   2.0000      -0.305496        -8.3130 
  72   2.0000      -0.284790        -7.7495 
  73   2.0000      -0.278236        -7.5712 
  74   2.0000      -0.266801        -7.2600 
  75   2.0000      -0.250637        -6.8202 
  76   2.0000      -0.248013        -6.7488 
  77   2.0000      -0.237652        -6.4668 
  78   2.0000      -0.229114        -6.2345 
  79   2.0000      -0.222325        -6.0498 
  80   2.0000      -0.214764        -5.8440 
  81   2.0000      -0.184205        -5.0125 
  82   2.0000      -0.177786        -4.8378 
  83   2.0000      -0.163586        -4.4514 
  84   0.0000      -0.065595        -1.7849 
  85   0.0000      -0.041329        -1.1246 
  86   0.0000      -0.019528        -0.5314 
  87   0.0000      -0.007369        -0.2005 
  88   0.0000      -0.002239        -0.0609 
  89   0.0000       0.000320         0.0087 
  90   0.0000       0.003586         0.0976 
  91   0.0000       0.007159         0.1948 
  92   0.0000       0.014151         0.3851 
  93   0.0000       0.018800         0.5116 
  94   0.0000       0.022337         0.6078 
  95   0.0000       0.023596         0.6421 
  96   0.0000       0.025021         0.6809 
  97   0.0000       0.029612         0.8058 
  98   0.0000       0.033573         0.9136 
  99   0.0000       0.041730         1.1355 
 100   0.0000       0.045564         1.2399 
 101   0.0000       0.049691         1.3521 
 102   0.0000       0.052715         1.4345 
 103   0.0000       0.055907         1.5213 
 104   0.0000       0.058333         1.5873 
 105   0.0000       0.065201         1.7742 
 106   0.0000       0.069795         1.8992 
 107   0.0000       0.073028         1.9872 
 108   0.0000       0.075768         2.0617 
 109   0.0000       0.078457         2.1349 
 110   0.0000       0.081789         2.2256 
 111   0.0000       0.086051         2.3416 
 112   0.0000       0.090756         2.4696 
 113   0.0000       0.093370         2.5407 
 114   0.0000       0.096425         2.6239 
 115   0.0000       0.097634         2.6568 
 116   0.0000       0.103788         2.8242 
 117   0.0000       0.109414         2.9773 
 118   0.0000       0.112738         3.0678 
 119   0.0000       0.118011         3.2113 
 120   0.0000       0.119890         3.2624 
 121   0.0000       0.121614         3.3093 
 122   0.0000       0.123270         3.3544 
 123   0.0000       0.126236         3.4351 
 124   0.0000       0.127508         3.4697 
 125   0.0000       0.132110         3.5949 
 126   0.0000       0.139591         3.7985 
 127   0.0000       0.146339         3.9821 
 128   0.0000       0.146795         3.9945 
 129   0.0000       0.147876         4.0239 
 130   0.0000       0.152671         4.1544 
 131   0.0000       0.155030         4.2186 
 132   0.0000       0.157033         4.2731 
 133   0.0000       0.163059         4.4371 
 134   0.0000       0.167272         4.5517 
 135   0.0000       0.167694         4.5632 
 136   0.0000       0.171801         4.6750 
 137   0.0000       0.176485         4.8024 
 138   0.0000       0.177639         4.8338 
 139   0.0000       0.183886         5.0038 
 140   0.0000       0.185688         5.0528 
 141   0.0000       0.186525         5.0756 
 142   0.0000       0.189406         5.1540 
 143   0.0000       0.192796         5.2462 
 144   0.0000       0.194922         5.3041 
 145   0.0000       0.196405         5.3445 
 146   0.0000       0.198225         5.3940 
 147   0.0000       0.198504         5.4016 
 148   0.0000       0.204109         5.5541 
 149   0.0000       0.207234         5.6391 
 150   0.0000       0.212682         5.7874 
 151   0.0000       0.213261         5.8031 
 152   0.0000       0.214579         5.8390 
 153   0.0000       0.216103         5.8805 
 154   0.0000       0.218364         5.9420 
 155   0.0000       0.219970         5.9857 
 156   0.0000       0.222739         6.0610 
 157   0.0000       0.224173         6.1001 
 158   0.0000       0.226221         6.1558 
 159   0.0000       0.231381         6.2962 
 160   0.0000       0.232505         6.3268 
 161   0.0000       0.233858         6.3636 
 162   0.0000       0.234644         6.3850 
 163   0.0000       0.238705         6.4955 
 164   0.0000       0.239116         6.5067 
 165   0.0000       0.241557         6.5731 
 166   0.0000       0.245594         6.6830 
 167   0.0000       0.247509         6.7351 
 168   0.0000       0.249590         6.7917 
 169   0.0000       0.250551         6.8178 
 170   0.0000       0.253025         6.8852 
 171   0.0000       0.256406         6.9772 
 172   0.0000       0.258166         7.0251 
 173   0.0000       0.262004         7.1295 
 174   0.0000       0.264143         7.1877 
 175   0.0000       0.264757         7.2044 
 176   0.0000       0.269484         7.3330 
 177   0.0000       0.270915         7.3720 
 178   0.0000       0.274650         7.4736 
 179   0.0000       0.275910         7.5079 
 180   0.0000       0.277809         7.5596 
 181   0.0000       0.278587         7.5807 
 182   0.0000       0.284750         7.7484 
 183   0.0000       0.287624         7.8266 
 184   0.0000       0.289171         7.8687 
 185   0.0000       0.290525         7.9056 
 186   0.0000       0.291286         7.9263 
 187   0.0000       0.296589         8.0706 
 188   0.0000       0.297594         8.0979 
 189   0.0000       0.298339         8.1182 
 190   0.0000       0.299782         8.1575 
 191   0.0000       0.305057         8.3010 
 192   0.0000       0.306212         8.3325 
 193   0.0000       0.308250         8.3879 
 194   0.0000       0.309810         8.4304 
 195   0.0000       0.313456         8.5296 
 196   0.0000       0.315792         8.5931 
 197   0.0000       0.318156         8.6575 
 198   0.0000       0.320552         8.7227 
 199   0.0000       0.322901         8.7866 
 200   0.0000       0.325210         8.8494 
 201   0.0000       0.326377         8.8812 
 202   0.0000       0.328698         8.9443 
 203   0.0000       0.334302         9.0968 
 204   0.0000       0.337354         9.1799 
 205   0.0000       0.339117         9.2278 
 206   0.0000       0.340349         9.2614 
 207   0.0000       0.342117         9.3095 
 208   0.0000       0.346154         9.4193 
 209   0.0000       0.346420         9.4266 
 210   0.0000       0.349734         9.5167 
 211   0.0000       0.352313         9.5869 
 212   0.0000       0.353784         9.6270 
 213   0.0000       0.354869         9.6565 
 214   0.0000       0.356923         9.7124 
 215   0.0000       0.359576         9.7846 
 216   0.0000       0.362815         9.8727 
 217   0.0000       0.365598         9.9484 
 218   0.0000       0.366384         9.9698 
 219   0.0000       0.369915        10.0659 
 220   0.0000       0.375363        10.2141 
 221   0.0000       0.377763        10.2795 
 222   0.0000       0.382210        10.4005 
 223   0.0000       0.383320        10.4307 
 224   0.0000       0.384801        10.4710 
 225   0.0000       0.387755        10.5513 
 226   0.0000       0.389428        10.5969 
 227   0.0000       0.395022        10.7491 
 228   0.0000       0.396784        10.7970 
 229   0.0000       0.398714        10.8496 
 230   0.0000       0.401970        10.9382 
 231   0.0000       0.404061        10.9950 
 232   0.0000       0.405963        11.0468 
 233   0.0000       0.409836        11.1522 
 234   0.0000       0.413139        11.2421 
 235   0.0000       0.413594        11.2545 
 236   0.0000       0.415610        11.3093 
 237   0.0000       0.418162        11.3788 
 238   0.0000       0.419662        11.4196 
 239   0.0000       0.421254        11.4629 
 240   0.0000       0.424421        11.5491 
 241   0.0000       0.428460        11.6590 
 242   0.0000       0.431507        11.7419 
 243   0.0000       0.435634        11.8542 
 244   0.0000       0.436251        11.8710 
 245   0.0000       0.439322        11.9546 
 246   0.0000       0.441248        12.0070 
 247   0.0000       0.442719        12.0470 
 248   0.0000       0.444728        12.1017 
 249   0.0000       0.449060        12.2195 
 250   0.0000       0.452626        12.3166 
 251   0.0000       0.456329        12.4173 
 252   0.0000       0.457837        12.4584 
 253   0.0000       0.461267        12.5517 
 254   0.0000       0.465622        12.6702 
 255   0.0000       0.467300        12.7159 
 256   0.0000       0.471312        12.8250 
 257   0.0000       0.474211        12.9039 
 258   0.0000       0.476459        12.9651 
 259   0.0000       0.478840        13.0299 
 260   0.0000       0.483230        13.1494 
 261   0.0000       0.486047        13.2260 
 262   0.0000       0.487729        13.2718 
 263   0.0000       0.489060        13.3080 
 264   0.0000       0.491545        13.3756 
 265   0.0000       0.493631        13.4324 
 266   0.0000       0.497299        13.5322 
 267   0.0000       0.498343        13.5606 
 268   0.0000       0.500332        13.6147 
 269   0.0000       0.502835        13.6828 
 270   0.0000       0.504861        13.7380 
 271   0.0000       0.506937        13.7945 
 272   0.0000       0.509813        13.8727 
 273   0.0000       0.512258        13.9393 
 274   0.0000       0.514753        14.0072 
 275   0.0000       0.516636        14.0584 
 276   0.0000       0.521816        14.1993 
 277   0.0000       0.523107        14.2345 
 278   0.0000       0.529425        14.4064 
 279   0.0000       0.531775        14.4703 
 280   0.0000       0.532966        14.5027 
 281   0.0000       0.536469        14.5981 
 282   0.0000       0.539386        14.6775 
 283   0.0000       0.543449        14.7880 
 284   0.0000       0.544716        14.8225 
 285   0.0000       0.548146        14.9158 
 286   0.0000       0.550152        14.9704 
 287   0.0000       0.551098        14.9961 
 288   0.0000       0.558769        15.2049 
 289   0.0000       0.562435        15.3046 
 290   0.0000       0.569492        15.4967 
 291   0.0000       0.572011        15.5652 
 292   0.0000       0.573378        15.6024 
 293   0.0000       0.577880        15.7249 
 294   0.0000       0.579810        15.7774 
 295   0.0000       0.581307        15.8182 
 296   0.0000       0.586645        15.9634 
 297   0.0000       0.590477        16.0677 
 298   0.0000       0.591652        16.0997 
 299   0.0000       0.595157        16.1951 
 300   0.0000       0.601118        16.3572 
 301   0.0000       0.604613        16.4524 
 302   0.0000       0.606737        16.5102 
 303   0.0000       0.611725        16.6459 
 304   0.0000       0.613207        16.6862 
 305   0.0000       0.614934        16.7332 
 306   0.0000       0.615077        16.7371 
 307   0.0000       0.620758        16.8917 
 308   0.0000       0.621415        16.9096 
 309   0.0000       0.624008        16.9801 
 310   0.0000       0.626503        17.0480 
 311   0.0000       0.628425        17.1003 
 312   0.0000       0.631844        17.1933 
 313   0.0000       0.634157        17.2563 
 314   0.0000       0.634790        17.2735 
 315   0.0000       0.637960        17.3598 
 316   0.0000       0.639078        17.3902 
 317   0.0000       0.640048        17.4166 
 318   0.0000       0.642858        17.4931 
 319   0.0000       0.645804        17.5732 
 320   0.0000       0.647699        17.6248 
 321   0.0000       0.649964        17.6864 
 322   0.0000       0.654384        17.8067 
 323   0.0000       0.656834        17.8734 
 324   0.0000       0.657336        17.8870 
 325   0.0000       0.658528        17.9195 
 326   0.0000       0.662580        18.0297 
 327   0.0000       0.663207        18.0468 
 328   0.0000       0.665410        18.1067 
 329   0.0000       0.667196        18.1553 
 330   0.0000       0.670074        18.2336 
 331   0.0000       0.673348        18.3227 
 332   0.0000       0.676295        18.4029 
 333   0.0000       0.678929        18.4746 
 334   0.0000       0.681832        18.5536 
 335   0.0000       0.683689        18.6041 
 336   0.0000       0.686649        18.6847 
 337   0.0000       0.688089        18.7238 
 338   0.0000       0.692327        18.8392 
 339   0.0000       0.693375        18.8677 
 340   0.0000       0.697040        18.9674 
 341   0.0000       0.701431        19.0869 
 342   0.0000       0.701587        19.0911 
 343   0.0000       0.702905        19.1270 
 344   0.0000       0.705990        19.2110 
 345   0.0000       0.707866        19.2620 
 346   0.0000       0.712362        19.3844 
 347   0.0000       0.712895        19.3989 
 348   0.0000       0.715528        19.4705 
 349   0.0000       0.717802        19.5324 
 350   0.0000       0.722606        19.6631 
 351   0.0000       0.723950        19.6997 
 352   0.0000       0.725238        19.7347 
 353   0.0000       0.727478        19.7957 
 354   0.0000       0.729686        19.8558 
 355   0.0000       0.732161        19.9231 
 356   0.0000       0.734485        19.9863 
 357   0.0000       0.735806        20.0223 
 358   0.0000       0.737058        20.0564 
 359   0.0000       0.738302        20.0902 
 360   0.0000       0.742667        20.2090 
 361   0.0000       0.743895        20.2424 
 362   0.0000       0.747764        20.3477 
 363   0.0000       0.750873        20.4323 
 364   0.0000       0.755011        20.5449 
 365   0.0000       0.757710        20.6183 
 366   0.0000       0.760945        20.7064 
 367   0.0000       0.761300        20.7160 
 368   0.0000       0.764006        20.7897 
 369   0.0000       0.768894        20.9227 
 370   0.0000       0.773281        21.0420 
 371   0.0000       0.777781        21.1645 
 372   0.0000       0.779933        21.2231 
 373   0.0000       0.780829        21.2474 
 374   0.0000       0.784612        21.3504 
 375   0.0000       0.789274        21.4772 
 376   0.0000       0.791196        21.5295 
 377   0.0000       0.796016        21.6607 
 378   0.0000       0.797331        21.6965 
 379   0.0000       0.799546        21.7568 
 380   0.0000       0.801215        21.8022 
 381   0.0000       0.803713        21.8701 
 382   0.0000       0.804656        21.8958 
 383   0.0000       0.806561        21.9476 
 384   0.0000       0.810992        22.0682 
 385   0.0000       0.817360        22.2415 
 386   0.0000       0.819049        22.2875 
 387   0.0000       0.822020        22.3683 
 388   0.0000       0.823170        22.3996 
 389   0.0000       0.824132        22.4258 
 390   0.0000       0.827897        22.5282 
 391   0.0000       0.832179        22.6448 
 392   0.0000       0.834845        22.7173 
 393   0.0000       0.840127        22.8610 
 394   0.0000       0.845678        23.0121 
 395   0.0000       0.849011        23.1028 
 396   0.0000       0.852662        23.2021 
 397   0.0000       0.858359        23.3571 
 398   0.0000       0.859576        23.3903 
 399   0.0000       0.863222        23.4895 
 400   0.0000       0.863929        23.5087 
 401   0.0000       0.867190        23.5974 
 402   0.0000       0.868742        23.6397 
 403   0.0000       0.874212        23.7885 
 404   0.0000       0.875436        23.8218 
 405   0.0000       0.879971        23.9452 
 406   0.0000       0.884844        24.0778 
 407   0.0000       0.887524        24.1507 
 408   0.0000       0.890062        24.2198 
 409   0.0000       0.894564        24.3423 
 410   0.0000       0.897433        24.4204 
 411   0.0000       0.903757        24.5925 
 412   0.0000       0.906353        24.6631 
 413   0.0000       0.910978        24.7890 
 414   0.0000       0.913230        24.8503 
 415   0.0000       0.915827        24.9209 
 416   0.0000       0.918855        25.0033 
 417   0.0000       0.922397        25.0997 
 418   0.0000       0.928618        25.2690 
 419   0.0000       0.932248        25.3678 
 420   0.0000       0.935929        25.4679 
 421   0.0000       0.940547        25.5936 
 422   0.0000       0.942346        25.6425 
 423   0.0000       0.945251        25.7216 
 424   0.0000       0.949555        25.8387 
 425   0.0000       0.954483        25.9728 
 426   0.0000       0.957300        26.0495 
 427   0.0000       0.960350        26.1324 
 428   0.0000       0.963739        26.2247 
 429   0.0000       0.974163        26.5083 
 430   0.0000       0.974917        26.5288 
 431   0.0000       0.979112        26.6430 
 432   0.0000       0.985152        26.8073 
 433   0.0000       0.987343        26.8670 
 434   0.0000       0.993605        27.0374 
 435   0.0000       0.999084        27.1865 
 436   0.0000       1.000673        27.2297 
 437   0.0000       1.009466        27.4690 
 438   0.0000       1.013469        27.5779 
 439   0.0000       1.020189        27.7608 
 440   0.0000       1.029522        28.0147 
 441   0.0000       1.033454        28.1217 
 442   0.0000       1.038761        28.2661 
 443   0.0000       1.043422        28.3930 
 444   0.0000       1.047940        28.5159 
 445   0.0000       1.060602        28.8605 
 446   0.0000       1.064297        28.9610 
 447   0.0000       1.064847        28.9760 
 448   0.0000       1.072132        29.1742 
 449   0.0000       1.081817        29.4377 
 450   0.0000       1.084772        29.5181 
 451   0.0000       1.091846        29.7106 
 452   0.0000       1.100927        29.9577 
 453   0.0000       1.101536        29.9743 
 454   0.0000       1.106916        30.1207 
 455   0.0000       1.109963        30.2036 
 456   0.0000       1.115498        30.3542 
 457   0.0000       1.119739        30.4697 
 458   0.0000       1.124749        30.6060 
 459   0.0000       1.127192        30.6725 
 460   0.0000       1.133905        30.8551 
 461   0.0000       1.137316        30.9479 
 462   0.0000       1.146368        31.1942 
 463   0.0000       1.159674        31.5563 
 464   0.0000       1.160640        31.5826 
 465   0.0000       1.163113        31.6499 
 466   0.0000       1.166754        31.7490 
 467   0.0000       1.173915        31.9438 
 468   0.0000       1.187035        32.3009 
 469   0.0000       1.189721        32.3739 
 470   0.0000       1.192161        32.4404 
 471   0.0000       1.196504        32.5585 
 472   0.0000       1.203421        32.7467 
 473   0.0000       1.206227        32.8231 
 474   0.0000       1.208840        32.8942 
 475   0.0000       1.215508        33.0756 
 476   0.0000       1.224826        33.3292 
 477   0.0000       1.232723        33.5441 
 478   0.0000       1.239715        33.7344 
 479   0.0000       1.242389        33.8071 
 480   0.0000       1.246003        33.9055 
 481   0.0000       1.247006        33.9327 
 482   0.0000       1.253402        34.1068 
 483   0.0000       1.257127        34.2082 
 484   0.0000       1.265829        34.4450 
 485   0.0000       1.268054        34.5055 
 486   0.0000       1.270762        34.5792 
 487   0.0000       1.275110        34.6975 
 488   0.0000       1.281427        34.8694 
 489   0.0000       1.283818        34.9345 
 490   0.0000       1.289372        35.0856 
 491   0.0000       1.290728        35.1225 
 492   0.0000       1.302834        35.4519 
 493   0.0000       1.306077        35.5402 
 494   0.0000       1.309282        35.6274 
 495   0.0000       1.313499        35.7421 
 496   0.0000       1.320540        35.9337 
 497   0.0000       1.325129        36.0586 
 498   0.0000       1.328661        36.1547 
 499   0.0000       1.331835        36.2411 
 500   0.0000       1.335708        36.3465 
 501   0.0000       1.339397        36.4468 
 502   0.0000       1.342733        36.5376 
 503   0.0000       1.348412        36.6922 
 504   0.0000       1.351326        36.7715 
 505   0.0000       1.356436        36.9105 
 506   0.0000       1.360100        37.0102 
 507   0.0000       1.364425        37.1279 
 508   0.0000       1.365628        37.1606 
 509   0.0000       1.370858        37.3029 
 510   0.0000       1.379006        37.5247 
 511   0.0000       1.380647        37.5693 
 512   0.0000       1.386464        37.7276 
 513   0.0000       1.390064        37.8256 
 514   0.0000       1.392754        37.8988 
 515   0.0000       1.397608        38.0308 
 516   0.0000       1.398078        38.0436 
 517   0.0000       1.405926        38.2572 
 518   0.0000       1.410066        38.3699 
 519   0.0000       1.413469        38.4624 
 520   0.0000       1.416908        38.5560 
 521   0.0000       1.418915        38.6106 
 522   0.0000       1.426377        38.8137 
 523   0.0000       1.428256        38.8648 
 524   0.0000       1.431713        38.9589 
 525   0.0000       1.437605        39.1192 
 526   0.0000       1.441256        39.2186 
 527   0.0000       1.443603        39.2824 
 528   0.0000       1.446868        39.3713 
 529   0.0000       1.451936        39.5092 
 530   0.0000       1.454028        39.5661 
 531   0.0000       1.460564        39.7440 
 532   0.0000       1.464755        39.8580 
 533   0.0000       1.465675        39.8831 
 534   0.0000       1.469516        39.9876 
 535   0.0000       1.474383        40.1200 
 536   0.0000       1.483821        40.3768 
 537   0.0000       1.486195        40.4414 
 538   0.0000       1.488756        40.5111 
 539   0.0000       1.493251        40.6334 
 540   0.0000       1.495642        40.6985 
 541   0.0000       1.504376        40.9361 
 542   0.0000       1.510538        41.1038 
 543   0.0000       1.512275        41.1511 
 544   0.0000       1.516235        41.2589 
 545   0.0000       1.520389        41.3719 
 546   0.0000       1.525558        41.5125 
 547   0.0000       1.530876        41.6572 
 548   0.0000       1.534361        41.7521 
 549   0.0000       1.536752        41.8171 
 550   0.0000       1.546813        42.0909 
 551   0.0000       1.551330        42.2138 
 552   0.0000       1.555970        42.3401 
 553   0.0000       1.557398        42.3790 
 554   0.0000       1.562399        42.5150 
 555   0.0000       1.565983        42.6126 
 556   0.0000       1.567402        42.6512 
 557   0.0000       1.577979        42.9390 
 558   0.0000       1.580966        43.0203 
 559   0.0000       1.583028        43.0764 
 560   0.0000       1.589656        43.2567 
 561   0.0000       1.593237        43.3542 
 562   0.0000       1.600563        43.5535 
 563   0.0000       1.610135        43.8140 
 564   0.0000       1.610849        43.8334 
 565   0.0000       1.615495        43.9599 
 566   0.0000       1.620668        44.1006 
 567   0.0000       1.627389        44.2835 
 568   0.0000       1.637433        44.5568 
 569   0.0000       1.641469        44.6666 
 570   0.0000       1.644223        44.7416 
 571   0.0000       1.648379        44.8547 
 572   0.0000       1.655144        45.0387 
 573   0.0000       1.661573        45.2137 
 574   0.0000       1.662615        45.2420 
 575   0.0000       1.669506        45.4296 
 576   0.0000       1.678622        45.6776 
 577   0.0000       1.680707        45.7344 
 578   0.0000       1.689504        45.9737 
 579   0.0000       1.693131        46.0724 
 580   0.0000       1.696984        46.1773 
 581   0.0000       1.699285        46.2399 
 582   0.0000       1.702684        46.3324 
 583   0.0000       1.709807        46.5262 
 584   0.0000       1.717185        46.7270 
 585   0.0000       1.720561        46.8188 
 586   0.0000       1.726062        46.9685 
 587   0.0000       1.737499        47.2797 
 588   0.0000       1.741761        47.3957 
 589   0.0000       1.743229        47.4357 
 590   0.0000       1.747832        47.5609 
 591   0.0000       1.750401        47.6308 
 592   0.0000       1.756981        47.8099 
 593   0.0000       1.767538        48.0972 
 594   0.0000       1.768538        48.1244 
 595   0.0000       1.775071        48.3021 
 596   0.0000       1.783866        48.5415 
 597   0.0000       1.787898        48.6512 
 598   0.0000       1.791987        48.7624 
 599   0.0000       1.798135        48.9297 
 600   0.0000       1.799689        48.9720 
 601   0.0000       1.800777        49.0016 
 602   0.0000       1.811570        49.2953 
 603   0.0000       1.817394        49.4538 
 604   0.0000       1.817751        49.4635 
 605   0.0000       1.825250        49.6676 
 606   0.0000       1.833982        49.9052 
 607   0.0000       1.836038        49.9611 
 608   0.0000       1.846545        50.2471 
 609   0.0000       1.850801        50.3629 
 610   0.0000       1.861344        50.6497 
 611   0.0000       1.866001        50.7765 
 612   0.0000       1.879690        51.1490 
 613   0.0000       1.882882        51.2358 
 614   0.0000       1.885961        51.3196 
 615   0.0000       1.891542        51.4715 
 616   0.0000       1.905212        51.8435 
 617   0.0000       1.911185        52.0060 
 618   0.0000       1.913378        52.0656 
 619   0.0000       1.921146        52.2770 
 620   0.0000       1.929351        52.5003 
 621   0.0000       1.936232        52.6876 
 622   0.0000       1.946270        52.9607 
 623   0.0000       1.951687        53.1081 
 624   0.0000       1.952622        53.1336 
 625   0.0000       1.959410        53.3183 
 626   0.0000       1.968457        53.5644 
 627   0.0000       1.979477        53.8643 
 628   0.0000       1.982225        53.9391 
 629   0.0000       1.993758        54.2529 
 630   0.0000       1.997328        54.3501 
 631   0.0000       2.007091        54.6157 
 632   0.0000       2.017398        54.8962 
 633   0.0000       2.026175        55.1350 
 634   0.0000       2.027807        55.1794 
 635   0.0000       2.036517        55.4164 
 636   0.0000       2.048304        55.7372 
 637   0.0000       2.052242        55.8443 
 638   0.0000       2.063654        56.1549 
 639   0.0000       2.069248        56.3071 
 640   0.0000       2.087326        56.7990 
 641   0.0000       2.098264        57.0967 
 642   0.0000       2.099886        57.1408 
 643   0.0000       2.112480        57.4835 
 644   0.0000       2.123881        57.7937 
 645   0.0000       2.127431        57.8903 
 646   0.0000       2.136296        58.1316 
 647   0.0000       2.151001        58.5317 
 648   0.0000       2.162356        58.8407 
 649   0.0000       2.164925        58.9106 
 650   0.0000       2.168199        58.9997 
 651   0.0000       2.183425        59.4140 
 652   0.0000       2.185583        59.4727 
 653   0.0000       2.195449        59.7412 
 654   0.0000       2.202202        59.9250 
 655   0.0000       2.203622        59.9636 
 656   0.0000       2.211634        60.1816 
 657   0.0000       2.216273        60.3079 
 658   0.0000       2.224545        60.5329 
 659   0.0000       2.234824        60.8126 
 660   0.0000       2.246949        61.1426 
 661   0.0000       2.255567        61.3771 
 662   0.0000       2.260700        61.5168 
 663   0.0000       2.267890        61.7124 
 664   0.0000       2.275316        61.9145 
 665   0.0000       2.284338        62.1600 
 666   0.0000       2.296655        62.4951 
 667   0.0000       2.302760        62.6613 
 668   0.0000       2.310456        62.8707 
 669   0.0000       2.314886        62.9913 
 670   0.0000       2.319965        63.1295 
 671   0.0000       2.345496        63.8242 
 672   0.0000       2.352750        64.0216 
 673   0.0000       2.357874        64.1610 
 674   0.0000       2.362907        64.2980 
 675   0.0000       2.373558        64.5878 
 676   0.0000       2.387768        64.9745 
 677   0.0000       2.394297        65.1521 
 678   0.0000       2.402359        65.3715 
 679   0.0000       2.408116        65.5282 
 680   0.0000       2.423862        65.9566 
 681   0.0000       2.431083        66.1531 
 682   0.0000       2.440731        66.4157 
 683   0.0000       2.446871        66.5828 
 684   0.0000       2.460015        66.9404 
 685   0.0000       2.465145        67.0800 
 686   0.0000       2.476295        67.3834 
 687   0.0000       2.482034        67.5396 
 688   0.0000       2.496836        67.9424 
 689   0.0000       2.500926        68.0537 
 690   0.0000       2.508714        68.2656 
 691   0.0000       2.517255        68.4980 
 692   0.0000       2.528308        68.7988 
 693   0.0000       2.531117        68.8752 
 694   0.0000       2.542966        69.1976 
 695   0.0000       2.552806        69.4654 
 696   0.0000       2.561264        69.6955 
 697   0.0000       2.573063        70.0166 
 698   0.0000       2.580468        70.2181 
 699   0.0000       2.584887        70.3384 
 700   0.0000       2.590982        70.5042 
 701   0.0000       2.606033        70.9138 
 702   0.0000       2.613987        71.1302 
 703   0.0000       2.620899        71.3183 
 704   0.0000       2.636913        71.7540 
 705   0.0000       2.639946        71.8366 
 706   0.0000       2.644300        71.9551 
 707   0.0000       2.649966        72.1092 
 708   0.0000       2.660804        72.4041 
 709   0.0000       2.669719        72.6467 
 710   0.0000       2.684750        73.0558 
 711   0.0000       2.692667        73.2712 
 712   0.0000       2.703501        73.5660 
 713   0.0000       2.708424        73.7000 
 714   0.0000       2.716078        73.9082 
 715   0.0000       2.731953        74.3402 
 716   0.0000       2.737497        74.4911 
 717   0.0000       2.746224        74.7286 
 718   0.0000       2.757635        75.0391 
 719   0.0000       2.769760        75.3690 
 720   0.0000       2.777046        75.5673 
 721   0.0000       2.789183        75.8975 
 722   0.0000       2.789957        75.9186 
 723   0.0000       2.799372        76.1748 
 724   0.0000       2.802714        76.2657 
 725   0.0000       2.808520        76.4237 
 726   0.0000       2.812804        76.5403 
 727   0.0000       2.824024        76.8456 
 728   0.0000       2.828204        76.9594 
 729   0.0000       2.850277        77.5600 
 730   0.0000       2.860998        77.8517 
 731   0.0000       2.864267        77.9407 
 732   0.0000       2.868693        78.0611 
 733   0.0000       2.881370        78.4061 
 734   0.0000       2.892352        78.7049 
 735   0.0000       2.897722        78.8510 
 736   0.0000       2.904898        79.0463 
 737   0.0000       2.910100        79.1878 
 738   0.0000       2.913647        79.2844 
 739   0.0000       2.919306        79.4383 
 740   0.0000       2.921299        79.4926 
 741   0.0000       2.930226        79.7355 
 742   0.0000       2.933031        79.8118 
 743   0.0000       2.937075        79.9219 
 744   0.0000       2.940089        80.0039 
 745   0.0000       2.946323        80.1735 
 746   0.0000       2.948534        80.2337 
 747   0.0000       2.954488        80.3957 
 748   0.0000       2.960558        80.5609 
 749   0.0000       2.962899        80.6246 
 750   0.0000       2.970048        80.8191 
 751   0.0000       2.980723        81.1096 
 752   0.0000       2.982987        81.1712 
 753   0.0000       2.984760        81.2195 
 754   0.0000       2.995327        81.5070 
 755   0.0000       2.997979        81.5792 
 756   0.0000       3.005847        81.7933 
 757   0.0000       3.012034        81.9616 
 758   0.0000       3.019649        82.1688 
 759   0.0000       3.022144        82.2367 
 760   0.0000       3.029531        82.4377 
 761   0.0000       3.034477        82.5723 
 762   0.0000       3.039052        82.6968 
 763   0.0000       3.041135        82.7535 
 764   0.0000       3.047906        82.9377 
 765   0.0000       3.055357        83.1405 
 766   0.0000       3.066212        83.4359 
 767   0.0000       3.077757        83.7500 
 768   0.0000       3.080135        83.8147 
 769   0.0000       3.090190        84.0883 
 770   0.0000       3.093581        84.1806 
 771   0.0000       3.095159        84.2236 
 772   0.0000       3.100678        84.3737 
 773   0.0000       3.106400        84.5294 
 774   0.0000       3.111841        84.6775 
 775   0.0000       3.125396        85.0464 
 776   0.0000       3.138139        85.3931 
 777   0.0000       3.138865        85.4129 
 778   0.0000       3.140631        85.4609 
 779   0.0000       3.147295        85.6422 
 780   0.0000       3.153394        85.8082 
 781   0.0000       3.167537        86.1931 
 782   0.0000       3.171728        86.3071 
 783   0.0000       3.176840        86.4462 
 784   0.0000       3.184344        86.6504 
 785   0.0000       3.186348        86.7050 
 786   0.0000       3.192738        86.8788 
 787   0.0000       3.198680        87.0405 
 788   0.0000       3.206810        87.2617 
 789   0.0000       3.210614        87.3653 
 790   0.0000       3.216418        87.5232 
 791   0.0000       3.217204        87.5446 
 792   0.0000       3.221990        87.6748 
 793   0.0000       3.227621        87.8280 
 794   0.0000       3.232785        87.9686 
 795   0.0000       3.242149        88.2234 
 796   0.0000       3.243630        88.2636 
 797   0.0000       3.253518        88.5327 
 798   0.0000       3.255280        88.5807 
 799   0.0000       3.263017        88.7912 
 800   0.0000       3.265863        88.8686 
 801   0.0000       3.267365        88.9095 
 802   0.0000       3.272916        89.0606 
 803   0.0000       3.277404        89.1827 
 804   0.0000       3.282884        89.3318 
 805   0.0000       3.297394        89.7266 
 806   0.0000       3.297915        89.7408 
 807   0.0000       3.303286        89.8870 
 808   0.0000       3.307079        89.9902 
 809   0.0000       3.313554        90.1664 
 810   0.0000       3.318658        90.3053 
 811   0.0000       3.323763        90.4442 
 812   0.0000       3.327019        90.5328 
 813   0.0000       3.334880        90.7467 
 814   0.0000       3.338179        90.8365 
 815   0.0000       3.349090        91.1334 
 816   0.0000       3.355500        91.3078 
 817   0.0000       3.362372        91.4948 
 818   0.0000       3.364593        91.5552 
 819   0.0000       3.375286        91.8462 
 820   0.0000       3.377720        91.9124 
 821   0.0000       3.381861        92.0251 
 822   0.0000       3.387047        92.1662 
 823   0.0000       3.389962        92.2456 
 824   0.0000       3.394310        92.3639 
 825   0.0000       3.398029        92.4651 
 826   0.0000       3.403805        92.6222 
 827   0.0000       3.411292        92.8260 
 828   0.0000       3.413685        92.8911 
 829   0.0000       3.418741        93.0287 
 830   0.0000       3.422855        93.1406 
 831   0.0000       3.429865        93.3314 
 832   0.0000       3.435806        93.4930 
 833   0.0000       3.440048        93.6085 
 834   0.0000       3.450088        93.8817 
 835   0.0000       3.456194        94.0478 
 836   0.0000       3.461830        94.2012 
 837   0.0000       3.465643        94.3049 
 838   0.0000       3.469326        94.4052 
 839   0.0000       3.479098        94.6711 
 840   0.0000       3.483022        94.7778 
 841   0.0000       3.488194        94.9186 
 842   0.0000       3.489716        94.9600 
 843   0.0000       3.498109        95.1884 
 844   0.0000       3.503922        95.3466 
 845   0.0000       3.507032        95.4312 
 846   0.0000       3.509607        95.5013 
 847   0.0000       3.515902        95.6725 
 848   0.0000       3.524019        95.8934 
 849   0.0000       3.526586        95.9633 
 850   0.0000       3.528252        96.0086 
 851   0.0000       3.537395        96.2574 
 852   0.0000       3.538588        96.2899 
 853   0.0000       3.543597        96.4262 
 854   0.0000       3.552396        96.6656 
 855   0.0000       3.560302        96.8807 
 856   0.0000       3.562853        96.9501 
 857   0.0000       3.568415        97.1015 
 858   0.0000       3.574504        97.2672 
 859   0.0000       3.581719        97.4635 
 860   0.0000       3.587888        97.6314 
 861   0.0000       3.590984        97.7156 
 862   0.0000       3.603076        98.0447 
 863   0.0000       3.611048        98.2616 
 864   0.0000       3.614528        98.3563 
 865   0.0000       3.619665        98.4961 
 866   0.0000       3.622246        98.5663 
 867   0.0000       3.624314        98.6226 
 868   0.0000       3.627875        98.7195 
 869   0.0000       3.635989        98.9403 
 870   0.0000       3.644600        99.1746 
 871   0.0000       3.649378        99.3046 
 872   0.0000       3.653948        99.4290 
 873   0.0000       3.661771        99.6419 
 874   0.0000       3.667522        99.7983 
 875   0.0000       3.669241        99.8451 
 876   0.0000       3.677771       100.0772 
 877   0.0000       3.681368       100.1751 
 878   0.0000       3.684173       100.2515 
 879   0.0000       3.692252       100.4713 
 880   0.0000       3.694317       100.5275 
 881   0.0000       3.699857       100.6782 
 882   0.0000       3.705363       100.8281 
 883   0.0000       3.707596       100.8888 
 884   0.0000       3.717559       101.1599 
 885   0.0000       3.725616       101.3792 
 886   0.0000       3.731101       101.5284 
 887   0.0000       3.735144       101.6384 
 888   0.0000       3.739065       101.7451 
 889   0.0000       3.746780       101.9551 
 890   0.0000       3.751647       102.0875 
 891   0.0000       3.757326       102.2420 
 892   0.0000       3.763601       102.4128 
 893   0.0000       3.767457       102.5177 
 894   0.0000       3.773546       102.6834 
 895   0.0000       3.781959       102.9123 
 896   0.0000       3.786494       103.0357 
 897   0.0000       3.794474       103.2529 
 898   0.0000       3.802185       103.4627 
 899   0.0000       3.812224       103.7359 
[...]
      dxz     :     0.134501
      dyz     :     0.189976
      dx2y2   :     0.196907
      dxy     :     0.236667
      f0      :     0.004871  f :     0.044735
      f+1     :     0.006150
      f-1     :     0.004657
      f+2     :     0.006455
      f-2     :     0.005649
      f+3     :     0.008990
      f-3     :     0.007962
 28 C s       :     2.631179  s :     2.631179
      pz      :     0.821449  p :     2.548240
      px      :     0.806324
      py      :     0.920468
      dz2     :     0.142635  d :     0.871175
      dxz     :     0.123442
      dyz     :     0.187438
      dx2y2   :     0.208027
      dxy     :     0.209634
      f0      :     0.004738  f :     0.046062
      f+1     :     0.005057
      f-1     :     0.006309
      f+2     :     0.007604
      f-2     :     0.005055
      f+3     :     0.008082
      f-3     :     0.009217
 29 C s       :     2.612298  s :     2.612298
      pz      :     0.855647  p :     2.602096
      px      :     0.876195
      py      :     0.870255
      dz2     :     0.166701  d :     0.746334
      dxz     :     0.177215
      dyz     :     0.141761
      dx2y2   :     0.111080
      dxy     :     0.149577
      f0      :     0.006675  f :     0.042950
      f+1     :     0.005618
      f-1     :     0.008665
      f+2     :     0.006245
      f-2     :     0.005039
      f+3     :     0.006430
      f-3     :     0.004277
 30 C s       :     2.606248  s :     2.606248
      pz      :     0.853247  p :     2.600529
      px      :     0.872004
      py      :     0.875279
      dz2     :     0.166627  d :     0.743179
      dxz     :     0.147961
      dyz     :     0.175531
      dx2y2   :     0.129559
      dxy     :     0.123501
      f0      :     0.006821  f :     0.043262
      f+1     :     0.008769
      f-1     :     0.005474
      f+2     :     0.006795
      f-2     :     0.005275
      f+3     :     0.003249
      f-3     :     0.006879
 31 C s       :     2.627093  s :     2.627093
      pz      :     0.824521  p :     2.550369
      px      :     0.805748
      py      :     0.920100
      dz2     :     0.132544  d :     0.877800
      dxz     :     0.127269
      dyz     :     0.195570
      dx2y2   :     0.200471
      dxy     :     0.221946
      f0      :     0.004824  f :     0.046945
      f+1     :     0.005221
      f-1     :     0.006206
      f+2     :     0.007873
      f-2     :     0.004865
      f+3     :     0.011175
      f-3     :     0.006782
 32 C s       :     2.640874  s :     2.640874
      pz      :     0.840329  p :     2.585304
      px      :     0.821089
      py      :     0.923886
      dz2     :     0.143413  d :     0.883206
      dxz     :     0.134550
      dyz     :     0.189684
      dx2y2   :     0.208245
      dxy     :     0.207313
      f0      :     0.004635  f :     0.045896
      f+1     :     0.005923
      f-1     :     0.005420
      f+2     :     0.007793
      f-2     :     0.004812
      f+3     :     0.010743
      f-3     :     0.006571
 33 C s       :     2.615401  s :     2.615401
      pz      :     0.845118  p :     2.617034
      px      :     0.878869
      py      :     0.893048
      dz2     :     0.170688  d :     0.782142
      dxz     :     0.209461
      dyz     :     0.119700
      dx2y2   :     0.170998
      dxy     :     0.111295
      f0      :     0.006625  f :     0.042736
      f+1     :     0.006194
      f-1     :     0.007757
      f+2     :     0.005563
      f-2     :     0.005715
      f+3     :     0.005640
      f-3     :     0.005242
 34 C s       :     2.608192  s :     2.608192
      pz      :     0.854222  p :     2.605746
      px      :     0.866837
      py      :     0.884687
      dz2     :     0.172155  d :     0.758507
      dxz     :     0.167978
      dyz     :     0.156383
      dx2y2   :     0.107716
      dxy     :     0.154274
      f0      :     0.006670  f :     0.042721
      f+1     :     0.008637
      f-1     :     0.005309
      f+2     :     0.006964
      f-2     :     0.005305
      f+3     :     0.004896
      f-3     :     0.004940
 35 H s       :     0.686823  s :     0.686823
      pz      :     0.083361  p :     0.264754
      px      :     0.108656
      py      :     0.072737
      dz2     :     0.005836  d :     0.028826
      dxz     :     0.007828
      dyz     :     0.002776
      dx2y2   :     0.005491
      dxy     :     0.006896
 36 H s       :     0.666182  s :     0.666182
      pz      :     0.080705  p :     0.304060
      px      :     0.113577
      py      :     0.109779
      dz2     :     0.002895  d :     0.030061
      dxz     :     0.007129
      dyz     :     0.002221
      dx2y2   :     0.009540
      dxy     :     0.008276
 37 H s       :     0.679876  s :     0.679876
      pz      :     0.077375  p :     0.300835
      px      :     0.112034
      py      :     0.111427
      dz2     :     0.002842  d :     0.029752
      dxz     :     0.002914
      dyz     :     0.006370
      dx2y2   :     0.009360
      dxy     :     0.008267
 38 H s       :     0.672070  s :     0.672070
      pz      :     0.080075  p :     0.297460
      px      :     0.100612
      py      :     0.116773
      dz2     :     0.002916  d :     0.029891
      dxz     :     0.005151
      dyz     :     0.004187
      dx2y2   :     0.009503
      dxy     :     0.008134
 39 H s       :     0.690759  s :     0.690759
      pz      :     0.112411  p :     0.318720
      px      :     0.095467
      py      :     0.110842
      dz2     :     0.007822  d :     0.031017
      dxz     :     0.005820
      dyz     :     0.007890
      dx2y2   :     0.004763
      dxy     :     0.004722
 40 H s       :     0.676076  s :     0.676076
      pz      :     0.114220  p :     0.318109
      px      :     0.118738
      py      :     0.085151
      dz2     :     0.009292  d :     0.030306
      dxz     :     0.008165
      dyz     :     0.006161
      dx2y2   :     0.002925
      dxy     :     0.003763
 41 H s       :     0.687466  s :     0.687466
      pz      :     0.083843  p :     0.271873
      px      :     0.079155
      py      :     0.108875
      dz2     :     0.005380  d :     0.029855
      dxz     :     0.002840
      dyz     :     0.007699
      dx2y2   :     0.006428
      dxy     :     0.007508
 42 H s       :     0.681059  s :     0.681059
      pz      :     0.080040  p :     0.318620
      px      :     0.111023
      py      :     0.127558
      dz2     :     0.002960  d :     0.030282
      dxz     :     0.000769
      dyz     :     0.008508
      dx2y2   :     0.009062
      dxy     :     0.008983
 43 H s       :     0.694999  s :     0.694999
      pz      :     0.114850  p :     0.287114
      px      :     0.089887
      py      :     0.082377
      dz2     :     0.009135  d :     0.030157
      dxz     :     0.007283
      dyz     :     0.006861
      dx2y2   :     0.003349
      dxy     :     0.003530
 44 H s       :     0.688214  s :     0.688214
      pz      :     0.083145  p :     0.268631
      px      :     0.109172
      py      :     0.076313
      dz2     :     0.005706  d :     0.028952
      dxz     :     0.008076
      dyz     :     0.002438
      dx2y2   :     0.005988
      dxy     :     0.006743
 45 H s       :     0.690816  s :     0.690816
      pz      :     0.083794  p :     0.268239
      px      :     0.074318
      py      :     0.110126
      dz2     :     0.005618  d :     0.029583
      dxz     :     0.002350
      dyz     :     0.008239
      dx2y2   :     0.005953
      dxy     :     0.007424
 46 H s       :     0.673345  s :     0.673345
      pz      :     0.115073  p :     0.337414
      px      :     0.122951
      py      :     0.099390
      dz2     :     0.008333  d :     0.030759
      dxz     :     0.006861
      dyz     :     0.006569
      dx2y2   :     0.004223
      dxy     :     0.004774


                      *****************************
                      * MAYER POPULATION ANALYSIS *
                      *****************************

  NA   - Mulliken gross atomic population
  ZA   - Total nuclear charge
  QA   - Mulliken gross atomic charge
  VA   - Mayer's total valence
  BVA  - Mayer's bonded valence
  FA   - Mayer's free valence

  ATOM       NA         ZA         QA         VA         BVA        FA
  0 Ru    18.4358    16.0000    -2.4358     7.1250     7.1250    -0.0000
  1 C      5.9586     6.0000     0.0414     2.0278     2.0278    -0.0000
  2 C      5.0130     6.0000     0.9870    -0.1246    -0.1246     0.0000
  3 C      5.5554     6.0000     0.4446     2.4208     2.4208     0.0000
  4 C      5.5382     6.0000     0.4618     1.0172     1.0172     0.0000
  5 C      5.2394     6.0000     0.7606     2.2340     2.2340    -0.0000
  6 C      6.4918     6.0000    -0.4918     4.0764     4.0764     0.0000
  7 H      0.8686     1.0000     0.1314     0.9403     0.9403     0.0000
  8 H      0.8403     1.0000     0.1597     0.8475     0.8475     0.0000
  9 H      0.9874     1.0000     0.0126     0.9709     0.9709     0.0000
 10 C      6.8092     6.0000    -0.8092     4.6700     4.6700     0.0000
 11 H      0.9188     1.0000     0.0812     0.8790     0.8790     0.0000
 12 H      0.9045     1.0000     0.0955     1.0042     1.0042     0.0000
 13 H      0.8795     1.0000     0.1205     0.9010     0.9010    -0.0000
 14 C      6.5809     6.0000    -0.5809     4.5625     4.5625    -0.0000
 15 H      0.9121     1.0000     0.0879     0.9182     0.9182    -0.0000
 16 H      0.9010     1.0000     0.0990     1.0190     1.0190    -0.0000
 17 H      0.9412     1.0000     0.0588     0.8994     0.8994    -0.0000
 18 C      6.5337     6.0000    -0.5337     4.2285     4.2285    -0.0000
 19 H      0.9494     1.0000     0.0506     0.9629     0.9629     0.0000
 20 H      0.8482     1.0000     0.1518     0.8321     0.8321     0.0000
 21 H      0.9652     1.0000     0.0348     1.0120     1.0120    -0.0000
 22 C      6.4330     6.0000    -0.4330     4.2045     4.2045    -0.0000
 23 H      0.9687     1.0000     0.0313     0.8936     0.8936    -0.0000
 24 H      0.9415     1.0000     0.0585     0.9229     0.9229    -0.0000
 25 H      0.8873     1.0000     0.1127     0.9058     0.9058    -0.0000
 26 Cl    17.5512    17.0000    -0.5512     0.7504     0.7504    -0.0000
 27 C      6.7982     6.0000    -0.7982     3.2625     3.2625    -0.0000
 28 C      4.8411     6.0000     1.1589     1.4424     1.4424     0.0000
 29 C      5.9396     6.0000     0.0604     4.5037     4.5037    -0.0000
 30 C      6.2526     6.0000    -0.2526     4.6573     4.6573     0.0000
 31 C      5.9680     6.0000     0.0320     3.4352     3.4352    -0.0000
 32 C      5.3081     6.0000     0.6919     3.4521     3.4521    -0.0000
 33 C      6.0415     6.0000    -0.0415     4.2007     4.2007     0.0000
 34 C      5.7364     6.0000     0.2636     3.9596     3.9596     0.0000
 35 H      0.9873     1.0000     0.0127     0.9186     0.9186    -0.0000
 36 H      0.9542     1.0000     0.0458     0.7584     0.7584    -0.0000
 37 H      0.9493     1.0000     0.0507     0.9293     0.9293    -0.0000
 38 H      0.9503     1.0000     0.0497     0.8283     0.8283    -0.0000
 39 H      1.0701     1.0000    -0.0701     1.4567     1.4567    -0.0000
 40 H      0.6719     1.0000     0.3281     0.6556     0.6556     0.0000
 41 H      1.0561     1.0000    -0.0561     0.8791     0.8791     0.0000
 42 H      0.8700     1.0000     0.1300     0.9394     0.9394     0.0000
 43 H      1.1648     1.0000    -0.1648     1.2123     1.2123    -0.0000
 44 H      0.9101     1.0000     0.0899     0.8678     0.8678     0.0000
 45 H      0.9955     1.0000     0.0045     0.8027     0.8027    -0.0000
 46 H      0.6809     1.0000     0.3191     0.6300     0.6300     0.0000

  Mayer bond orders larger than 0.100000
B(  0-Ru,  1-C ) :   1.0215 B(  0-Ru,  2-C ) :   0.3662 B(  0-Ru,  3-C ) :   0.4183 
B(  0-Ru,  4-C ) :   0.3232 B(  0-Ru, 10-C ) :   0.3502 B(  0-Ru, 14-C ) :   0.1703 
B(  0-Ru, 26-Cl) :   0.8144 B(  0-Ru, 27-C ) :   1.3931 B(  0-Ru, 28-C ) :  -0.3075 
B(  0-Ru, 29-C ) :   0.4613 B(  0-Ru, 30-C ) :   0.2248 B(  0-Ru, 31-C ) :   0.7523 
B(  0-Ru, 32-C ) :   0.3443 B(  0-Ru, 33-C ) :   0.2048 B(  0-Ru, 34-C ) :   0.1330 
B(  0-Ru, 39-H ) :   0.1635 B(  0-Ru, 43-H ) :   0.1170 B(  1-C ,  2-C ) :  -0.2312 
B(  1-C ,  4-C ) :   0.2355 B(  1-C ,  5-C ) :  -0.5078 B(  1-C ,  6-C ) :   1.0343 
B(  1-C , 10-C ) :  -0.2024 B(  1-C , 18-C ) :   0.1176 B(  1-C , 22-C ) :   0.1392 
B(  1-C , 26-Cl) :   0.1609 B(  1-C , 27-C ) :   0.1519 B(  1-C , 28-C ) :  -0.1024 
B(  2-C ,  4-C ) :  -0.5605 B(  2-C ,  5-C ) :   0.1979 B(  2-C ,  6-C ) :  -0.1934 
B(  2-C , 14-C ) :   0.1010 B(  2-C , 18-C ) :  -0.3457 B(  2-C , 22-C ) :   0.9289 
B(  2-C , 27-C ) :  -0.3163 B(  2-C , 31-C ) :  -0.1108 B(  3-C ,  4-C ) :   0.3244 
B(  3-C ,  5-C ) :   0.6770 B(  3-C , 10-C ) :  -0.3012 B(  3-C , 12-H ) :   0.1639 
B(  3-C , 14-C ) :   1.2883 B(  3-C , 27-C ) :  -0.1265 B(  3-C , 28-C ) :  -0.2056 
B(  3-C , 32-C ) :   0.1278 B(  4-C ,  5-C ) :  -0.3543 B(  4-C ,  6-C ) :   0.1345 
B(  4-C , 10-C ) :   1.3096 B(  4-C , 12-H ) :  -0.1090 B(  4-C , 14-C ) :  -0.1731 
B(  4-C , 26-Cl) :  -0.4658 B(  4-C , 27-C ) :   0.2332 B(  4-C , 28-C ) :   0.1982 
B(  4-C , 32-C ) :  -0.2042 B(  5-C , 10-C ) :   0.2191 B(  5-C , 17-H ) :   0.1092 
B(  5-C , 18-C ) :   1.2028 B(  5-C , 26-Cl) :   0.1774 B(  5-C , 28-C ) :   0.3014 
B(  5-C , 32-C ) :   0.2365 B(  6-C ,  7-H ) :   0.9748 B(  6-C ,  8-H ) :   0.8914 
B(  6-C ,  9-H ) :   0.9238 B(  6-C , 22-C ) :   0.1244 B(  6-C , 27-C ) :   0.1103 
B( 10-C , 11-H ) :   0.9625 B( 10-C , 12-H ) :   0.9130 B( 10-C , 13-H ) :   0.8859 
B( 10-C , 14-C ) :   0.3258 B( 10-C , 26-Cl) :   0.1620 B( 10-C , 27-C ) :  -0.1180 
B( 14-C , 15-H ) :   0.8968 B( 14-C , 16-H ) :   0.8777 B( 14-C , 17-H ) :   0.9160 
B( 14-C , 18-C ) :   0.1336 B( 18-C , 19-H ) :   0.9129 B( 18-C , 20-H ) :   0.8637 
B( 18-C , 21-H ) :   1.0506 B( 18-C , 22-C ) :   0.1567 B( 22-C , 23-H ) :   0.8705 
B( 22-C , 24-H ) :   0.9672 B( 22-C , 25-H ) :   0.9476 B( 26-Cl, 32-C ) :  -0.2442 
B( 26-Cl, 34-C ) :  -0.2502 B( 26-Cl, 39-H ) :   0.2378 B( 27-C , 28-C ) :  -0.4768 
B( 27-C , 32-C ) :  -0.2675 B( 27-C , 34-C ) :   1.1864 B( 27-C , 39-H ) :   1.5140 
B( 27-C , 40-H ) :  -0.2568 B( 27-C , 41-H ) :   0.1227 B( 27-C , 43-H ) :   0.1139 
B( 28-C , 29-C ) :   1.3399 B( 28-C , 30-C ) :   0.1638 B( 28-C , 32-C ) :   0.2259 
B( 28-C , 37-H ) :   0.2136 B( 28-C , 39-H ) :  -0.3999 B( 28-C , 40-H ) :   0.9765 
B( 28-C , 43-H ) :  -0.1302 B( 29-C , 30-C ) :   0.9102 B( 29-C , 34-C ) :  -0.1346 
B( 29-C , 35-H ) :   0.8866 B( 29-C , 37-H ) :   0.7478 B( 29-C , 46-H ) :   0.1027 
B( 30-C , 31-C ) :   1.5593 B( 30-C , 33-C ) :  -0.1034 B( 30-C , 34-C ) :   0.1661 
B( 30-C , 36-H ) :   0.8814 B( 30-C , 45-H ) :   0.8295 B( 31-C , 32-C ) :   0.8587 
B( 31-C , 33-C ) :  -0.1880 B( 31-C , 43-H ) :  -0.1260 B( 31-C , 45-H ) :   0.1518 
B( 31-C , 46-H ) :   0.6425 B( 32-C , 33-C ) :   1.2922 B( 32-C , 34-C ) :   0.1116 
B( 32-C , 42-H ) :   0.1323 B( 32-C , 43-H ) :   1.1430 B( 32-C , 46-H ) :  -0.1893 
B( 33-C , 34-C ) :   0.9066 B( 33-C , 39-H ) :   0.1680 B( 33-C , 42-H ) :   0.7932 
B( 33-C , 44-H ) :   0.8796 B( 34-C , 38-H ) :   0.9283 B( 34-C , 41-H ) :   0.8208 
B( 36-H , 45-H ) :  -0.1034 

-------
TIMINGS
-------

Total SCF time: 0 days 0 hours 1 min 9 sec 

Total time                  ....      69.024 sec
Sum of individual times     ....      67.187 sec  ( 97.3%)

Fock matrix formation       ....      54.220 sec  ( 78.6%)
  Split-RI-J                ....      17.231 sec  ( 31.8% of F)
  XC integration            ....      35.546 sec  ( 65.6% of F)
    Basis function eval.    ....       3.063 sec  (  8.6% of XC)
    Density eval.           ....      14.090 sec  ( 39.6% of XC)
    XC-Functional eval.     ....       0.216 sec  (  0.6% of XC)
    XC-Potential eval.      ....      15.793 sec  ( 44.4% of XC)
Diagonalization             ....       3.916 sec  (  5.7%)
Density matrix formation    ....       0.219 sec  (  0.3%)
Population analysis         ....       0.403 sec  (  0.6%)
Initial guess               ....       3.007 sec  (  4.4%)
Orbital Transformation      ....       0.000 sec  (  0.0%)
Orbital Orthonormalization  ....       0.000 sec  (  0.0%)
DIIS solution               ....       4.333 sec  (  6.3%)
Grid generation             ....       1.089 sec  (  1.6%)


-------------------------------------------------------------------------------
                          DFT DISPERSION CORRECTION                            
                                                                               
                              DFTD3 V3.1  Rev 1                                
                          USING Becke-Johnson damping                          
-------------------------------------------------------------------------------
The TPSS functional is recognized
Active option DFTDOPT                   ...         4   

molecular C6(AA) [au] = 22222.899569 


            DFT-D V3
 parameters
 s6 scaling factor         :     1.0000 
 a1 scaling factor         :     0.4535 
 s8 scaling factor         :     1.9435 
 a2 scaling factor         :     4.4752 
 ad hoc parameters k1-k3   :    16.0000     1.3333    -4.0000 

 Edisp/kcal,au: -60.465644291850  -0.096358127393 
 E6   /kcal   : -29.243159966 
 E8   /kcal   : -31.222484326 
 % E8         :  51.636734697 

-------------------------   ----------------
Dispersion correction           -0.096358127
-------------------------   ----------------


-------------------------   --------------------
FINAL SINGLE POINT ENERGY     -1257.889608173104
-------------------------   --------------------


                            ***************************************
                            *     ORCA property calculations      *
                            ***************************************

                                    ---------------------
                                    Active property flags
                                    ---------------------
   (+) Dipole Moment


------------------------------------------------------------------------------
                       ORCA ELECTRIC PROPERTIES CALCULATION
------------------------------------------------------------------------------

Dipole Moment Calculation                       ... on
Quadrupole Moment Calculation                   ... off
Polarizability Calculation                      ... off
GBWName                                         ... MOR14_ed26.gbw
Electron density file                           ... MOR14_ed26.scfp
The origin for moment calculation is the CENTER OF MASS  = (-0.001027, -0.085807 -0.008956)

-------------
DIPOLE MOMENT
-------------
                                X             Y             Z
Electronic contribution:     -2.93894     -21.74343      -2.00566
Nuclear contribution   :      3.57716      23.71136       2.15126
                        -----------------------------------------
Total Dipole Moment    :      0.63822       1.96793       0.14560
                        -----------------------------------------
Magnitude (a.u.)       :      2.07395
Magnitude (Debye)      :      5.27157



--------------------
Rotational spectrum 
--------------------
 
Rotational constants in cm-1:     0.013422     0.011126     0.009459 
Rotational constants in MHz :   402.378908   333.556426   283.583792 

 Dipole components along the rotational axes: 
x,y,z [a.u.] :     0.698984     1.949491     0.110361 
x,y,z [Debye]:     1.776676     4.955213     0.280516 

 

Timings for individual modules:

Sum of individual times         ...       76.895 sec (=   1.282 min)
GTO integral calculation        ...        7.504 sec (=   0.125 min)   9.8 %
SCF iterations                  ...       69.391 sec (=   1.157 min)  90.2 %
                             ****ORCA TERMINATED NORMALLY****
TOTAL RUN TIME: 0 days 0 hours 1 minutes 17 seconds 648 msec
