
                                 *****************
                                 * O   R   C   A *
                                 *****************

           --- An Ab Initio, DFT and Semiempirical electronic structure package ---

                  #######################################################
                  #                        -***-                        #
                  #          Department of theory and spectroscopy      #
                  #               Directorship: Frank Neese             #
                  #        Max Planck Institute fuer Kohlenforschung    #
                  #                Kaiser Wilhelm Platz 1               #
                  #                 D-45470 Muelheim/Ruhr               #
                  #                      Germany                        #
                  #                                                     #
                  #                  All rights reserved                #
                  #                        -***-                        #
                  #######################################################


                         Program Version 4.2.0 -  RELEASE  -


 With contributions from (in alphabetic order):
   Daniel Aravena         : Magnetic Suceptibility
   Michael Atanasov       : Ab Initio Ligand Field Theory (pilot matlab implementation)
   Alexander A. Auer      : GIAO ZORA, VPT2
   Ute Becker             : Parallelization
   Giovanni Bistoni       : ED, misc. LED, open-shell LED, HFLED
   Martin Brehm           : Molecular dynamics
   Dmytro Bykov           : SCF Hessian
   Vijay G. Chilkuri      : MRCI spin determinant printing, contributions to CSF-ICE
   Dipayan Datta          : RHF DLPNO-CCSD density
   Achintya Kumar Dutta   : EOM-CC, STEOM-CC
   Dmitry Ganyushin       : Spin-Orbit,Spin-Spin,Magnetic field MRCI
   Miquel Garcia          : C-PCM Hessian, Gaussian charge scheme
   Yang Guo               : DLPNO-NEVPT2, CIM, IAO-localization
   Andreas Hansen         : Spin unrestricted coupled pair/coupled cluster methods
   Benjamin Helmich-Paris : CASSCF linear response (MC-RPA)
   Lee Huntington         : MR-EOM, pCC
   Robert Izsak           : Overlap fitted RIJCOSX, COSX-SCS-MP3, EOM
   Christian Kollmar      : KDIIS, OOCD, Brueckner-CCSD(T), CCSD density
   Simone Kossmann        : Meta GGA functionals, TD-DFT gradient, OOMP2, MP2 Hessian
   Martin Krupicka        : AUTO-CI
   Lucas Lang             : DCDCAS
   Dagmar Lenk            : GEPOL surface, SMD
   Dimitrios Liakos       : Extrapolation schemes; Compound Job, initial MDCI parallelization
   Dimitrios Manganas     : Further ROCIS development; embedding schemes
   Dimitrios Pantazis     : SARC Basis sets
   Taras Petrenko         : DFT Hessian,TD-DFT gradient, ASA, ECA, R-Raman, ABS, FL, XAS/XES, NRVS
   Peter Pinski           : DLPNO-MP2, DLPNO-MP2 Gradient
   Christoph Reimann      : Effective Core Potentials
   Marius Retegan         : Local ZFS, SOC
   Christoph Riplinger    : Optimizer, TS searches, QM/MM, DLPNO-CCSD(T), (RO)-DLPNO pert. Triples
   Tobias Risthaus        : Range-separated hybrids, TD-DFT gradient, RPA, STAB
   Michael Roemelt        : Original ROCIS implementation
   Masaaki Saitow         : Open-shell DLPNO-CCSD energy and density
   Barbara Sandhoefer     : DKH picture change effects
   Avijit Sen             : IP-ROCIS
   Kantharuban Sivalingam : CASSCF convergence, NEVPT2, FIC-MRCI
   Bernardo de Souza      : ESD, SOC TD-DFT
   Georgi Stoychev        : AutoAux, RI-MP2 NMR
   Willem Van den Heuvel  : Paramagnetic NMR
   Boris Wezisla          : Elementary symmetry handling
   Frank Wennmohs         : Technical directorship


 We gratefully acknowledge several colleagues who have allowed us to
 interface, adapt or use parts of their codes:
   Stefan Grimme, W. Hujo, H. Kruse,             : VdW corrections, initial TS optimization,
                  C. Bannwarth                     DFT functionals, gCP, sTDA/sTD-DF
   Ed Valeev, F. Pavosevic, A. Kumar             : LibInt (2-el integral package), F12 methods
   Garnet Chan, S. Sharma, J. Yang, R. Olivares  : DMRG
   Ulf Ekstrom                                   : XCFun DFT Library
   Mihaly Kallay                                 : mrcc  (arbitrary order and MRCC methods)
   Andreas Klamt, Michael Diedenhofen            : otool_cosmo (COSMO solvation model)
   Jiri Pittner, Ondrej Demel                    : Mk-CCSD
   Frank Weinhold                                : gennbo (NPA and NBO analysis)
   Christopher J. Cramer and Donald G. Truhlar   : smd solvation model
   Lars Goerigk                                  : TD-DFT with DH, B97 family of functionals
   V. Asgeirsson, H. Jonsson                     : NEB implementation
   FAccTs GmbH                                   : IRC, NEB, NEB-TS, Multilevel, MM, QM/MM, CI optimization
   S Lehtola, MJT Oliveira, MAL Marques          : LibXC Library


 Your calculation uses the libint2 library for the computation of 2-el integrals
 For citations please refer to: http://libint.valeyev.net

 Your ORCA version has been built with support for libXC version: 4.2.3
 For citations please refer to: https://tddft.org/programs/libxc/

 This ORCA versions uses:
   CBLAS   interface :  Fast vector & matrix operations
   LAPACKE interface :  Fast linear algebra routines
   SCALAPACK package :  Parallel linear algebra routines


Your calculation utilizes the atom-pairwise dispersion correction
with the Becke-Johnson damping scheme (D3BJ)
Cite in your paper:
S.Grimme, S.Ehrlich, L.Goerigk, J Comput Chem, (2011), 32, 1456–1465 
S.Grimme, J.Antony, S.Ehrlich and H.Krieg, J.Chem.Phys., 132, (2010), 154104 
   

----- Orbital basis set information -----
Your calculation utilizes the basis: def2-TZVPPD
   F. Weigend and R. Ahlrichs, Phys. Chem. Chem. Phys. 7, 3297 (2005).
   D. Rappoport and F. Furche, J. Chem. Phys. 133 134105 (2010).

----- AuxJ basis set information -----
Your calculation utilizes the auxiliary basis: def2/J
   F. Weigend, Phys. Chem. Chem. Phys. 8, 1057 (2006).

cite the ECPs for Ru [Def2-ECP] as follows:
Ce-Yb(ecp-28): M. Dolg, H. Stoll, H.Preuss, J. Chem. Phys., 1989, 90, 1730-1734.
Y-Cd(ecp-28), Hf-Hg(ecp-46): D. Andrae,U. Haeussermann, M. Dolg, H. Stoll, H. Preuss, Theor. Chim. Acta, 1990, 77, 123-141.
In-Sb(ecp-28), Tl-Bi(ecp-46): B. Metz, H. Stoll, M. Dolg, J. Chem. Phys., 2000, 113, 2563-2569.
Te-Xe(ecp-28), Po-Rn(ecp-46): K. A. Peterson, D. Figgen, E. Goll, H. Stoll, M. Dolg, J. Chem. Phys., 2003, 119, 11113-11123.
Rb(ecp-28), Cs(ecp-46): T. Leininger, A. Nicklass, W. Kuechle, H. Stoll, M. Dolg, A. Bergner, Chem. Phys. Lett., 1996, 255, 274-280.
Sr(ecp-28), Ba(ecp-46): M. Kaupp, P. V. Schleyer, H. Stoll and H. Preuss, J. Chem. Phys., 1991, 94, 1360-1366.
La(ecp-46): M. Dolg, H. Stoll, A. Savin, H. Preuss, Theor. Chim. Acta, 1989, 75, 173-194.
Lu(ecp-28): X. Cao, M. Dolg, J. Chem. Phys., 2001, 115, 7348-7355.

ECP parameters for Ru [Def2-ECP] have been obtained from:
TURBOMOLE (7.0.2)

================================================================================
                                        WARNINGS
                       Please study these warnings very carefully!
================================================================================


INFO   : the flag for use of LIBINT has been found!

================================================================================
                                       INPUT FILE
================================================================================
NAME = MOR13_ed24.in
|  1> #
|  2> # MOR13_ed24 TPSS-D3BJ/Def2-TZVPPD
|  3> #
|  4> ! tpss d3bj def2-tzvppd def2/j grid4 nofinalgrid
|  5> 
|  6> *xyz 0 1
|  7> Ru       0.947158   -0.829727   -0.745491 
|  8> Cl       0.759536   -0.029843   -2.889353 
|  9> Cl       0.924249   -2.813196    0.406526 
| 10> P       -0.892858    0.059346    0.070519 
| 11> C        2.105770    0.298407    0.120511 
| 12> C       -1.060848    0.304387    1.904454 
| 13> C       -0.839571   -1.004781    2.681683 
| 14> C       -1.204393   -0.821649    4.161076 
| 15> C       -0.398097    0.318884    4.794081 
| 16> C       -0.569062    1.619286    3.999752 
| 17> C       -0.203235    1.422010    2.520494 
| 18> C       -1.361193    1.675223   -0.723442 
| 19> C       -0.190670    2.668218   -0.863157 
| 20> C       -0.617010    3.874515   -1.709852 
| 21> C       -1.846047    4.572418   -1.115292 
| 22> C       -3.005112    3.584426   -0.940399 
| 23> C       -2.585621    2.369196   -0.098214 
| 24> C       -2.266825   -1.149912   -0.318948 
| 25> C       -3.572387   -1.071522    0.495585 
| 26> C       -4.464103   -2.278800    0.161919 
| 27> C       -4.771803   -2.353480   -1.338652 
| 28> C       -3.481398   -2.368379   -2.166970 
| 29> C       -2.587234   -1.168835   -1.825450 
| 30> H        1.784946    1.202955    0.645761 
| 31> H       -2.115821    0.600966    2.014947 
| 32> H        0.212402   -1.294098    2.586311 
| 33> H       -1.418447   -1.824644    2.245913 
| 34> H       -1.028300   -1.758851    4.701667 
| 35> H       -2.278352   -0.600113    4.247046 
| 36> H        0.665500    0.042496    4.804792 
| 37> H       -0.699682    0.468438    5.837587 
| 38> H        0.050942    2.415093    4.429614 
| 39> H       -1.613622    1.955784    4.068877 
| 40> H       -0.334942    2.362910    1.978268 
| 41> H        0.854749    1.145201    2.447640 
| 42> H       -1.618911    1.357234   -1.743817 
| 43> H        0.662106    2.166051   -1.325328 
| 44> H        0.125060    3.019280    0.127484 
| 45> H       -0.846735    3.527698   -2.726710 
| 46> H        0.219033    4.578695   -1.795316 
| 47> H       -2.156025    5.410629   -1.750528 
| 48> H       -1.583038    4.996180   -0.135073 
| 49> H       -3.336384    3.234608   -1.928191 
| 50> H       -3.864727    4.078543   -0.471441 
| 51> H       -2.338056    2.702879    0.918040 
| 52> H       -3.425897    1.674720   -0.010060 
| 53> H       -1.782812   -2.105972   -0.070582 
| 54> H       -4.113822   -0.149509    0.251918 
| 55> H       -3.369403   -1.053503    1.570362 
| 56> H       -5.393534   -2.221008    0.741223 
| 57> H       -3.947864   -3.196972    0.475160 
| 58> H       -5.374229   -1.479434   -1.625752 
| 59> H       -5.376744   -3.241409   -1.557196 
| 60> H       -3.714322   -2.363052   -3.238224 
| 61> H       -2.925851   -3.294401   -1.964642 
| 62> H       -1.666731   -1.193589   -2.417765 
| 63> H       -3.111760   -0.241279   -2.093787 
| 64> C        3.546496    0.126586    0.028364 
| 65> C        4.389877    1.228237    0.286046 
| 66> C        5.770146    1.113346    0.161104 
| 67> C        6.339467   -0.106460   -0.212258 
| 68> C        5.519417   -1.212931   -0.453677 
| 69> C        4.139965   -1.102236   -0.332827 
| 70> H        3.943201    2.177101    0.573360 
| 71> H        6.405205    1.972855    0.357301 
| 72> H        5.961339   -2.166857   -0.726887 
| 73> H        3.508028   -1.975261   -0.480581 
| 74> H        7.417884   -0.197821   -0.305099 
| 75> *
| 76> 
| 77> %maxcore 5000
| 78> 
| 79> %pal
| 80> nprocs = 24
| 81> end
| 82> 
| 83> 
| 84>                          ****END OF INPUT****
================================================================================

                       ****************************
                       * Single Point Calculation *
                       ****************************

---------------------------------
CARTESIAN COORDINATES (ANGSTROEM)
---------------------------------
  Ru     0.947158   -0.829727   -0.745491
  Cl     0.759536   -0.029843   -2.889353
  Cl     0.924249   -2.813196    0.406526
  P     -0.892858    0.059346    0.070519
  C      2.105770    0.298407    0.120511
  C     -1.060848    0.304387    1.904454
  C     -0.839571   -1.004781    2.681683
  C     -1.204393   -0.821649    4.161076
  C     -0.398097    0.318884    4.794081
  C     -0.569062    1.619286    3.999752
  C     -0.203235    1.422010    2.520494
  C     -1.361193    1.675223   -0.723442
  C     -0.190670    2.668218   -0.863157
  C     -0.617010    3.874515   -1.709852
  C     -1.846047    4.572418   -1.115292
  C     -3.005112    3.584426   -0.940399
  C     -2.585621    2.369196   -0.098214
  C     -2.266825   -1.149912   -0.318948
  C     -3.572387   -1.071522    0.495585
  C     -4.464103   -2.278800    0.161919
  C     -4.771803   -2.353480   -1.338652
  C     -3.481398   -2.368379   -2.166970
  C     -2.587234   -1.168835   -1.825450
  H      1.784946    1.202955    0.645761
  H     -2.115821    0.600966    2.014947
  H      0.212402   -1.294098    2.586311
  H     -1.418447   -1.824644    2.245913
  H     -1.028300   -1.758851    4.701667
  H     -2.278352   -0.600113    4.247046
  H      0.665500    0.042496    4.804792
  H     -0.699682    0.468438    5.837587
  H      0.050942    2.415093    4.429614
  H     -1.613622    1.955784    4.068877
  H     -0.334942    2.362910    1.978268
  H      0.854749    1.145201    2.447640
  H     -1.618911    1.357234   -1.743817
  H      0.662106    2.166051   -1.325328
  H      0.125060    3.019280    0.127484
  H     -0.846735    3.527698   -2.726710
  H      0.219033    4.578695   -1.795316
  H     -2.156025    5.410629   -1.750528
  H     -1.583038    4.996180   -0.135073
  H     -3.336384    3.234608   -1.928191
  H     -3.864727    4.078543   -0.471441
  H     -2.338056    2.702879    0.918040
  H     -3.425897    1.674720   -0.010060
  H     -1.782812   -2.105972   -0.070582
  H     -4.113822   -0.149509    0.251918
  H     -3.369403   -1.053503    1.570362
  H     -5.393534   -2.221008    0.741223
  H     -3.947864   -3.196972    0.475160
  H     -5.374229   -1.479434   -1.625752
  H     -5.376744   -3.241409   -1.557196
  H     -3.714322   -2.363052   -3.238224
  H     -2.925851   -3.294401   -1.964642
  H     -1.666731   -1.193589   -2.417765
  H     -3.111760   -0.241279   -2.093787
  C      3.546496    0.126586    0.028364
  C      4.389877    1.228237    0.286046
  C      5.770146    1.113346    0.161104
  C      6.339467   -0.106460   -0.212258
  C      5.519417   -1.212931   -0.453677
  C      4.139965   -1.102236   -0.332827
  H      3.943201    2.177101    0.573360
  H      6.405205    1.972855    0.357301
  H      5.961339   -2.166857   -0.726887
  H      3.508028   -1.975261   -0.480581
  H      7.417884   -0.197821   -0.305099

----------------------------
CARTESIAN COORDINATES (A.U.)
----------------------------
  NO LB      ZA    FRAG     MASS         X           Y           Z
   0 Ru   16.0000*   0   101.070    1.789869   -1.567957   -1.408774
   1 Cl   17.0000    0    35.453    1.435315   -0.056395   -5.460086
   2 Cl   17.0000    0    35.453    1.746577   -5.316170    0.768223
   3 P    15.0000    0    30.974   -1.687257    0.112148    0.133262
   4 C     6.0000    0    12.011    3.979329    0.563908    0.227733
   5 C     6.0000    0    12.011   -2.004712    0.575208    3.598896
   6 C     6.0000    0    12.011   -1.586559   -1.898761    5.067646
   7 C     6.0000    0    12.011   -2.275973   -1.552692    7.863294
   8 C     6.0000    0    12.011   -0.752294    0.602603    9.059500
   9 C     6.0000    0    12.011   -1.075371    3.060007    7.558436
  10 C     6.0000    0    12.011   -0.384058    2.687209    4.763043
  11 C     6.0000    0    12.011   -2.572282    3.165713   -1.367107
  12 C     6.0000    0    12.011   -0.360314    5.042201   -1.631130
  13 C     6.0000    0    12.011   -1.165980    7.321772   -3.231152
  14 C     6.0000    0    12.011   -3.488523    8.640618   -2.107596
  15 C     6.0000    0    12.011   -5.678839    6.773583   -1.777097
  16 C     6.0000    0    12.011   -4.886116    4.477132   -0.185598
  17 C     6.0000    0    12.011   -4.283678   -2.173019   -0.602724
  18 C     6.0000    0    12.011   -6.750833   -2.024883    0.936520
  19 C     6.0000    0    12.011   -8.435932   -4.306308    0.305983
  20 C     6.0000    0    12.011   -9.017401   -4.447433   -2.529686
  21 C     6.0000    0    12.011   -6.578889   -4.475588   -4.094980
  22 C     6.0000    0    12.011   -4.889164   -2.208778   -3.449601
  23 H     1.0000    0     1.008    3.373059    2.273256    1.220311
  24 H     1.0000    0     1.008   -3.998322    1.135661    3.807698
  25 H     1.0000    0     1.008    0.401382   -2.445491    4.887419
  26 H     1.0000    0     1.008   -2.680476   -3.448077    4.244160
  27 H     1.0000    0     1.008   -1.943205   -3.323747    8.884863
  28 H     1.0000    0     1.008   -4.305461   -1.134049    8.025754
  29 H     1.0000    0     1.008    1.257613    0.080306    9.079741
  30 H     1.0000    0     1.008   -1.322207    0.885220   11.031441
  31 H     1.0000    0     1.008    0.096266    4.563864    8.370757
  32 H     1.0000    0     1.008   -3.049304    3.695896    7.689063
  33 H     1.0000    0     1.008   -0.632949    4.465253    3.738385
  34 H     1.0000    0     1.008    1.615242    2.164116    4.625369
  35 H     1.0000    0     1.008   -3.059298    2.564801   -3.295337
  36 H     1.0000    0     1.008    1.251199    4.093243   -2.504507
  37 H     1.0000    0     1.008    0.236329    5.705612    0.240910
  38 H     1.0000    0     1.008   -1.600097    6.666383   -5.152735
  39 H     1.0000    0     1.008    0.413912    8.652480   -3.392656
  40 H     1.0000    0     1.008   -4.074297   10.224607   -3.308019
  41 H     1.0000    0     1.008   -2.991508    9.441412   -0.255251
  42 H     1.0000    0     1.008   -6.304852    6.112523   -3.643753
  43 H     1.0000    0     1.008   -7.303276    7.707329   -0.890894
  44 H     1.0000    0     1.008   -4.418286    5.107701    1.734844
  45 H     1.0000    0     1.008   -6.474007    3.164762   -0.019011
  46 H     1.0000    0     1.008   -3.369026   -3.979710   -0.133381
  47 H     1.0000    0     1.008   -7.773997   -0.282531    0.476056
  48 H     1.0000    0     1.008   -6.367249   -1.990832    2.967554
  49 H     1.0000    0     1.008  -10.192302   -4.197097    1.400708
  50 H     1.0000    0     1.008   -7.460382   -6.041402    0.897922
  51 H     1.0000    0     1.008  -10.155821   -2.795725   -3.072226
  52 H     1.0000    0     1.008  -10.160574   -6.125375   -2.942674
  53 H     1.0000    0     1.008   -7.019051   -4.465521   -6.119357
  54 H     1.0000    0     1.008   -5.529057   -6.225516   -3.712635
  55 H     1.0000    0     1.008   -3.149665   -2.255556   -4.568914
  56 H     1.0000    0     1.008   -5.880374   -0.455951   -3.956684
  57 C     6.0000    0    12.011    6.701906    0.239213    0.053600
  58 C     6.0000    0    12.011    8.295665    2.321032    0.540549
  59 C     6.0000    0    12.011   10.903996    2.103919    0.304442
  60 C     6.0000    0    12.011   11.979856   -0.201180   -0.401109
  61 C     6.0000    0    12.011   10.430187   -2.292107   -0.857325
  62 C     6.0000    0    12.011    7.823400   -2.082924   -0.628952
  63 H     1.0000    0     1.008    7.451570    4.114125    1.083493
  64 H     1.0000    0     1.008   12.104083    3.728156    0.675201
  65 H     1.0000    0     1.008   11.265298   -4.094766   -1.373617
  66 H     1.0000    0     1.008    6.629212   -3.732702   -0.908166
  67 H     1.0000    0     1.008   14.017769   -0.373828   -0.576554
* core charge reduced due to ECP

--------------------------------
INTERNAL COORDINATES (ANGSTROEM)
--------------------------------
 Ru     0   0   0     0.000000000000     0.00000000     0.00000000
 Cl     1   0   0     2.295900847899     0.00000000     0.00000000
 Cl     1   2   0     2.293865136518   140.29965372     0.00000000
 P      1   2   3     2.200450408368    97.88463508   245.70575770
 C      1   2   3     1.834401142745   106.15174997   147.07638687
 C      4   1   2     1.857843727552   119.66760336   201.55202124
 C      6   4   1     1.538495785303   111.92830520   304.93531584
 C      7   6   4     1.534677839013   110.56418153   189.09172846
 C      8   7   6     1.533500601151   111.20310342   303.02765009
 C      9   8   7     1.533373063892   110.99509733    54.83916019
 C     10   9   8     1.536538787232   111.30219877   304.91591605
 C      4   1   2     1.860314548907   113.77815153   329.00465759
 C     12   4   1     1.541325223559   114.02259580   313.22869322
 C     13  12   4     1.534213372003   110.21466333   171.53061300
 C     14  13  12     1.533330407439   111.50724957    56.85839270
 C     15  14  13     1.533019056548   110.91143908   304.35472021
 C     16  15  14     1.536890440534   111.45310168    55.15610293
 C      4   1   2     1.871302960972   106.00288258    85.96343543
 C     18   4   1     1.540811843164   118.63502093   160.04180791
 C     19  18   4     1.537533932470   109.67879145   188.65236698
 C     20  19  18     1.533613288427   111.52681273   302.70640496
 C     21  20  19     1.533452885924   111.11023644    55.19416831
 C     22  21  20     1.534624050780   111.25414405   305.36994244
 H      5   1   2     1.094085319242   123.35891616    88.80852432
 H      6   4   1     1.101424458154   102.77665300   188.77919001
 H      7   6   4     1.095192831241   108.59948900    68.18161816
 H      7   6   4     1.094151842774   111.12019359   311.97117441
 H      8   7   6     1.096172870826   109.58378276   180.74942481
 H      8   7   6     1.099934986205   109.35878047    63.88919413
 H      9   8   7     1.098973898905   109.01625047   294.71507312
 H      9   8   7     1.096460069121   110.46735465   177.49383577
 H     10   9   8     1.096583366785   110.44742320   182.89603360
 H     10   9   8     1.099597546027   109.44335461    65.49257885
 H     11  10   9     1.093914338020   109.76117855   179.94201006
 H     11  10   9     1.096020561875   109.04082875   297.44393107
 H     12   4   1     1.099409256042   101.76452229    67.19578351
 H     13  12   4     1.092245684499   109.57768061    50.12568195
 H     13  12   4     1.097405828135   110.04511934   291.85119040
 H     14  13  12     1.098660911873   108.70453267   295.95941390
 H     14  13  12     1.096422120146   109.63960483   179.47554812
 H     15  14  13     1.096452833779   110.48185524   181.87458688
 H     15  14  13     1.099807826252   109.22538520    64.65208319
 H     16  15  14     1.099020839826   109.29884830   294.79558208
 H     16  15  14     1.096818655785   110.54837093   177.34121982
 H     17  16  15     1.097909361573   109.17501416    64.32425897
 H     17  16  15     1.093678105508   109.66708234   181.20712713
 H     18   4   1     1.100002262600   101.04555854    43.15949200
 H     19  18   4     1.096646450905   110.09956968    68.71171871
 H     19  18   4     1.093925403465   111.28444480   309.96713563
 H     20  19  18     1.096711002699   109.60269819   180.08040961
 H     20  19  18     1.098936963973   108.76831050    63.47048767
 H     21  20  19     1.099681729225   109.06613910   294.85716105
 H     21  20  19     1.096418260728   110.19197978   177.89902617
 H     22  21  20     1.096296994076   110.42552651   183.28147898
 H     22  21  20     1.098674580245   109.52522575    65.76064239
 H     23  22  21     1.094886109488   110.59715164   179.63190621
 H     23  22  21     1.098859592205   109.10683448   296.76897607
 C      5   1   2     1.453858635744   121.55350982   275.79171145
 C     58   5   1     1.411143667415   119.23695835   157.74616389
 C     59  58   5     1.390666371782   120.81629153   182.30044999
 C     60  59  58     1.396943900706   120.04319208   359.43801459
 C     61  60  59     1.398228597155   119.87548172   359.69021481
 C     62  61  60     1.389152952640   120.28607460     0.44379187
 H     59  58   5     1.087387545481   118.94509438     1.55003577
 H     60  59  58     1.086530679443   119.90320828   179.62755910
 H     62  61  60     1.086238266524   119.98461143   181.08623699
 H     63  62  61     1.087818122257   120.07262893   182.56686235
 H     61  60  59     1.086254808731   120.05900449   180.30584786

---------------------------
INTERNAL COORDINATES (A.U.)
---------------------------
 Ru     0   0   0     0.000000000000     0.00000000     0.00000000
 Cl     1   0   0     4.338623833167     0.00000000     0.00000000
 Cl     1   2   0     4.334776896168   140.29965372     0.00000000
 P      1   2   3     4.158248643090    97.88463508   245.70575770
 C      1   2   3     3.466515779540   106.15174997   147.07638687
 C      4   1   2     3.510815844698   119.66760336   201.55202124
 C      6   4   1     2.907335692414   111.92830520   304.93531584
 C      7   6   4     2.900120819532   110.56418153   189.09172846
 C      8   7   6     2.897896162379   111.20310342   303.02765009
 C      9   8   7     2.897655151888   110.99509733    54.83916019
 C     10   9   8     2.903637502016   111.30219877   304.91591605
 C      4   1   2     3.515485020383   113.77815153   329.00465759
 C     12   4   1     2.912682555831   114.02259580   313.22869322
 C     13  12   4     2.899243104086   110.21466333   171.53061300
 C     14  13  12     2.897574542874   111.50724957    56.85839270
 C     15  14  13     2.896986174957   110.91143908   304.35472021
 C     16  15  14     2.904302030452   111.45310168    55.15610293
 C      4   1   2     3.536250109833   106.00288258    85.96343543
 C     18   4   1     2.911712407481   118.63502093   160.04180791
 C     19  18   4     2.905518053979   109.67879145   188.65236698
 C     20  19  18     2.898109110470   111.52681273   302.70640496
 C     21  20  19     2.897805993668   111.11023644    55.19416831
 C     22  21  20     2.900019174503   111.25414405   305.36994244
 H      5   1   2     2.067521620510   123.35891616    88.80852432
 H      6   4   1     2.081390583113   102.77665300   188.77919001
 H      7   6   4     2.069614514880   108.59948900    68.18161816
 H      7   6   4     2.067647331767   111.12019359   311.97117441
 H      8   7   6     2.071466521295   109.58378276   180.74942481
 H      8   7   6     2.078575889045   109.35878047    63.88919413
 H      9   8   7     2.076759697258   109.01625047   294.71507312
 H      9   8   7     2.072009247419   110.46735465   177.49383577
 H     10   9   8     2.072242246237   110.44742320   182.89603360
 H     10   9   8     2.077938219523   109.44335461    65.49257885
 H     11  10   9     2.067198512827   109.76117855   179.94201006
 H     11  10   9     2.071178699090   109.04082875   297.44393107
 H     12   4   1     2.077582403017   101.76452229    67.19578351
 H     13  12   4     2.064045214660   109.57768061    50.12568195
 H     13  12   4     2.073796472944   110.04511934   291.85119040
 H     14  13  12     2.076168237484   108.70453267   295.95941390
 H     14  13  12     2.071937534249   109.63960483   179.47554812
 H     15  14  13     2.071995574603   110.48185524   181.87458688
 H     15  14  13     2.078335591560   109.22538520    64.65208319
 H     16  15  14     2.076848402743   109.29884830   294.79558208
 H     16  15  14     2.072686878009   110.54837093   177.34121982
 H     17  16  15     2.074748013242   109.17501416    64.32425897
 H     17  16  15     2.066752098076   109.66708234   181.20712713
 H     18   4   1     2.078703023008   101.04555854    43.15949200
 H     19  18   4     2.072361457948   110.09956968    68.71171871
 H     19  18   4     2.067219423488   111.28444480   309.96713563
 H     20  19  18     2.072483443159   109.60269819   180.08040961
 H     20  19  18     2.076689900352   108.76831050    63.47048767
 H     21  20  19     2.078097302713   109.06613910   294.85716105
 H     21  20  19     2.071930241006   110.19197978   177.89902617
 H     22  21  20     2.071701080246   110.42552651   183.28147898
 H     22  21  20     2.076194066964   109.52522575    65.76064239
 H     23  22  21     2.069034894767   110.59715164   179.63190621
 H     23  22  21     2.076543688900   109.10683448   296.76897607
 C      5   1   2     2.747394658992   121.55350982   275.79171145
 C     58   5   1     2.666675067032   119.23695835   157.74616389
 C     59  58   5     2.627978586322   120.81629153   182.30044999
 C     60  59  58     2.639841396787   120.04319208   359.43801459
 C     61  60  59     2.642269121240   119.87548172   359.69021481
 C     62  61  60     2.625118638618   120.28607460     0.44379187
 H     59  58   5     2.054864662397   118.94509438     1.55003577
 H     60  59  58     2.053245420251   119.90320828   179.62755910
 H     62  61  60     2.052692839915   119.98461143   181.08623699
 H     63  62  61     2.055678334582   120.07262893   182.56686235
 H     61  60  59     2.052724100156   120.05900449   180.30584786

---------------------
BASIS SET INFORMATION
---------------------
There are 5 groups of distinct atoms

 Group   1 Type Ru  : 7s7p5d2f1g contracted to 6s4p3d2f1g pattern {211111/4111/311/11/1}
 Group   2 Type Cl  : 15s10p4d1f contracted to 6s6p4d1f pattern {732111/511111/1111/1}
 Group   3 Type P   : 15s9p4d1f contracted to 6s5p4d1f pattern {732111/51111/1111/1}
 Group   4 Type C   : 12s6p3d1f contracted to 6s3p3d1f pattern {621111/411/111/1}
 Group   5 Type H   : 5s3p1d contracted to 3s3p1d pattern {311/111/1}

Atom   0Ru   basis set group =>   1
Atom   1Cl   basis set group =>   2
Atom   2Cl   basis set group =>   2
Atom   3P    basis set group =>   3
Atom   4C    basis set group =>   4
Atom   5C    basis set group =>   4
Atom   6C    basis set group =>   4
Atom   7C    basis set group =>   4
Atom   8C    basis set group =>   4
Atom   9C    basis set group =>   4
Atom  10C    basis set group =>   4
Atom  11C    basis set group =>   4
Atom  12C    basis set group =>   4
Atom  13C    basis set group =>   4
Atom  14C    basis set group =>   4
Atom  15C    basis set group =>   4
Atom  16C    basis set group =>   4
Atom  17C    basis set group =>   4
Atom  18C    basis set group =>   4
Atom  19C    basis set group =>   4
Atom  20C    basis set group =>   4
Atom  21C    basis set group =>   4
Atom  22C    basis set group =>   4
Atom  23H    basis set group =>   5
Atom  24H    basis set group =>   5
Atom  25H    basis set group =>   5
Atom  26H    basis set group =>   5
Atom  27H    basis set group =>   5
Atom  28H    basis set group =>   5
Atom  29H    basis set group =>   5
Atom  30H    basis set group =>   5
Atom  31H    basis set group =>   5
Atom  32H    basis set group =>   5
Atom  33H    basis set group =>   5
Atom  34H    basis set group =>   5
Atom  35H    basis set group =>   5
Atom  36H    basis set group =>   5
Atom  37H    basis set group =>   5
Atom  38H    basis set group =>   5
Atom  39H    basis set group =>   5
Atom  40H    basis set group =>   5
Atom  41H    basis set group =>   5
Atom  42H    basis set group =>   5
Atom  43H    basis set group =>   5
Atom  44H    basis set group =>   5
Atom  45H    basis set group =>   5
Atom  46H    basis set group =>   5
Atom  47H    basis set group =>   5
Atom  48H    basis set group =>   5
Atom  49H    basis set group =>   5
Atom  50H    basis set group =>   5
Atom  51H    basis set group =>   5
Atom  52H    basis set group =>   5
Atom  53H    basis set group =>   5
Atom  54H    basis set group =>   5
Atom  55H    basis set group =>   5
Atom  56H    basis set group =>   5
Atom  57C    basis set group =>   4
Atom  58C    basis set group =>   4
Atom  59C    basis set group =>   4
Atom  60C    basis set group =>   4
Atom  61C    basis set group =>   4
Atom  62C    basis set group =>   4
Atom  63H    basis set group =>   5
Atom  64H    basis set group =>   5
Atom  65H    basis set group =>   5
Atom  66H    basis set group =>   5
Atom  67H    basis set group =>   5
---------------------------------
AUXILIARY/J BASIS SET INFORMATION
---------------------------------
There are 5 groups of distinct atoms

 Group   1 Type Ru  : 11s5p5d3f3g contracted to 8s5p5d2f3g pattern {41111111/11111/11111/21/111}
 Group   2 Type Cl  : 14s5p5d2f1g contracted to 8s4p3d1f1g pattern {71111111/2111/311/2/1}
 Group   3 Type P   : 14s5p5d2f1g contracted to 8s4p3d1f1g pattern {71111111/2111/311/2/1}
 Group   4 Type C   : 12s5p4d2f1g contracted to 6s4p3d1f1g pattern {711111/2111/211/2/1}
 Group   5 Type H   : 5s2p1d contracted to 3s1p1d pattern {311/2/1}

Atom   0Ru   basis set group =>   1
Atom   1Cl   basis set group =>   2
Atom   2Cl   basis set group =>   2
Atom   3P    basis set group =>   3
Atom   4C    basis set group =>   4
Atom   5C    basis set group =>   4
Atom   6C    basis set group =>   4
Atom   7C    basis set group =>   4
Atom   8C    basis set group =>   4
Atom   9C    basis set group =>   4
Atom  10C    basis set group =>   4
Atom  11C    basis set group =>   4
Atom  12C    basis set group =>   4
Atom  13C    basis set group =>   4
Atom  14C    basis set group =>   4
Atom  15C    basis set group =>   4
Atom  16C    basis set group =>   4
Atom  17C    basis set group =>   4
Atom  18C    basis set group =>   4
Atom  19C    basis set group =>   4
Atom  20C    basis set group =>   4
Atom  21C    basis set group =>   4
Atom  22C    basis set group =>   4
Atom  23H    basis set group =>   5
Atom  24H    basis set group =>   5
Atom  25H    basis set group =>   5
Atom  26H    basis set group =>   5
Atom  27H    basis set group =>   5
Atom  28H    basis set group =>   5
Atom  29H    basis set group =>   5
Atom  30H    basis set group =>   5
Atom  31H    basis set group =>   5
Atom  32H    basis set group =>   5
Atom  33H    basis set group =>   5
Atom  34H    basis set group =>   5
Atom  35H    basis set group =>   5
Atom  36H    basis set group =>   5
Atom  37H    basis set group =>   5
Atom  38H    basis set group =>   5
Atom  39H    basis set group =>   5
Atom  40H    basis set group =>   5
Atom  41H    basis set group =>   5
Atom  42H    basis set group =>   5
Atom  43H    basis set group =>   5
Atom  44H    basis set group =>   5
Atom  45H    basis set group =>   5
Atom  46H    basis set group =>   5
Atom  47H    basis set group =>   5
Atom  48H    basis set group =>   5
Atom  49H    basis set group =>   5
Atom  50H    basis set group =>   5
Atom  51H    basis set group =>   5
Atom  52H    basis set group =>   5
Atom  53H    basis set group =>   5
Atom  54H    basis set group =>   5
Atom  55H    basis set group =>   5
Atom  56H    basis set group =>   5
Atom  57C    basis set group =>   4
Atom  58C    basis set group =>   4
Atom  59C    basis set group =>   4
Atom  60C    basis set group =>   4
Atom  61C    basis set group =>   4
Atom  62C    basis set group =>   4
Atom  63H    basis set group =>   5
Atom  64H    basis set group =>   5
Atom  65H    basis set group =>   5
Atom  66H    basis set group =>   5
Atom  67H    basis set group =>   5
-------------------------
ECP PARAMETER INFORMATION
-------------------------

 Group 1, Type Ru ECP Def2-ECP (replacing 28 core electrons, lmax=3)

Atom   0Ru   ECP group =>   1



           ************************************************************
           *        Program running with 24 parallel MPI-processes    *
           *              working on a common directory               *
           ************************************************************
------------------------------------------------------------------------------
                           ORCA GTO INTEGRAL CALCULATION
                           -- RI-GTO INTEGRALS CHOSEN --
------------------------------------------------------------------------------

                         BASIS SET STATISTICS AND STARTUP INFO

Gaussian basis set:
 # of primitive gaussian shells          ... 1012
 # of primitive gaussian functions       ... 2330
 # of contracted shells                  ...  664
 # of contracted basis functions         ... 1794
 Highest angular momentum                ...    4
 Maximum contraction depth               ...    7
Auxiliary gaussian basis set:
 # of primitive gaussian shells          ... 1020
 # of primitive gaussian functions       ... 2704
 # of contracted shells                  ...  644
 # of contracted aux-basis functions     ... 1896
 Highest angular momentum                ...    4
 Maximum contraction depth               ...    7
Ratio of auxiliary to basis functions    ...  1.06
Integral package used                  ... LIBINT
 One Electron integrals                  
   ECP integrals                         ... done
 Ordering auxiliary basis shells         ... done
 Integral threshhold             Thresh  ...  1.000e-10
 Primitive cut-off               TCut    ...  1.000e-11
 Pre-screening matrix                    ... done
 Shell pair data                         ... 
 Ordering of the shell pairs             ... done (   0.033 sec) 157729 of 220780 pairs
 Determination of significant pairs      ... done (   0.001 sec)
 Creation of shell pair data             ... done (   0.014 sec)
 Storage of shell pair data              ... done (   0.015 sec)
 Shell pair data done in (   0.063 sec)
 Computing two index integrals           ... done
 Cholesky decomposition of the V-matrix  ... done


Timings:
 Total evaluation time                   ...   9.565 sec (  0.159 min)
 One electron matrix time                ...   8.101 sec (  0.135 min) = 84.7%
 Schwartz matrix evaluation time         ...   1.123 sec (  0.019 min) = 11.7%
 Two index repulsion integral time       ...   0.078 sec (  0.001 min) =  0.8%
 Cholesky decomposition of V             ...   0.172 sec (  0.003 min) =  1.8%
 Three index repulsion integral time     ...   0.000 sec (  0.000 min) =  0.0%



           ************************************************************
           *        Program running with 24 parallel MPI-processes    *
           *              working on a common directory               *
           ************************************************************
-------------------------------------------------------------------------------
                                 ORCA SCF
-------------------------------------------------------------------------------

------------
SCF SETTINGS
------------
Hamiltonian:
 Density Functional     Method          .... DFT(GTOs)
 Exchange Functional    Exchange        .... TPSS
 Correlation Functional Correlation     .... TPSS
 LDA part of GGA corr.  LDAOpt          .... PW91-LDA
 Gradients option       PostSCFGGA      .... off
   Density functional embedding theory  .... OFF
   NL short-range parameter             ....  5.000000
 RI-approximation to the Coulomb term is turned on
   Number of auxiliary basis functions  .... 1896


General Settings:
 Integral files         IntName         .... MOR13_ed24
 Hartree-Fock type      HFTyp           .... RHF
 Total Charge           Charge          ....    0
 Multiplicity           Mult            ....    1
 Number of Electrons    NEL             ....  254
 Basis Dimension        Dim             .... 1794
 Nuclear Repulsion      ENuc            ....   3925.9709139951 Eh

Convergence Acceleration:
 DIIS                   CNVDIIS         .... on
   Start iteration      DIISMaxIt       ....    12
   Startup error        DIISStart       ....  0.200000
   # of expansion vecs  DIISMaxEq       ....     5
   Bias factor          DIISBfac        ....   1.050
   Max. coefficient     DIISMaxC        ....  10.000
 Newton-Raphson         CNVNR           .... off
 SOSCF                  CNVSOSCF        .... off
 Level Shifting         CNVShift        .... on
   Level shift para.    LevelShift      ....    0.2500
   Turn off err/grad.   ShiftErr        ....    0.0010
 Zerner damping         CNVZerner       .... off
 Static damping         CNVDamp         .... on
   Fraction old density DampFac         ....    0.7000
   Max. Damping (<1)    DampMax         ....    0.9800
   Min. Damping (>=0)   DampMin         ....    0.0000
   Turn off err/grad.   DampErr         ....    0.1000
 Fernandez-Rico         CNVRico         .... off

SCF Procedure:
 Maximum # iterations   MaxIter         ....   125
 SCF integral mode      SCFMode         .... Direct
   Integral package                     .... LIBINT
 Reset frequency        DirectResetFreq ....    20
 Integral Threshold     Thresh          ....  1.000e-10 Eh
 Primitive CutOff       TCut            ....  1.000e-11 Eh

Convergence Tolerance:
 Convergence Check Mode ConvCheckMode   .... Total+1el-Energy
 Convergence forced     ConvForced      .... 0
 Energy Change          TolE            ....  1.000e-06 Eh
 1-El. energy change                    ....  1.000e-03 Eh
 DIIS Error             TolErr          ....  1.000e-06


Diagonalization of the overlap matrix:
Smallest eigenvalue                        ... 2.919e-07
Time for diagonalization                   ...    0.402 sec
Threshold for overlap eigenvalues          ... 1.000e-08
Number of eigenvalues below threshold      ... 0
Time for construction of square roots      ...    0.440 sec
Total time needed                          ...    0.852 sec

-------------------
DFT GRID GENERATION
-------------------

General Integration Accuracy     IntAcc      ...  4.670
Radial Grid Type                 RadialGrid  ... Gauss-Chebyshev
Angular Grid (max. acc.)         AngularGrid ... Lebedev-302
Angular grid pruning method      GridPruning ... 3 (G Style)
Weight generation scheme         WeightScheme... Becke
Basis function cutoff            BFCut       ...    1.0000e-10
Integration weight cutoff        WCut        ...    1.0000e-14
Grids for H and He will be reduced by one unit

# of grid points (after initial pruning)     ... 318502 (   0.0 sec)
# of grid points (after weights+screening)   ... 267529 (   0.4 sec)
nearest neighbour list constructed           ...    0.0 sec
Grid point re-assignment to atoms done       ...    0.0 sec
Grid point division into batches done        ...    0.7 sec
Reduced shell lists constructed in    1.3 sec

Total number of grid points                  ...   267529
Total number of batches                      ...     4211
Average number of points per batch           ...       63
Average number of grid points per atom       ...     3934
Average number of shells per batch           ...   287.44 (43.29%)
Average number of basis functions per batch  ...   742.69 (41.40%)
Average number of large shells per batch     ...   186.08 (64.74%)
Average number of large basis fcns per batch ...   494.31 (66.56%)
Maximum spatial batch extension              ...  16.36, 17.07, 11.26 au
Average spatial batch extension              ...   0.08,  0.10,  0.08 au

Time for grid setup =    1.831 sec

------------------------------
INITIAL GUESS: MODEL POTENTIAL
------------------------------
Loading Hartree-Fock densities                     ... done
  calling /sw/apps/orca/orca_4_2_0_linux_x86-64_openmpi314/orca MOR13_ed24_atom44.inp > MOR13_ed24_atom44.out in order to generate an atomic fitting density for atom 0 (Ru with ECP) on-the-fly... 
    atom 0 (Ru), assumed electronic state with S=5: 1s2 2s2 2p6 3s2 3p6 4s2 3d10 4p6 5s2 4d6           ... done
Calculating cut-offs                               ... done
Setting up the integral package                    ... done
Initializing the effective Hamiltonian             ... done
Starting the Coulomb interaction                   ... done (   0.6 sec)
Reading the grid                                   ... done
Mapping shells                                     ... done
Starting the XC term evaluation                    ... done (   1.8 sec)
  promolecular density results
     # of electrons  =    281.983225679
     EX              =   -345.539712644
     EC              =    -10.549271487
     EX+EC           =   -356.088984131
Transforming the Hamiltonian                       ... done (   0.2 sec)
Diagonalizing the Hamiltonian                      ... done (   0.4 sec)
Back transforming the eigenvectors                 ... done (   0.2 sec)
Now organizing SCF variables                       ... done
                      ------------------
                      INITIAL GUESS DONE (   6.3 sec)
                      ------------------
--------------
SCF ITERATIONS
--------------
ITER       Energy         Delta-E        Max-DP      RMS-DP      [F,P]     Damp
               ***  Starting incremental Fock matrix formation  ***
  0  -2332.6622761694   0.000000000000 2.24001227  0.00624676  0.4102281 0.7000
  1  -2333.1302000535  -0.467923884181 0.95153740  0.00268877  0.3256262 0.7000
  2  -2333.2556701294  -0.125470075893 0.95652333  0.00250217  0.2319843 0.7000
                               ***Turning on DIIS***
  3  -2333.3592031506  -0.103533021156 0.62381916  0.00158394  0.1495514 0.7000
  4  -2333.4256461341  -0.066442983487 0.94734905  0.00300473  0.0984009 0.0000
  5  -2333.5821446865  -0.156498552454 0.47693493  0.00107052  0.0343283 0.0000
  6  -2333.5871421162  -0.004997429704 0.33093177  0.00047014  0.0029005 0.0000
  7  -2333.5872301462  -0.000088029980 0.48130757  0.00057115  0.0028748 0.0000
  8  -2333.5872958459  -0.000065699638 0.15300838  0.00055015  0.0003890 0.0000
  9  -2333.5872977409  -0.000001895013 0.06116317  0.00020471  0.0011582 0.0000
 10  -2333.5873028704  -0.000005129517 0.69262294  0.00067895  0.0001631 0.0000
 11  -2333.5873033231  -0.000000452754 0.13788820  0.00036011  0.0001782 0.0000
 12  -2333.5873033723  -0.000000049156 0.86453598  0.00070051  0.0000912 0.0000
 13  -2333.5873032009   0.000000171425 0.20124524  0.00027960  0.0001427 0.0000
                 **** Energy Check signals convergence ****

               *****************************************************
               *                     SUCCESS                       *
               *           SCF CONVERGED AFTER  14 CYCLES          *
               *****************************************************


----------------
TOTAL SCF ENERGY
----------------

Total Energy       :        -2333.58730345 Eh          -63500.13881 eV

Components:
Nuclear Repulsion  :         3925.97091400 Eh          106831.09976 eV
Electronic Energy  :        -6259.55821745 Eh         -170331.23857 eV
One Electron Energy:       -11048.62808047 Eh         -300648.45474 eV
Two Electron Energy:         4789.06986302 Eh          130317.21617 eV

Virial components:
Potential Energy   :        -4599.05890955 Eh         -125146.75527 eV
Kinetic Energy     :         2265.47160610 Eh           61646.61646 eV
Virial Ratio       :            2.03006690


DFT components:
N(Alpha)           :      127.000479297132 electrons
N(Beta)            :      127.000479297132 electrons
N(Total)           :      254.000958594263 electrons
E(X)               :     -232.077739210159 Eh       
E(C)               :       -8.880578503055 Eh       
E(XC)              :     -240.958317713214 Eh       
DFET-embed. en.    :        0.000000000000 Eh       

---------------
SCF CONVERGENCE
---------------

  Last Energy change         ...   -2.5062e-07  Tolerance :   1.0000e-06
  Last MAX-Density change    ...    3.1762e-01  Tolerance :   1.0000e-05
  Last RMS-Density change    ...    5.3931e-04  Tolerance :   1.0000e-06
  Last DIIS Error            ...    5.5719e-06  Tolerance :   1.0000e-06

             **** THE GBW FILE WAS UPDATED (MOR13_ed24.gbw) ****
             **** DENSITY FILE WAS UPDATED (MOR13_ed24.scfp) ****
             **** ENERGY FILE WAS UPDATED (MOR13_ed24.en.tmp) ****
             **** THE GBW FILE WAS UPDATED (MOR13_ed24.gbw) ****
             **** DENSITY FILE WAS UPDATED (MOR13_ed24.scfp) ****
----------------
ORBITAL ENERGIES
----------------

  NO   OCC          E(Eh)            E(eV) 
   0   2.0000    -100.942770     -2746.7924 
   1   2.0000    -100.941679     -2746.7627 
   2   2.0000     -76.620444     -2084.9483 
   3   2.0000     -10.009016      -272.3592 
   4   2.0000     -10.007282      -272.3120 
   5   2.0000     -10.003970      -272.2219 
   6   2.0000     -10.003700      -272.2145 
   7   2.0000     -10.003244      -272.2021 
   8   2.0000      -9.998228      -272.0656 
   9   2.0000      -9.997770      -272.0531 
  10   2.0000      -9.997142      -272.0361 
  11   2.0000      -9.996450      -272.0172 
  12   2.0000      -9.996423      -272.0165 
  13   2.0000      -9.996167      -272.0095 
  14   2.0000      -9.994887      -271.9747 
  15   2.0000      -9.994474      -271.9635 
  16   2.0000      -9.991053      -271.8704 
  17   2.0000      -9.990597      -271.8580 
  18   2.0000      -9.989208      -271.8202 
  19   2.0000      -9.988715      -271.8068 
  20   2.0000      -9.986866      -271.7565 
  21   2.0000      -9.986752      -271.7533 
  22   2.0000      -9.986351      -271.7424 
  23   2.0000      -9.986243      -271.7395 
  24   2.0000      -9.986186      -271.7379 
  25   2.0000      -9.985458      -271.7181 
  26   2.0000      -9.984459      -271.6909 
  27   2.0000      -9.983960      -271.6774 
  28   2.0000      -9.192360      -250.1368 
  29   2.0000      -9.191290      -250.1077 
  30   2.0000      -6.967925      -189.6069 
  31   2.0000      -6.966803      -189.5764 
  32   2.0000      -6.963904      -189.4975 
  33   2.0000      -6.962958      -189.4717 
  34   2.0000      -6.962857      -189.4690 
  35   2.0000      -6.961901      -189.4430 
  36   2.0000      -6.392988      -173.9621 
  37   2.0000      -4.570260      -124.3631 
  38   2.0000      -4.570132      -124.3596 
  39   2.0000      -4.568772      -124.3226 
  40   2.0000      -2.908854       -79.1539 
  41   2.0000      -1.788514       -48.6679 
  42   2.0000      -1.788069       -48.6558 
  43   2.0000      -1.771778       -48.2125 
  44   2.0000      -0.802667       -21.8417 
  45   2.0000      -0.792993       -21.5784 
  46   2.0000      -0.780298       -21.2330 
  47   2.0000      -0.779435       -21.2095 
  48   2.0000      -0.721347       -19.6289 
  49   2.0000      -0.717439       -19.5225 
  50   2.0000      -0.706860       -19.2346 
  51   2.0000      -0.702278       -19.1100 
  52   2.0000      -0.696503       -18.9528 
  53   2.0000      -0.696060       -18.9408 
  54   2.0000      -0.694644       -18.9022 
  55   2.0000      -0.693773       -18.8785 
  56   2.0000      -0.690164       -18.7803 
  57   2.0000      -0.688894       -18.7457 
  58   2.0000      -0.615371       -16.7451 
  59   2.0000      -0.610791       -16.6205 
  60   2.0000      -0.575614       -15.6632 
  61   2.0000      -0.569769       -15.5042 
  62   2.0000      -0.566900       -15.4261 
  63   2.0000      -0.563048       -15.3213 
  64   2.0000      -0.562506       -15.3066 
  65   2.0000      -0.559526       -15.2255 
  66   2.0000      -0.531507       -14.4630 
  67   2.0000      -0.523669       -14.2498 
  68   2.0000      -0.521564       -14.1925 
  69   2.0000      -0.519935       -14.1482 
  70   2.0000      -0.498676       -13.5697 
  71   2.0000      -0.470479       -12.8024 
  72   2.0000      -0.449341       -12.2272 
  73   2.0000      -0.444769       -12.1028 
  74   2.0000      -0.436057       -11.8657 
  75   2.0000      -0.427803       -11.6411 
  76   2.0000      -0.415308       -11.3011 
  77   2.0000      -0.413163       -11.2427 
  78   2.0000      -0.412326       -11.2200 
  79   2.0000      -0.411580       -11.1997 
  80   2.0000      -0.408891       -11.1265 
  81   2.0000      -0.405884       -11.0447 
  82   2.0000      -0.404985       -11.0202 
  83   2.0000      -0.400241       -10.8911 
  84   2.0000      -0.396858       -10.7991 
  85   2.0000      -0.386517       -10.5177 
  86   2.0000      -0.383838       -10.4448 
  87   2.0000      -0.379473       -10.3260 
  88   2.0000      -0.360392        -9.8068 
  89   2.0000      -0.353314        -9.6142 
  90   2.0000      -0.351708        -9.5705 
  91   2.0000      -0.350232        -9.5303 
  92   2.0000      -0.349795        -9.5184 
  93   2.0000      -0.349129        -9.5003 
  94   2.0000      -0.347223        -9.4484 
  95   2.0000      -0.338141        -9.2013 
  96   2.0000      -0.333784        -9.0827 
  97   2.0000      -0.330980        -9.0064 
  98   2.0000      -0.327852        -8.9213 
  99   2.0000      -0.326053        -8.8724 
 100   2.0000      -0.321973        -8.7613 
 101   2.0000      -0.319482        -8.6935 
 102   2.0000      -0.317323        -8.6348 
 103   2.0000      -0.315283        -8.5793 
 104   2.0000      -0.313140        -8.5210 
 105   2.0000      -0.310935        -8.4610 
 106   2.0000      -0.306984        -8.3534 
 107   2.0000      -0.303749        -8.2654 
 108   2.0000      -0.300083        -8.1657 
 109   2.0000      -0.295208        -8.0330 
 110   2.0000      -0.294003        -8.0002 
 111   2.0000      -0.291113        -7.9216 
 112   2.0000      -0.286433        -7.7942 
 113   2.0000      -0.279762        -7.6127 
 114   2.0000      -0.275620        -7.5000 
 115   2.0000      -0.273955        -7.4547 
 116   2.0000      -0.269685        -7.3385 
 117   2.0000      -0.264317        -7.1924 
 118   2.0000      -0.261481        -7.1153 
 119   2.0000      -0.258298        -7.0287 
 120   2.0000      -0.255002        -6.9390 
 121   2.0000      -0.252602        -6.8737 
 122   2.0000      -0.246760        -6.7147 
 123   2.0000      -0.236457        -6.4343 
 124   2.0000      -0.197358        -5.3704 
 125   2.0000      -0.188906        -5.1404 
 126   2.0000      -0.171854        -4.6764 
 127   0.0000      -0.097028        -2.6403 
 128   0.0000      -0.092820        -2.5258 
 129   0.0000      -0.062066        -1.6889 
 130   0.0000      -0.040142        -1.0923 
 131   0.0000      -0.018748        -0.5102 
 132   0.0000      -0.011838        -0.3221 
 133   0.0000      -0.008481        -0.2308 
 134   0.0000      -0.005151        -0.1402 
 135   0.0000      -0.004406        -0.1199 
 136   0.0000       0.006558         0.1785 
 137   0.0000       0.007475         0.2034 
 138   0.0000       0.010547         0.2870 
 139   0.0000       0.012162         0.3310 
 140   0.0000       0.018740         0.5099 
 141   0.0000       0.019908         0.5417 
 142   0.0000       0.022536         0.6132 
 143   0.0000       0.028680         0.7804 
 144   0.0000       0.031528         0.8579 
 145   0.0000       0.032657         0.8886 
 146   0.0000       0.034215         0.9310 
 147   0.0000       0.038055         1.0355 
 148   0.0000       0.040283         1.0962 
 149   0.0000       0.042976         1.1694 
 150   0.0000       0.045387         1.2350 
 151   0.0000       0.046752         1.2722 
 152   0.0000       0.052919         1.4400 
 153   0.0000       0.053859         1.4656 
 154   0.0000       0.057682         1.5696 
 155   0.0000       0.059476         1.6184 
 156   0.0000       0.062596         1.7033 
 157   0.0000       0.067032         1.8240 
 158   0.0000       0.068457         1.8628 
 159   0.0000       0.070231         1.9111 
 160   0.0000       0.070826         1.9273 
 161   0.0000       0.072878         1.9831 
 162   0.0000       0.074446         2.0258 
 163   0.0000       0.077323         2.1041 
 164   0.0000       0.079187         2.1548 
 165   0.0000       0.081865         2.2277 
 166   0.0000       0.082807         2.2533 
 167   0.0000       0.085850         2.3361 
 168   0.0000       0.089608         2.4384 
 169   0.0000       0.092762         2.5242 
 170   0.0000       0.094338         2.5671 
 171   0.0000       0.096213         2.6181 
 172   0.0000       0.099587         2.7099 
 173   0.0000       0.102027         2.7763 
 174   0.0000       0.105611         2.8738 
 175   0.0000       0.107189         2.9168 
 176   0.0000       0.108471         2.9517 
 177   0.0000       0.111088         3.0229 
 178   0.0000       0.112277         3.0552 
 179   0.0000       0.114441         3.1141 
 180   0.0000       0.116975         3.1831 
 181   0.0000       0.119725         3.2579 
 182   0.0000       0.122794         3.3414 
 183   0.0000       0.125283         3.4091 
 184   0.0000       0.127988         3.4827 
 185   0.0000       0.129011         3.5106 
 186   0.0000       0.129840         3.5331 
 187   0.0000       0.132924         3.6170 
 188   0.0000       0.134119         3.6496 
 189   0.0000       0.135908         3.6983 
 190   0.0000       0.137632         3.7451 
 191   0.0000       0.141581         3.8526 
 192   0.0000       0.143848         3.9143 
 193   0.0000       0.145522         3.9599 
 194   0.0000       0.147717         4.0196 
 195   0.0000       0.147901         4.0246 
 196   0.0000       0.149737         4.0746 
 197   0.0000       0.151413         4.1201 
 198   0.0000       0.154571         4.2061 
 199   0.0000       0.156045         4.2462 
 200   0.0000       0.158783         4.3207 
 201   0.0000       0.160860         4.3772 
 202   0.0000       0.163023         4.4361 
 203   0.0000       0.164969         4.4890 
 204   0.0000       0.167620         4.5612 
 205   0.0000       0.167724         4.5640 
 206   0.0000       0.170677         4.6444 
 207   0.0000       0.172794         4.7020 
 208   0.0000       0.175239         4.7685 
 209   0.0000       0.177816         4.8386 
 210   0.0000       0.179073         4.8728 
 211   0.0000       0.179397         4.8816 
 212   0.0000       0.181875         4.9491 
 213   0.0000       0.184531         5.0214 
 214   0.0000       0.185449         5.0463 
 215   0.0000       0.187737         5.1086 
 216   0.0000       0.189056         5.1445 
 217   0.0000       0.190883         5.1942 
 218   0.0000       0.191556         5.2125 
 219   0.0000       0.194623         5.2960 
 220   0.0000       0.195414         5.3175 
 221   0.0000       0.198236         5.3943 
 222   0.0000       0.198459         5.4003 
 223   0.0000       0.200660         5.4602 
 224   0.0000       0.202568         5.5121 
 225   0.0000       0.204673         5.5694 
 226   0.0000       0.205669         5.5965 
 227   0.0000       0.209215         5.6930 
 228   0.0000       0.209599         5.7035 
 229   0.0000       0.209833         5.7098 
 230   0.0000       0.213337         5.8052 
 231   0.0000       0.214712         5.8426 
 232   0.0000       0.216087         5.8800 
 233   0.0000       0.217754         5.9254 
 234   0.0000       0.218682         5.9506 
 235   0.0000       0.219308         5.9677 
 236   0.0000       0.222199         6.0463 
 237   0.0000       0.223016         6.0686 
 238   0.0000       0.223610         6.0847 
 239   0.0000       0.226553         6.1648 
 240   0.0000       0.229339         6.2406 
 241   0.0000       0.230843         6.2816 
 242   0.0000       0.232351         6.3226 
 243   0.0000       0.232755         6.3336 
 244   0.0000       0.234597         6.3837 
 245   0.0000       0.237093         6.4516 
 246   0.0000       0.238306         6.4846 
 247   0.0000       0.239419         6.5149 
 248   0.0000       0.241754         6.5784 
 249   0.0000       0.244186         6.6446 
 250   0.0000       0.245009         6.6670 
 251   0.0000       0.245885         6.6909 
 252   0.0000       0.248131         6.7520 
 253   0.0000       0.250678         6.8213 
 254   0.0000       0.252191         6.8625 
 255   0.0000       0.253514         6.8985 
 256   0.0000       0.255134         6.9426 
 257   0.0000       0.255912         6.9637 
 258   0.0000       0.259773         7.0688 
 259   0.0000       0.261189         7.1073 
 260   0.0000       0.261756         7.1228 
 261   0.0000       0.263863         7.1801 
 262   0.0000       0.264631         7.2010 
 263   0.0000       0.266478         7.2512 
 264   0.0000       0.268313         7.3012 
 265   0.0000       0.271546         7.3891 
 266   0.0000       0.272994         7.4285 
 267   0.0000       0.273958         7.4548 
 268   0.0000       0.275904         7.5077 
 269   0.0000       0.276524         7.5246 
 270   0.0000       0.276864         7.5338 
 271   0.0000       0.279111         7.5950 
 272   0.0000       0.280570         7.6347 
 273   0.0000       0.281709         7.6657 
 274   0.0000       0.283091         7.7033 
 275   0.0000       0.285338         7.7644 
 276   0.0000       0.287128         7.8131 
 277   0.0000       0.287966         7.8359 
 278   0.0000       0.289912         7.8889 
 279   0.0000       0.291848         7.9416 
 280   0.0000       0.292971         7.9721 
 281   0.0000       0.295524         8.0416 
 282   0.0000       0.296443         8.0666 
 283   0.0000       0.297778         8.1030 
 284   0.0000       0.299363         8.1461 
 285   0.0000       0.300088         8.1658 
 286   0.0000       0.304259         8.2793 
 287   0.0000       0.305250         8.3063 
 288   0.0000       0.306827         8.3492 
 289   0.0000       0.308041         8.3822 
 290   0.0000       0.310278         8.4431 
 291   0.0000       0.311164         8.4672 
 292   0.0000       0.311983         8.4895 
 293   0.0000       0.312888         8.5141 
 294   0.0000       0.316002         8.5988 
 295   0.0000       0.317627         8.6431 
 296   0.0000       0.320292         8.7156 
 297   0.0000       0.321441         8.7468 
 298   0.0000       0.322797         8.7838 
 299   0.0000       0.323871         8.8130 
 300   0.0000       0.326293         8.8789 
 301   0.0000       0.326834         8.8936 
 302   0.0000       0.327564         8.9135 
 303   0.0000       0.331963         9.0332 
 304   0.0000       0.333104         9.0642 
 305   0.0000       0.333722         9.0811 
 306   0.0000       0.335014         9.1162 
 307   0.0000       0.338010         9.1977 
 308   0.0000       0.339598         9.2409 
 309   0.0000       0.341193         9.2843 
 310   0.0000       0.342424         9.3178 
 311   0.0000       0.343978         9.3601 
 312   0.0000       0.346325         9.4240 
 313   0.0000       0.347545         9.4572 
 314   0.0000       0.347923         9.4675 
 315   0.0000       0.349988         9.5237 
 316   0.0000       0.351799         9.5729 
 317   0.0000       0.354181         9.6378 
 318   0.0000       0.356696         9.7062 
 319   0.0000       0.359288         9.7767 
 320   0.0000       0.360167         9.8006 
 321   0.0000       0.360386         9.8066 
 322   0.0000       0.360968         9.8224 
 323   0.0000       0.364407         9.9160 
 324   0.0000       0.367066         9.9884 
 325   0.0000       0.368458        10.0263 
 326   0.0000       0.369038        10.0420 
 327   0.0000       0.371876        10.1193 
 328   0.0000       0.372451        10.1349 
 329   0.0000       0.374025        10.1777 
 330   0.0000       0.375526        10.2186 
 331   0.0000       0.377667        10.2768 
 332   0.0000       0.378733        10.3059 
 333   0.0000       0.380813        10.3625 
 334   0.0000       0.380963        10.3665 
 335   0.0000       0.384960        10.4753 
 336   0.0000       0.385898        10.5008 
 337   0.0000       0.387247        10.5375 
 338   0.0000       0.390036        10.6134 
 339   0.0000       0.393506        10.7078 
 340   0.0000       0.394963        10.7475 
 341   0.0000       0.397941        10.8285 
 342   0.0000       0.398382        10.8405 
 343   0.0000       0.399985        10.8841 
 344   0.0000       0.402786        10.9604 
 345   0.0000       0.405774        11.0417 
 346   0.0000       0.406476        11.0608 
 347   0.0000       0.408033        11.1031 
 348   0.0000       0.409414        11.1407 
 349   0.0000       0.410306        11.1650 
 350   0.0000       0.413828        11.2608 
 351   0.0000       0.416059        11.3216 
 352   0.0000       0.417370        11.3572 
 353   0.0000       0.419046        11.4028 
 354   0.0000       0.422919        11.5082 
 355   0.0000       0.423223        11.5165 
 356   0.0000       0.424511        11.5515 
 357   0.0000       0.425208        11.5705 
 358   0.0000       0.428432        11.6582 
 359   0.0000       0.430032        11.7018 
 360   0.0000       0.432424        11.7669 
 361   0.0000       0.434831        11.8324 
 362   0.0000       0.436224        11.8703 
 363   0.0000       0.437159        11.8957 
 364   0.0000       0.439421        11.9572 
 365   0.0000       0.442885        12.0515 
 366   0.0000       0.445743        12.1293 
 367   0.0000       0.447600        12.1798 
 368   0.0000       0.449182        12.2229 
 369   0.0000       0.450739        12.2652 
 370   0.0000       0.453562        12.3420 
 371   0.0000       0.456143        12.4123 
 372   0.0000       0.458079        12.4650 
 373   0.0000       0.460215        12.5231 
 374   0.0000       0.461260        12.5515 
 375   0.0000       0.463732        12.6188 
 376   0.0000       0.465944        12.6790 
 377   0.0000       0.467011        12.7080 
 378   0.0000       0.468631        12.7521 
 379   0.0000       0.469803        12.7840 
 380   0.0000       0.472497        12.8573 
 381   0.0000       0.473250        12.8778 
 382   0.0000       0.476415        12.9639 
 383   0.0000       0.477369        12.9899 
 384   0.0000       0.480005        13.0616 
 385   0.0000       0.481482        13.1018 
 386   0.0000       0.482878        13.1398 
 387   0.0000       0.484873        13.1941 
 388   0.0000       0.486486        13.2379 
 389   0.0000       0.488300        13.2873 
 390   0.0000       0.490139        13.3374 
 391   0.0000       0.492356        13.3977 
 392   0.0000       0.495137        13.4734 
 393   0.0000       0.498998        13.5784 
 394   0.0000       0.502413        13.6714 
 395   0.0000       0.504772        13.7355 
 396   0.0000       0.506716        13.7884 
 397   0.0000       0.509012        13.8509 
 398   0.0000       0.509825        13.8730 
 399   0.0000       0.513119        13.9627 
 400   0.0000       0.513398        13.9703 
 401   0.0000       0.515405        14.0249 
 402   0.0000       0.516648        14.0587 
 403   0.0000       0.517974        14.0948 
 404   0.0000       0.520745        14.1702 
 405   0.0000       0.522112        14.2074 
 406   0.0000       0.523402        14.2425 
 407   0.0000       0.525393        14.2967 
 408   0.0000       0.527985        14.3672 
 409   0.0000       0.532423        14.4880 
 410   0.0000       0.532682        14.4950 
 411   0.0000       0.533902        14.5282 
 412   0.0000       0.536300        14.5935 
 413   0.0000       0.537946        14.6383 
 414   0.0000       0.538995        14.6668 
 415   0.0000       0.540866        14.7177 
 416   0.0000       0.543210        14.7815 
 417   0.0000       0.546476        14.8704 
 418   0.0000       0.547103        14.8874 
 419   0.0000       0.547749        14.9050 
 420   0.0000       0.549953        14.9650 
 421   0.0000       0.551624        15.0105 
 422   0.0000       0.554615        15.0918 
 423   0.0000       0.554720        15.0947 
 424   0.0000       0.558378        15.1942 
 425   0.0000       0.559927        15.2364 
 426   0.0000       0.561949        15.2914 
 427   0.0000       0.562631        15.3100 
 428   0.0000       0.566667        15.4198 
 429   0.0000       0.567737        15.4489 
 430   0.0000       0.568903        15.4806 
 431   0.0000       0.571087        15.5401 
 432   0.0000       0.574371        15.6294 
 433   0.0000       0.577682        15.7195 
 434   0.0000       0.579784        15.7767 
 435   0.0000       0.581695        15.8287 
 436   0.0000       0.583291        15.8721 
 437   0.0000       0.584974        15.9179 
 438   0.0000       0.586581        15.9617 
 439   0.0000       0.587350        15.9826 
 440   0.0000       0.588654        16.0181 
 441   0.0000       0.590003        16.0548 
 442   0.0000       0.591081        16.0841 
 443   0.0000       0.592782        16.1304 
 444   0.0000       0.594517        16.1776 
 445   0.0000       0.595557        16.2059 
 446   0.0000       0.599306        16.3079 
 447   0.0000       0.600316        16.3354 
 448   0.0000       0.600943        16.3525 
 449   0.0000       0.604043        16.4368 
 450   0.0000       0.605013        16.4632 
 451   0.0000       0.607146        16.5213 
 452   0.0000       0.609980        16.5984 
 453   0.0000       0.610546        16.6138 
 454   0.0000       0.616491        16.7756 
 455   0.0000       0.616670        16.7804 
 456   0.0000       0.617348        16.7989 
 457   0.0000       0.620072        16.8730 
 458   0.0000       0.622449        16.9377 
 459   0.0000       0.622975        16.9520 
 460   0.0000       0.625664        17.0252 
 461   0.0000       0.626110        17.0373 
 462   0.0000       0.627710        17.0809 
 463   0.0000       0.629767        17.1368 
 464   0.0000       0.631557        17.1855 
 465   0.0000       0.633423        17.2363 
 466   0.0000       0.634899        17.2765 
 467   0.0000       0.636045        17.3077 
 468   0.0000       0.636755        17.3270 
 469   0.0000       0.637933        17.3590 
 470   0.0000       0.641335        17.4516 
 471   0.0000       0.641526        17.4568 
 472   0.0000       0.642484        17.4829 
 473   0.0000       0.643940        17.5225 
 474   0.0000       0.647279        17.6134 
 475   0.0000       0.647986        17.6326 
 476   0.0000       0.650777        17.7085 
 477   0.0000       0.651854        17.7378 
 478   0.0000       0.653308        17.7774 
 479   0.0000       0.656390        17.8613 
 480   0.0000       0.656831        17.8733 
 481   0.0000       0.660198        17.9649 
 482   0.0000       0.662470        18.0267 
 483   0.0000       0.662956        18.0400 
 484   0.0000       0.663763        18.0619 
 485   0.0000       0.665820        18.1179 
 486   0.0000       0.668929        18.2025 
 487   0.0000       0.670115        18.2348 
 488   0.0000       0.671093        18.2614 
 489   0.0000       0.672561        18.3013 
 490   0.0000       0.675714        18.3871 
 491   0.0000       0.677222        18.4282 
 492   0.0000       0.679473        18.4894 
 493   0.0000       0.681424        18.5425 
 494   0.0000       0.684553        18.6276 
 495   0.0000       0.685076        18.6419 
 496   0.0000       0.686743        18.6872 
 497   0.0000       0.687771        18.7152 
 498   0.0000       0.691355        18.8127 
 499   0.0000       0.692943        18.8559 
 500   0.0000       0.693554        18.8726 
 501   0.0000       0.694303        18.8930 
 502   0.0000       0.698558        19.0087 
 503   0.0000       0.699269        19.0281 
 504   0.0000       0.702274        19.1098 
 505   0.0000       0.703292        19.1375 
 506   0.0000       0.703881        19.1536 
 507   0.0000       0.706544        19.2260 
 508   0.0000       0.707301        19.2466 
 509   0.0000       0.711092        19.3498 
 510   0.0000       0.712020        19.3750 
 511   0.0000       0.712744        19.3948 
 512   0.0000       0.714987        19.4558 
 513   0.0000       0.716336        19.4925 
 514   0.0000       0.717853        19.5338 
 515   0.0000       0.719322        19.5737 
 516   0.0000       0.722508        19.6604 
 517   0.0000       0.723122        19.6771 
 518   0.0000       0.726155        19.7597 
 519   0.0000       0.726722        19.7751 
 520   0.0000       0.729636        19.8544 
 521   0.0000       0.731179        19.8964 
 522   0.0000       0.733080        19.9481 
 523   0.0000       0.734911        19.9980 
 524   0.0000       0.735655        20.0182 
 525   0.0000       0.736886        20.0517 
 526   0.0000       0.738027        20.0827 
 527   0.0000       0.739825        20.1317 
 528   0.0000       0.742289        20.1987 
 529   0.0000       0.744221        20.2513 
 530   0.0000       0.744832        20.2679 
 531   0.0000       0.747281        20.3345 
 532   0.0000       0.748166        20.3586 
 533   0.0000       0.752337        20.4721 
 534   0.0000       0.753664        20.5082 
 535   0.0000       0.757212        20.6048 
 536   0.0000       0.758062        20.6279 
 537   0.0000       0.761606        20.7244 
 538   0.0000       0.762957        20.7611 
 539   0.0000       0.766568        20.8594 
 540   0.0000       0.767260        20.8782 
 541   0.0000       0.770211        20.9585 
 542   0.0000       0.772688        21.0259 
 543   0.0000       0.773964        21.0606 
 544   0.0000       0.775718        21.1084 
 545   0.0000       0.776646        21.1336 
 546   0.0000       0.780606        21.2414 
 547   0.0000       0.783748        21.3269 
 548   0.0000       0.784757        21.3543 
 549   0.0000       0.785380        21.3713 
 550   0.0000       0.790978        21.5236 
 551   0.0000       0.792254        21.5583 
 552   0.0000       0.795165        21.6375 
 553   0.0000       0.797094        21.6900 
 554   0.0000       0.797850        21.7106 
 555   0.0000       0.799946        21.7676 
 556   0.0000       0.801316        21.8049 
 557   0.0000       0.806843        21.9553 
 558   0.0000       0.806981        21.9591 
 559   0.0000       0.809443        22.0261 
 560   0.0000       0.810032        22.0421 
 561   0.0000       0.813387        22.1334 
 562   0.0000       0.814308        22.1584 
 563   0.0000       0.816340        22.2137 
 564   0.0000       0.822374        22.3779 
 565   0.0000       0.823502        22.4086 
 566   0.0000       0.824542        22.4369 
 567   0.0000       0.827355        22.5135 
 568   0.0000       0.831825        22.6351 
 569   0.0000       0.834772        22.7153 
 570   0.0000       0.838382        22.8135 
 571   0.0000       0.840260        22.8646 
 572   0.0000       0.842131        22.9155 
 573   0.0000       0.844212        22.9722 
 574   0.0000       0.846721        23.0404 
 575   0.0000       0.848071        23.0772 
 576   0.0000       0.851260        23.1640 
 577   0.0000       0.853142        23.2152 
 578   0.0000       0.855196        23.2711 
 579   0.0000       0.857475        23.3331 
 580   0.0000       0.860677        23.4202 
 581   0.0000       0.861512        23.4429 
 582   0.0000       0.864558        23.5258 
 583   0.0000       0.865371        23.5479 
 584   0.0000       0.869547        23.6616 
 585   0.0000       0.873246        23.7622 
 586   0.0000       0.875262        23.8171 
 587   0.0000       0.879351        23.9284 
 588   0.0000       0.881132        23.9768 
 589   0.0000       0.884196        24.0602 
 590   0.0000       0.884944        24.0806 
 591   0.0000       0.892853        24.2958 
 592   0.0000       0.893767        24.3206 
 593   0.0000       0.895327        24.3631 
 594   0.0000       0.896686        24.4001 
 595   0.0000       0.899051        24.4644 
 596   0.0000       0.901141        24.5213 
 597   0.0000       0.904818        24.6214 
 598   0.0000       0.906892        24.6778 
 599   0.0000       0.908352        24.7175 
 600   0.0000       0.910201        24.7678 
 601   0.0000       0.911915        24.8145 
 602   0.0000       0.915866        24.9220 
 603   0.0000       0.916510        24.9395 
 604   0.0000       0.920775        25.0556 
 605   0.0000       0.922549        25.1038 
 606   0.0000       0.925747        25.1909 
 607   0.0000       0.926216        25.2036 
 608   0.0000       0.930734        25.3266 
 609   0.0000       0.932265        25.3682 
 610   0.0000       0.934072        25.4174 
 611   0.0000       0.939722        25.5711 
 612   0.0000       0.941255        25.6129 
 613   0.0000       0.944700        25.7066 
 614   0.0000       0.946457        25.7544 
 615   0.0000       0.948591        25.8125 
 616   0.0000       0.950883        25.8749 
 617   0.0000       0.953027        25.9332 
 618   0.0000       0.956076        26.0162 
 619   0.0000       0.958164        26.0730 
 620   0.0000       0.962233        26.1837 
 621   0.0000       0.965167        26.2635 
 622   0.0000       0.966944        26.3119 
 623   0.0000       0.969586        26.3838 
 624   0.0000       0.972506        26.4632 
 625   0.0000       0.975817        26.5533 
 626   0.0000       0.976963        26.5845 
 627   0.0000       0.981787        26.7158 
 628   0.0000       0.986743        26.8506 
 629   0.0000       0.990245        26.9459 
 630   0.0000       0.990942        26.9649 
 631   0.0000       0.991770        26.9874 
 632   0.0000       0.995610        27.0919 
 633   0.0000       0.998911        27.1818 
 634   0.0000       0.999791        27.2057 
 635   0.0000       1.003319        27.3017 
 636   0.0000       1.005722        27.3671 
 637   0.0000       1.007602        27.4183 
 638   0.0000       1.011785        27.5321 
 639   0.0000       1.013009        27.5654 
 640   0.0000       1.019391        27.7390 
 641   0.0000       1.023523        27.8515 
 642   0.0000       1.025354        27.9013 
 643   0.0000       1.027777        27.9672 
 644   0.0000       1.030361        28.0375 
 645   0.0000       1.035533        28.1783 
 646   0.0000       1.037269        28.2255 
 647   0.0000       1.041130        28.3306 
 648   0.0000       1.043097        28.3841 
 649   0.0000       1.046781        28.4844 
 650   0.0000       1.048151        28.5216 
 651   0.0000       1.052010        28.6267 
 652   0.0000       1.056981        28.7619 
 653   0.0000       1.060029        28.8448 
 654   0.0000       1.061419        28.8827 
 655   0.0000       1.063559        28.9409 
 656   0.0000       1.068658        29.0797 
 657   0.0000       1.069649        29.1066 
 658   0.0000       1.075997        29.2794 
 659   0.0000       1.080018        29.3888 
 660   0.0000       1.083212        29.4757 
 661   0.0000       1.087941        29.6044 
 662   0.0000       1.092911        29.7396 
 663   0.0000       1.095557        29.8116 
 664   0.0000       1.098116        29.8813 
 665   0.0000       1.100348        29.9420 
 666   0.0000       1.107528        30.1374 
 667   0.0000       1.108441        30.1622 
 668   0.0000       1.110895        30.2290 
 669   0.0000       1.114353        30.3231 
 670   0.0000       1.118393        30.4330 
 671   0.0000       1.121046        30.5052 
 672   0.0000       1.121749        30.5243 
 673   0.0000       1.124444        30.5977 
 674   0.0000       1.130289        30.7567 
 675   0.0000       1.131254        30.7830 
 676   0.0000       1.135770        30.9059 
 677   0.0000       1.138949        30.9924 
 678   0.0000       1.141390        31.0588 
 679   0.0000       1.146716        31.2037 
 680   0.0000       1.154507        31.4157 
 681   0.0000       1.157827        31.5061 
 682   0.0000       1.163487        31.6601 
 683   0.0000       1.168612        31.7995 
 684   0.0000       1.169720        31.8297 
 685   0.0000       1.171031        31.8654 
 686   0.0000       1.176049        32.0019 
 687   0.0000       1.180398        32.1203 
 688   0.0000       1.184685        32.2369 
 689   0.0000       1.185481        32.2586 
 690   0.0000       1.187948        32.3257 
 691   0.0000       1.190457        32.3940 
 692   0.0000       1.195720        32.5372 
 693   0.0000       1.197967        32.5983 
 694   0.0000       1.203398        32.7461 
 695   0.0000       1.207784        32.8655 
 696   0.0000       1.210728        32.9456 
 697   0.0000       1.212295        32.9882 
 698   0.0000       1.213199        33.0128 
 699   0.0000       1.215778        33.0830 
 700   0.0000       1.218099        33.1462 
 701   0.0000       1.221700        33.2441 
 702   0.0000       1.227486        33.4016 
 703   0.0000       1.233459        33.5641 
 704   0.0000       1.234794        33.6004 
 705   0.0000       1.238526        33.7020 
 706   0.0000       1.241955        33.7953 
 707   0.0000       1.245889        33.9024 
 708   0.0000       1.247732        33.9525 
 709   0.0000       1.254003        34.1231 
 710   0.0000       1.258296        34.2400 
 711   0.0000       1.260099        34.2890 
 712   0.0000       1.264796        34.4169 
 713   0.0000       1.266506        34.4634 
 714   0.0000       1.269112        34.5343 
 715   0.0000       1.274275        34.6748 
 716   0.0000       1.276103        34.7245 
 717   0.0000       1.277224        34.7550 
 718   0.0000       1.283699        34.9312 
 719   0.0000       1.289013        35.0758 
 720   0.0000       1.289787        35.0969 
 721   0.0000       1.292130        35.1607 
 722   0.0000       1.294189        35.2167 
 723   0.0000       1.296990        35.2929 
 724   0.0000       1.299589        35.3636 
[...]
 54 H s       :     0.681663  s :     0.681663
      pz      :     0.077909  p :     0.267064
      px      :     0.082692
      py      :     0.106464
      dz2     :     0.003475  d :     0.029431
      dxz     :     0.002695
      dyz     :     0.006273
      dx2y2   :     0.008722
      dxy     :     0.008266
 55 H s       :     0.674887  s :     0.674887
      pz      :     0.094625  p :     0.343109
      px      :     0.165688
      py      :     0.082796
      dz2     :     0.006065  d :     0.029508
      dxz     :     0.008289
      dyz     :     0.002340
      dx2y2   :     0.005748
      dxy     :     0.007065
 56 H s       :     0.669205  s :     0.669205
      pz      :     0.073066  p :     0.284988
      px      :     0.093702
      py      :     0.118220
      dz2     :     0.003549  d :     0.029693
      dxz     :     0.002668
      dyz     :     0.006728
      dx2y2   :     0.008682
      dxy     :     0.008067
 57 C s       :     2.632467  s :     2.632467
      pz      :     0.748016  p :     2.588037
      px      :     0.914588
      py      :     0.925433
      dz2     :     0.093951  d :     0.960942
      dxz     :     0.148842
      dyz     :     0.137072
      dx2y2   :     0.304264
      dxy     :     0.276813
      f0      :     0.004250  f :     0.056710
      f+1     :     0.004892
      f-1     :     0.004366
      f+2     :     0.006381
      f-2     :     0.007226
      f+3     :     0.010867
      f-3     :     0.018728
 58 C s       :     2.644068  s :     2.644068
      pz      :     0.737114  p :     2.566858
      px      :     0.933126
      py      :     0.896618
      dz2     :     0.062105  d :     0.700921
      dxz     :     0.130221
      dyz     :     0.061815
      dx2y2   :     0.220330
      dxy     :     0.226449
      f0      :     0.003312  f :     0.043308
      f+1     :     0.004285
      f-1     :     0.002584
      f+2     :     0.005547
      f-2     :     0.004648
      f+3     :     0.009125
      f-3     :     0.013807
 59 C s       :     2.653492  s :     2.653492
      pz      :     0.748418  p :     2.601190
      px      :     0.938657
      py      :     0.914114
      dz2     :     0.066028  d :     0.683034
      dxz     :     0.110124
      dyz     :     0.072005
      dx2y2   :     0.177339
      dxy     :     0.257538
      f0      :     0.003007  f :     0.043693
      f+1     :     0.003786
      f-1     :     0.003609
      f+2     :     0.007212
      f-2     :     0.003424
      f+3     :     0.008915
      f-3     :     0.013739
 60 C s       :     2.655031  s :     2.655031
      pz      :     0.741282  p :     2.594792
      px      :     0.917580
      py      :     0.935930
      dz2     :     0.071514  d :     0.687570
      dxz     :     0.047556
      dyz     :     0.133470
      dx2y2   :     0.264824
      dxy     :     0.170205
      f0      :     0.002656  f :     0.043323
      f+1     :     0.003672
      f-1     :     0.004100
      f+2     :     0.003399
      f-2     :     0.007243
      f+3     :     0.009006
      f-3     :     0.013248
 61 C s       :     2.651887  s :     2.651887
      pz      :     0.741618  p :     2.597432
      px      :     0.945886
      py      :     0.909928
      dz2     :     0.058742  d :     0.681371
      dxz     :     0.118406
      dyz     :     0.063298
      dx2y2   :     0.211108
      dxy     :     0.229817
      f0      :     0.003274  f :     0.043706
      f+1     :     0.004198
      f-1     :     0.002731
      f+2     :     0.005641
      f-2     :     0.004570
      f+3     :     0.009156
      f-3     :     0.014137
 62 C s       :     2.642589  s :     2.642589
      pz      :     0.727825  p :     2.567917
      px      :     0.934401
      py      :     0.905691
      dz2     :     0.072365  d :     0.714382
      dxz     :     0.118262
      dyz     :     0.070457
      dx2y2   :     0.192098
      dxy     :     0.261201
      f0      :     0.002864  f :     0.043212
      f+1     :     0.003820
      f-1     :     0.003646
      f+2     :     0.006837
      f-2     :     0.003421
      f+3     :     0.008898
      f-3     :     0.013727
 63 H s       :     0.698290  s :     0.698290
      pz      :     0.075615  p :     0.267048
      px      :     0.082268
      py      :     0.109166
      dz2     :     0.003285  d :     0.028798
      dxz     :     0.002060
      dyz     :     0.006854
      dx2y2   :     0.008475
      dxy     :     0.008124
 64 H s       :     0.710053  s :     0.710053
      pz      :     0.075536  p :     0.263192
      px      :     0.085323
      py      :     0.102334
      dz2     :     0.002974  d :     0.028564
      dxz     :     0.003107
      dyz     :     0.005424
      dx2y2   :     0.008637
      dxy     :     0.008421
 65 H s       :     0.708521  s :     0.708521
      pz      :     0.076289  p :     0.261653
      px      :     0.074504
      py      :     0.110860
      dz2     :     0.003216  d :     0.028587
      dxz     :     0.001931
      dyz     :     0.006830
      dx2y2   :     0.008319
      dxy     :     0.008291
 66 H s       :     0.690817  s :     0.690817
      pz      :     0.078729  p :     0.324549
      px      :     0.131651
      py      :     0.114169
      dz2     :     0.002928  d :     0.028699
      dxz     :     0.002986
      dyz     :     0.005425
      dx2y2   :     0.008880
      dxy     :     0.008480
 67 H s       :     0.710763  s :     0.710763
      pz      :     0.073997  p :     0.263558
      px      :     0.122975
      py      :     0.066586
      dz2     :     0.002790  d :     0.028579
      dxz     :     0.008104
      dyz     :     0.000151
      dx2y2   :     0.008660
      dxy     :     0.008873


                      *****************************
                      * MAYER POPULATION ANALYSIS *
                      *****************************

  NA   - Mulliken gross atomic population
  ZA   - Total nuclear charge
  QA   - Mulliken gross atomic charge
  VA   - Mayer's total valence
  BVA  - Mayer's bonded valence
  FA   - Mayer's free valence

  ATOM       NA         ZA         QA         VA         BVA        FA
  0 Ru    18.1314    16.0000    -2.1314     5.0687     5.0687    -0.0000
  1 Cl    17.5763    17.0000    -0.5763     0.8337     0.8337     0.0000
  2 Cl    17.5748    17.0000    -0.5748     0.8308     0.8308    -0.0000
  3 P     14.5591    15.0000     0.4409     1.9261     1.9261    -0.0000
  4 C      4.9794     6.0000     1.0206     1.8167     1.8167     0.0000
  5 C      6.0552     6.0000    -0.0552     5.4085     5.4085    -0.0000
  6 C      6.2033     6.0000    -0.2033     4.5437     4.5437     0.0000
  7 C      6.1248     6.0000    -0.1248     4.1599     4.1599     0.0000
  8 C      5.9011     6.0000     0.0989     4.0696     4.0696     0.0000
  9 C      6.1882     6.0000    -0.1882     4.0800     4.0800    -0.0000
 10 C      5.7718     6.0000     0.2282     3.4320     3.4320     0.0000
 11 C      5.9484     6.0000     0.0516     5.0849     5.0849     0.0000
 12 C      6.0596     6.0000    -0.0596     3.8890     3.8890     0.0000
 13 C      6.1913     6.0000    -0.1913     4.3377     4.3377     0.0000
 14 C      5.8817     6.0000     0.1183     4.0428     4.0428     0.0000
 15 C      6.1754     6.0000    -0.1754     4.2715     4.2715    -0.0000
 16 C      5.6540     6.0000     0.3460     3.6267     3.6267    -0.0000
 17 C      5.8559     6.0000     0.1441     4.9979     4.9979     0.0000
 18 C      5.6556     6.0000     0.3444     3.5621     3.5621     0.0000
 19 C      6.1294     6.0000    -0.1294     4.2308     4.2308    -0.0000
 20 C      5.9562     6.0000     0.0438     4.1337     4.1337     0.0000
 21 C      6.0950     6.0000    -0.0950     4.1047     4.1047     0.0000
 22 C      6.2475     6.0000    -0.2475     4.6843     4.6843     0.0000
 23 H      0.6267     1.0000     0.3733     0.8309     0.8309     0.0000
 24 H      0.3129     1.0000     0.6871    -0.0600    -0.0600     0.0000
 25 H      0.9463     1.0000     0.0537     0.8225     0.8225     0.0000
 26 H      0.8854     1.0000     0.1146     0.8327     0.8327     0.0000
 27 H      1.0878     1.0000    -0.0878     0.9696     0.9696     0.0000
 28 H      0.9253     1.0000     0.0747     0.8876     0.8876     0.0000
 29 H      0.9325     1.0000     0.0675     0.8639     0.8639     0.0000
 30 H      1.0592     1.0000    -0.0592     1.0025     1.0025     0.0000
 31 H      1.0797     1.0000    -0.0797     0.9788     0.9788     0.0000
 32 H      0.9164     1.0000     0.0836     0.8796     0.8796     0.0000
 33 H      1.2184     1.0000    -0.2184     1.2686     1.2686    -0.0000
 34 H      0.8164     1.0000     0.1836     0.7190     0.7190     0.0000
 35 H      0.3714     1.0000     0.6286    -0.1789    -0.1789    -0.0000
 36 H      1.0361     1.0000    -0.0361     1.0662     1.0662     0.0000
 37 H      0.8717     1.0000     0.1283     0.7599     0.7599    -0.0000
 38 H      0.9618     1.0000     0.0382     0.9011     0.9011     0.0000
 39 H      1.0744     1.0000    -0.0744     0.9598     0.9598     0.0000
 40 H      1.0697     1.0000    -0.0697     1.0098     1.0098    -0.0000
 41 H      0.9391     1.0000     0.0609     0.8671     0.8671     0.0000
 42 H      0.9447     1.0000     0.0553     0.8898     0.8898     0.0000
 43 H      1.0739     1.0000    -0.0739     0.9642     0.9642    -0.0000
 44 H      0.8459     1.0000     0.1541     0.7657     0.7657    -0.0000
 45 H      1.2737     1.0000    -0.2737     1.1161     1.1161     0.0000
 46 H      0.5856     1.0000     0.4144     0.3738     0.3738     0.0000
 47 H      0.9546     1.0000     0.0454     0.8797     0.8797     0.0000
 48 H      1.1301     1.0000    -0.1301     1.1707     1.1707    -0.0000
 49 H      1.0705     1.0000    -0.0705     0.9611     0.9611    -0.0000
 50 H      0.9258     1.0000     0.0742     0.8878     0.8878    -0.0000
 51 H      0.9250     1.0000     0.0750     0.8711     0.8711     0.0000
 52 H      1.0692     1.0000    -0.0692     1.0164     1.0164    -0.0000
 53 H      1.0650     1.0000    -0.0650     0.9881     0.9881     0.0000
 54 H      0.9620     1.0000     0.0380     0.9050     0.9050    -0.0000
 55 H      0.8200     1.0000     0.1800     0.5921     0.5921     0.0000
 56 H      0.8816     1.0000     0.1184     0.8311     0.8311     0.0000
 57 C      5.7982     6.0000     0.2018     2.2602     2.2602     0.0000
 58 C      6.1981     6.0000    -0.1981     3.2140     3.2140     0.0000
 59 C      6.3099     6.0000    -0.3099     3.4593     3.4593    -0.0000
 60 C      6.1266     6.0000    -0.1266     3.3941     3.3941    -0.0000
 61 C      6.4428     6.0000    -0.4428     3.5960     3.5960    -0.0000
 62 C      6.0054     6.0000    -0.0054     3.0766     3.0766    -0.0000
 63 H      0.9261     1.0000     0.0739     1.0035     1.0035     0.0000
 64 H      0.9181     1.0000     0.0819     0.9673     0.9673    -0.0000
 65 H      0.9398     1.0000     0.0602     0.9873     0.9873    -0.0000
 66 H      0.8662     1.0000     0.1338     0.8267     0.8267    -0.0000
 67 H      0.8942     1.0000     0.1058     0.9458     0.9458    -0.0000

  Mayer bond orders larger than 0.100000
B(  0-Ru,  1-Cl) :   1.9573 B(  0-Ru,  2-Cl) :   1.8841 B(  0-Ru,  3-P ) :  -0.7257 
B(  0-Ru,  4-C ) :   1.2864 B(  0-Ru,  5-C ) :   0.3029 B(  0-Ru, 11-C ) :   0.3417 
B(  0-Ru, 12-C ) :   0.1001 B(  0-Ru, 16-C ) :  -0.1258 B(  0-Ru, 18-C ) :  -0.1056 
B(  0-Ru, 22-C ) :   0.2699 B(  0-Ru, 24-H ) :  -0.1019 B(  0-Ru, 55-H ) :  -0.1234 
B(  0-Ru, 57-C ) :  -0.2120 B(  0-Ru, 62-C ) :   0.1483 B(  1-Cl,  3-P ) :  -0.9554 
B(  1-Cl,  4-C ) :  -0.1249 B(  1-Cl, 22-C ) :   0.1019 B(  1-Cl, 36-H ) :   0.1815 
B(  1-Cl, 55-H ) :  -0.1500 B(  1-Cl, 57-C ) :  -0.2899 B(  2-Cl,  3-P ) :  -0.7625 
B(  2-Cl,  4-C ) :  -0.3223 B(  2-Cl,  6-C ) :   0.1530 B(  2-Cl, 22-C ) :   0.1132 
B(  2-Cl, 46-H ) :  -0.1187 B(  3-P ,  5-C ) :   0.9597 B(  3-P ,  6-C ) :   0.5868 
B(  3-P , 10-C ) :  -0.2199 B(  3-P , 11-C ) :   0.7591 B(  3-P , 12-C ) :   0.8442 
B(  3-P , 15-C ) :  -0.1677 B(  3-P , 16-C ) :   0.2272 B(  3-P , 17-C ) :   0.6891 
B(  3-P , 18-C ) :   0.4843 B(  3-P , 22-C ) :   0.3456 B(  3-P , 24-H ) :   0.2065 
B(  3-P , 35-H ) :  -0.4228 B(  3-P , 36-H ) :  -0.1132 B(  3-P , 45-H ) :   0.1079 
B(  3-P , 48-H ) :   0.1047 B(  3-P , 55-H ) :   0.1204 B(  3-P , 57-C ) :  -0.1080 
B(  4-C , 10-C ) :   0.1017 B(  4-C , 23-H ) :   0.6704 B(  4-C , 57-C ) :   0.8514 
B(  4-C , 58-C ) :  -0.5484 B(  4-C , 61-C ) :  -0.1512 B(  4-C , 62-C ) :   0.1303 
B(  4-C , 63-H ) :  -0.1176 B(  5-C ,  6-C ) :   1.1111 B(  5-C ,  7-C ) :   0.4349 
B(  5-C ,  9-C ) :   0.3458 B(  5-C , 10-C ) :   1.0722 B(  5-C , 11-C ) :   0.1380 
B(  5-C , 16-C ) :   0.1362 B(  5-C , 18-C ) :   0.1589 B(  5-C , 24-H ) :   0.3658 
B(  6-C ,  7-C ) :   0.8613 B(  6-C ,  8-C ) :   0.1578 B(  6-C , 11-C ) :   0.1209 
B(  6-C , 17-C ) :   0.2190 B(  6-C , 25-H ) :   0.6927 B(  6-C , 26-H ) :   0.8143 
B(  7-C ,  8-C ) :   0.9191 B(  7-C ,  9-C ) :   0.1470 B(  7-C , 27-H ) :   0.9410 
B(  7-C , 28-H ) :   0.9076 B(  8-C ,  9-C ) :   0.9201 B(  8-C , 10-C ) :   0.1516 
B(  8-C , 29-H ) :   0.9056 B(  8-C , 30-H ) :   0.9369 B(  9-C , 10-C ) :   0.6201 
B(  9-C , 31-H ) :   0.8787 B(  9-C , 32-H ) :   0.9187 B(  9-C , 33-H ) :   0.3769 
B(  9-C , 34-H ) :  -0.1288 B( 10-C , 33-H ) :   0.8564 B( 10-C , 34-H ) :   0.8554 
B( 11-C , 12-C ) :   0.6627 B( 11-C , 13-C ) :   0.4851 B( 11-C , 15-C ) :   0.4386 
B( 11-C , 16-C ) :   1.1509 B( 11-C , 17-C ) :   0.2623 B( 11-C , 18-C ) :  -0.1338 
B( 11-C , 22-C ) :   0.1205 B( 11-C , 35-H ) :   0.5611 B( 12-C , 13-C ) :   0.8142 
B( 12-C , 14-C ) :   0.1330 B( 12-C , 16-C ) :  -0.1326 B( 12-C , 35-H ) :  -0.1046 
B( 12-C , 36-H ) :   0.6526 B( 12-C , 37-H ) :   0.8290 B( 13-C , 14-C ) :   0.9024 
B( 13-C , 15-C ) :   0.1692 B( 13-C , 36-H ) :   0.1554 B( 13-C , 38-H ) :   0.9307 
B( 13-C , 39-H ) :   0.8877 B( 14-C , 15-C ) :   0.9275 B( 14-C , 16-C ) :   0.1135 
B( 14-C , 40-H ) :   0.9408 B( 14-C , 41-H ) :   0.9116 B( 15-C , 16-C ) :   0.7459 
B( 15-C , 42-H ) :   0.8613 B( 15-C , 43-H ) :   0.9134 B( 15-C , 45-H ) :   0.3051 
B( 16-C , 17-C ) :   0.1028 B( 16-C , 35-H ) :  -0.1813 B( 16-C , 44-H ) :   0.8516 
B( 16-C , 45-H ) :   0.7204 B( 17-C , 18-C ) :   0.8372 B( 17-C , 19-C ) :   0.4040 
B( 17-C , 21-C ) :   0.3570 B( 17-C , 22-C ) :   0.9291 B( 17-C , 46-H ) :   0.7139 
B( 17-C , 55-H ) :   0.1804 B( 18-C , 19-C ) :   0.7474 B( 18-C , 20-C ) :   0.1684 
B( 18-C , 47-H ) :   0.8950 B( 18-C , 48-H ) :   0.7868 B( 19-C , 20-C ) :   0.9330 
B( 19-C , 21-C ) :   0.1334 B( 19-C , 48-H ) :   0.2457 B( 19-C , 49-H ) :   0.9007 
B( 19-C , 50-H ) :   0.9174 B( 20-C , 21-C ) :   0.9094 B( 20-C , 22-C ) :   0.1936 
B( 20-C , 51-H ) :   0.9221 B( 20-C , 52-H ) :   0.9266 B( 21-C , 22-C ) :   0.9654 
B( 21-C , 53-H ) :   0.9335 B( 21-C , 54-H ) :   0.9039 B( 22-C , 55-H ) :   0.6985 
B( 22-C , 56-H ) :   0.9129 B( 23-H , 57-C ) :   0.1727 B( 57-C , 58-C ) :   1.4541 
B( 57-C , 62-C ) :   0.4919 B( 57-C , 66-H ) :  -0.1791 B( 58-C , 59-C ) :   1.1979 
B( 58-C , 63-H ) :   1.1004 B( 59-C , 60-C ) :   1.2602 B( 59-C , 64-H ) :   1.0526 
B( 60-C , 61-C ) :   1.1855 B( 60-C , 67-H ) :   1.0328 B( 61-C , 62-C ) :   1.3616 
B( 61-C , 65-H ) :   1.0801 B( 62-C , 66-H ) :   1.0327 

-------
TIMINGS
-------

Total SCF time: 0 days 0 hours 1 min 59 sec 

Total time                  ....     119.011 sec
Sum of individual times     ....     114.840 sec  ( 96.5%)

Fock matrix formation       ....      89.028 sec  ( 74.8%)
  Split-RI-J                ....      34.016 sec  ( 38.2% of F)
  XC integration            ....      52.404 sec  ( 58.9% of F)
    Basis function eval.    ....       4.404 sec  (  8.4% of XC)
    Density eval.           ....      22.511 sec  ( 43.0% of XC)
    XC-Functional eval.     ....       0.278 sec  (  0.5% of XC)
    XC-Potential eval.      ....      19.031 sec  ( 36.3% of XC)
Diagonalization             ....       8.143 sec  (  6.8%)
Density matrix formation    ....       0.607 sec  (  0.5%)
Population analysis         ....       0.956 sec  (  0.8%)
Initial guess               ....       4.429 sec  (  3.7%)
Orbital Transformation      ....       0.000 sec  (  0.0%)
Orbital Orthonormalization  ....       0.000 sec  (  0.0%)
DIIS solution               ....       9.846 sec  (  8.3%)
Grid generation             ....       1.831 sec  (  1.5%)


-------------------------------------------------------------------------------
                          DFT DISPERSION CORRECTION                            
                                                                               
                              DFTD3 V3.1  Rev 1                                
                          USING Becke-Johnson damping                          
-------------------------------------------------------------------------------
The TPSS functional is recognized
Active option DFTDOPT                   ...         4   

molecular C6(AA) [au] = 53101.588890 


            DFT-D V3
 parameters
 s6 scaling factor         :     1.0000 
 a1 scaling factor         :     0.4535 
 s8 scaling factor         :     1.9435 
 a2 scaling factor         :     4.4752 
 ad hoc parameters k1-k3   :    16.0000     1.3333    -4.0000 

 Edisp/kcal,au: -90.607069235939  -0.144391540392 
 E6   /kcal   : -44.433243952 
 E8   /kcal   : -46.173825284 
 % E8         :  50.960510778 

-------------------------   ----------------
Dispersion correction           -0.144391540
-------------------------   ----------------


-------------------------   --------------------
FINAL SINGLE POINT ENERGY     -2333.731694991894
-------------------------   --------------------


                            ***************************************
                            *     ORCA property calculations      *
                            ***************************************

                                    ---------------------
                                    Active property flags
                                    ---------------------
   (+) Dipole Moment


------------------------------------------------------------------------------
                       ORCA ELECTRIC PROPERTIES CALCULATION
------------------------------------------------------------------------------

Dipole Moment Calculation                       ... on
Quadrupole Moment Calculation                   ... off
Polarizability Calculation                      ... off
GBWName                                         ... MOR13_ed24.gbw
Electron density file                           ... MOR13_ed24.scfp
The origin for moment calculation is the CENTER OF MASS  = ( 0.178495, -0.123193 -0.110374)

-------------
DIPOLE MOMENT
-------------
                                X             Y             Z
Electronic contribution:     94.49361     -73.95192     -66.36479
Nuclear contribution   :    -95.45400      75.19378      67.48059
                        -----------------------------------------
Total Dipole Moment    :     -0.96039       1.24186       1.11580
                        -----------------------------------------
Magnitude (a.u.)       :      1.92602
Magnitude (Debye)      :      4.89557



--------------------
Rotational spectrum 
--------------------
 
Rotational constants in cm-1:     0.004948     0.003136     0.003087 
Rotational constants in MHz :   148.341837    94.004802    92.554473 

 Dipole components along the rotational axes: 
x,y,z [a.u.] :    -0.994828     1.289066    -1.028688 
x,y,z [Debye]:    -2.528652     3.276545    -2.614716 

 

Timings for individual modules:

Sum of individual times         ...      129.454 sec (=   2.158 min)
GTO integral calculation        ...        9.981 sec (=   0.166 min)   7.7 %
SCF iterations                  ...      119.473 sec (=   1.991 min)  92.3 %
                             ****ORCA TERMINATED NORMALLY****
TOTAL RUN TIME: 0 days 0 hours 2 minutes 10 seconds 519 msec
