
                                 *****************
                                 * O   R   C   A *
                                 *****************

           --- An Ab Initio, DFT and Semiempirical electronic structure package ---

                  #######################################################
                  #                        -***-                        #
                  #          Department of theory and spectroscopy      #
                  #               Directorship: Frank Neese             #
                  #        Max Planck Institute fuer Kohlenforschung    #
                  #                Kaiser Wilhelm Platz 1               #
                  #                 D-45470 Muelheim/Ruhr               #
                  #                      Germany                        #
                  #                                                     #
                  #                  All rights reserved                #
                  #                        -***-                        #
                  #######################################################


                         Program Version 4.2.0 -  RELEASE  -


 With contributions from (in alphabetic order):
   Daniel Aravena         : Magnetic Suceptibility
   Michael Atanasov       : Ab Initio Ligand Field Theory (pilot matlab implementation)
   Alexander A. Auer      : GIAO ZORA, VPT2
   Ute Becker             : Parallelization
   Giovanni Bistoni       : ED, misc. LED, open-shell LED, HFLED
   Martin Brehm           : Molecular dynamics
   Dmytro Bykov           : SCF Hessian
   Vijay G. Chilkuri      : MRCI spin determinant printing, contributions to CSF-ICE
   Dipayan Datta          : RHF DLPNO-CCSD density
   Achintya Kumar Dutta   : EOM-CC, STEOM-CC
   Dmitry Ganyushin       : Spin-Orbit,Spin-Spin,Magnetic field MRCI
   Miquel Garcia          : C-PCM Hessian, Gaussian charge scheme
   Yang Guo               : DLPNO-NEVPT2, CIM, IAO-localization
   Andreas Hansen         : Spin unrestricted coupled pair/coupled cluster methods
   Benjamin Helmich-Paris : CASSCF linear response (MC-RPA)
   Lee Huntington         : MR-EOM, pCC
   Robert Izsak           : Overlap fitted RIJCOSX, COSX-SCS-MP3, EOM
   Christian Kollmar      : KDIIS, OOCD, Brueckner-CCSD(T), CCSD density
   Simone Kossmann        : Meta GGA functionals, TD-DFT gradient, OOMP2, MP2 Hessian
   Martin Krupicka        : AUTO-CI
   Lucas Lang             : DCDCAS
   Dagmar Lenk            : GEPOL surface, SMD
   Dimitrios Liakos       : Extrapolation schemes; Compound Job, initial MDCI parallelization
   Dimitrios Manganas     : Further ROCIS development; embedding schemes
   Dimitrios Pantazis     : SARC Basis sets
   Taras Petrenko         : DFT Hessian,TD-DFT gradient, ASA, ECA, R-Raman, ABS, FL, XAS/XES, NRVS
   Peter Pinski           : DLPNO-MP2, DLPNO-MP2 Gradient
   Christoph Reimann      : Effective Core Potentials
   Marius Retegan         : Local ZFS, SOC
   Christoph Riplinger    : Optimizer, TS searches, QM/MM, DLPNO-CCSD(T), (RO)-DLPNO pert. Triples
   Tobias Risthaus        : Range-separated hybrids, TD-DFT gradient, RPA, STAB
   Michael Roemelt        : Original ROCIS implementation
   Masaaki Saitow         : Open-shell DLPNO-CCSD energy and density
   Barbara Sandhoefer     : DKH picture change effects
   Avijit Sen             : IP-ROCIS
   Kantharuban Sivalingam : CASSCF convergence, NEVPT2, FIC-MRCI
   Bernardo de Souza      : ESD, SOC TD-DFT
   Georgi Stoychev        : AutoAux, RI-MP2 NMR
   Willem Van den Heuvel  : Paramagnetic NMR
   Boris Wezisla          : Elementary symmetry handling
   Frank Wennmohs         : Technical directorship


 We gratefully acknowledge several colleagues who have allowed us to
 interface, adapt or use parts of their codes:
   Stefan Grimme, W. Hujo, H. Kruse,             : VdW corrections, initial TS optimization,
                  C. Bannwarth                     DFT functionals, gCP, sTDA/sTD-DF
   Ed Valeev, F. Pavosevic, A. Kumar             : LibInt (2-el integral package), F12 methods
   Garnet Chan, S. Sharma, J. Yang, R. Olivares  : DMRG
   Ulf Ekstrom                                   : XCFun DFT Library
   Mihaly Kallay                                 : mrcc  (arbitrary order and MRCC methods)
   Andreas Klamt, Michael Diedenhofen            : otool_cosmo (COSMO solvation model)
   Jiri Pittner, Ondrej Demel                    : Mk-CCSD
   Frank Weinhold                                : gennbo (NPA and NBO analysis)
   Christopher J. Cramer and Donald G. Truhlar   : smd solvation model
   Lars Goerigk                                  : TD-DFT with DH, B97 family of functionals
   V. Asgeirsson, H. Jonsson                     : NEB implementation
   FAccTs GmbH                                   : IRC, NEB, NEB-TS, Multilevel, MM, QM/MM, CI optimization
   S Lehtola, MJT Oliveira, MAL Marques          : LibXC Library


 Your calculation uses the libint2 library for the computation of 2-el integrals
 For citations please refer to: http://libint.valeyev.net

 Your ORCA version has been built with support for libXC version: 4.2.3
 For citations please refer to: https://tddft.org/programs/libxc/

 This ORCA versions uses:
   CBLAS   interface :  Fast vector & matrix operations
   LAPACKE interface :  Fast linear algebra routines
   SCALAPACK package :  Parallel linear algebra routines


Your calculation utilizes the atom-pairwise dispersion correction
with the Becke-Johnson damping scheme (D3BJ)
Cite in your paper:
S.Grimme, S.Ehrlich, L.Goerigk, J Comput Chem, (2011), 32, 1456–1465 
S.Grimme, J.Antony, S.Ehrlich and H.Krieg, J.Chem.Phys., 132, (2010), 154104 
   

----- Orbital basis set information -----
Your calculation utilizes the basis: def2-TZVPPD
   F. Weigend and R. Ahlrichs, Phys. Chem. Chem. Phys. 7, 3297 (2005).
   D. Rappoport and F. Furche, J. Chem. Phys. 133 134105 (2010).

----- AuxJ basis set information -----
Your calculation utilizes the auxiliary basis: def2/J
   F. Weigend, Phys. Chem. Chem. Phys. 8, 1057 (2006).

================================================================================
                                        WARNINGS
                       Please study these warnings very carefully!
================================================================================


INFO   : the flag for use of LIBINT has been found!

================================================================================
                                       INPUT FILE
================================================================================
NAME = MOR21_mecn.in
|  1> #
|  2> # MOR21_mecn TPSS-D3BJ/Def2-TZVPPD
|  3> #
|  4> ! tpss d3bj def2-tzvppd def2/j grid4 nofinalgrid
|  5> 
|  6> *xyz 0 1
|  7> N        1.434594    0.083513   -0.053227 
|  8> C        0.278345    0.016206   -0.010325 
|  9> C       -1.176577   -0.068494    0.043652 
| 10> H       -1.556498   -0.572512   -0.849824 
| 11> H       -1.609231    0.934929    0.094890 
| 12> H       -1.487035   -0.633283    0.927565 
| 13> *
| 14> 
| 15> %maxcore 5000
| 16> 
| 17> %pal
| 18> nprocs = 24
| 19> end
| 20> 
| 21> 
| 22>                          ****END OF INPUT****
================================================================================

                       ****************************
                       * Single Point Calculation *
                       ****************************

---------------------------------
CARTESIAN COORDINATES (ANGSTROEM)
---------------------------------
  N      1.434594    0.083513   -0.053227
  C      0.278345    0.016206   -0.010325
  C     -1.176577   -0.068494    0.043652
  H     -1.556498   -0.572512   -0.849824
  H     -1.609231    0.934929    0.094890
  H     -1.487035   -0.633283    0.927565

----------------------------
CARTESIAN COORDINATES (A.U.)
----------------------------
  NO LB      ZA    FRAG     MASS         X           Y           Z
   0 N     7.0000    0    14.007    2.710990    0.157817   -0.100584
   1 C     6.0000    0    12.011    0.525996    0.030625   -0.019511
   2 C     6.0000    0    12.011   -2.223408   -0.129435    0.082490
   3 H     1.0000    0     1.008   -2.941355   -1.081891   -1.605935
   4 H     1.0000    0     1.008   -3.041006    1.766760    0.179316
   5 H     1.0000    0     1.008   -2.810089   -1.196731    1.752844

--------------------------------
INTERNAL COORDINATES (ANGSTROEM)
--------------------------------
 N      0   0   0     0.000000000000     0.00000000     0.00000000
 C      1   0   0     1.159000674656     0.00000000     0.00000000
 C      2   1   0     1.458384596947   179.99961392     0.00000000
 H      3   2   1     1.093925716464   110.06008476   344.27382145
 H      3   2   1     1.093925286886   110.06143026   224.27296768
 H      3   2   1     1.093925489169   110.06093723   104.27391271

---------------------------
INTERNAL COORDINATES (A.U.)
---------------------------
 N      0   0   0     0.000000000000     0.00000000     0.00000000
 C      1   0   0     2.190193864131     0.00000000     0.00000000
 C      2   1   0     2.755947486159   179.99961392     0.00000000
 H      3   2   1     2.067220014970   110.06008476   344.27382145
 H      3   2   1     2.067219203186   110.06143026   224.27296768
 H      3   2   1     2.067219585446   110.06093723   104.27391271

---------------------
BASIS SET INFORMATION
---------------------
There are 3 groups of distinct atoms

 Group   1 Type N   : 12s6p3d1f contracted to 6s3p3d1f pattern {621111/411/111/1}
 Group   2 Type C   : 12s6p3d1f contracted to 6s3p3d1f pattern {621111/411/111/1}
 Group   3 Type H   : 5s3p1d contracted to 3s3p1d pattern {311/111/1}

Atom   0N    basis set group =>   1
Atom   1C    basis set group =>   2
Atom   2C    basis set group =>   2
Atom   3H    basis set group =>   3
Atom   4H    basis set group =>   3
Atom   5H    basis set group =>   3
---------------------------------
AUXILIARY/J BASIS SET INFORMATION
---------------------------------
There are 3 groups of distinct atoms

 Group   1 Type N   : 12s5p4d2f1g contracted to 6s4p3d1f1g pattern {711111/2111/211/2/1}
 Group   2 Type C   : 12s5p4d2f1g contracted to 6s4p3d1f1g pattern {711111/2111/211/2/1}
 Group   3 Type H   : 5s2p1d contracted to 3s1p1d pattern {311/2/1}

Atom   0N    basis set group =>   1
Atom   1C    basis set group =>   2
Atom   2C    basis set group =>   2
Atom   3H    basis set group =>   3
Atom   4H    basis set group =>   3
Atom   5H    basis set group =>   3


           ************************************************************
           *        Program running with 24 parallel MPI-processes    *
           *              working on a common directory               *
           ************************************************************
------------------------------------------------------------------------------
                           ORCA GTO INTEGRAL CALCULATION
                           -- RI-GTO INTEGRALS CHOSEN --
------------------------------------------------------------------------------

                         BASIS SET STATISTICS AND STARTUP INFO

Gaussian basis set:
 # of primitive gaussian shells          ...   93
 # of primitive gaussian functions       ...  213
 # of contracted shells                  ...   60
 # of contracted basis functions         ...  162
 Highest angular momentum                ...    3
 Maximum contraction depth               ...    6
Auxiliary gaussian basis set:
 # of primitive gaussian shells          ...   96
 # of primitive gaussian functions       ...  258
 # of contracted shells                  ...   60
 # of contracted aux-basis functions     ...  180
 Highest angular momentum                ...    4
 Maximum contraction depth               ...    7
Ratio of auxiliary to basis functions    ...  1.11
Integral package used                  ... LIBINT
 One Electron integrals                  ... done
 Ordering auxiliary basis shells         ... done
 Integral threshhold             Thresh  ...  1.000e-10
 Primitive cut-off               TCut    ...  1.000e-11
 Pre-screening matrix                    ... done
 Shell pair data                         ... 
 Ordering of the shell pairs             ... done (   0.000 sec) 1808 of 1830 pairs
 Determination of significant pairs      ... done (   0.000 sec)
 Creation of shell pair data             ... done (   0.000 sec)
 Storage of shell pair data              ... done (   0.044 sec)
 Shell pair data done in (   0.045 sec)
 Computing two index integrals           ... done
 Cholesky decomposition of the V-matrix  ... done


Timings:
 Total evaluation time                   ...   0.252 sec (  0.004 min)
 One electron matrix time                ...   0.021 sec (  0.000 min) =  8.1%
 Schwartz matrix evaluation time         ...   0.095 sec (  0.002 min) = 37.8%
 Two index repulsion integral time       ...   0.001 sec (  0.000 min) =  0.4%
 Cholesky decomposition of V             ...   0.066 sec (  0.001 min) = 26.0%
 Three index repulsion integral time     ...   0.000 sec (  0.000 min) =  0.0%



           ************************************************************
           *        Program running with 24 parallel MPI-processes    *
           *              working on a common directory               *
           ************************************************************
-------------------------------------------------------------------------------
                                 ORCA SCF
-------------------------------------------------------------------------------

------------
SCF SETTINGS
------------
Hamiltonian:
 Density Functional     Method          .... DFT(GTOs)
 Exchange Functional    Exchange        .... TPSS
 Correlation Functional Correlation     .... TPSS
 LDA part of GGA corr.  LDAOpt          .... PW91-LDA
 Gradients option       PostSCFGGA      .... off
   Density functional embedding theory  .... OFF
   NL short-range parameter             ....  5.000000
 RI-approximation to the Coulomb term is turned on
   Number of auxiliary basis functions  .... 180


General Settings:
 Integral files         IntName         .... MOR21_mecn
 Hartree-Fock type      HFTyp           .... RHF
 Total Charge           Charge          ....    0
 Multiplicity           Mult            ....    1
 Number of Electrons    NEL             ....   22
 Basis Dimension        Dim             ....  162
 Nuclear Repulsion      ENuc            ....     58.3736252895 Eh

Convergence Acceleration:
 DIIS                   CNVDIIS         .... on
   Start iteration      DIISMaxIt       ....    12
   Startup error        DIISStart       ....  0.200000
   # of expansion vecs  DIISMaxEq       ....     5
   Bias factor          DIISBfac        ....   1.050
   Max. coefficient     DIISMaxC        ....  10.000
 Newton-Raphson         CNVNR           .... off
 SOSCF                  CNVSOSCF        .... on
   Start iteration      SOSCFMaxIt      ....   150
   Startup grad/error   SOSCFStart      ....  0.003300
 Level Shifting         CNVShift        .... on
   Level shift para.    LevelShift      ....    0.2500
   Turn off err/grad.   ShiftErr        ....    0.0010
 Zerner damping         CNVZerner       .... off
 Static damping         CNVDamp         .... on
   Fraction old density DampFac         ....    0.7000
   Max. Damping (<1)    DampMax         ....    0.9800
   Min. Damping (>=0)   DampMin         ....    0.0000
   Turn off err/grad.   DampErr         ....    0.1000
 Fernandez-Rico         CNVRico         .... off

SCF Procedure:
 Maximum # iterations   MaxIter         ....   125
 SCF integral mode      SCFMode         .... Direct
   Integral package                     .... LIBINT
 Reset frequency        DirectResetFreq ....    20
 Integral Threshold     Thresh          ....  1.000e-10 Eh
 Primitive CutOff       TCut            ....  1.000e-11 Eh

Convergence Tolerance:
 Convergence Check Mode ConvCheckMode   .... Total+1el-Energy
 Convergence forced     ConvForced      .... 0
 Energy Change          TolE            ....  1.000e-06 Eh
 1-El. energy change                    ....  1.000e-03 Eh
 Orbital Gradient       TolG            ....  5.000e-05
 Orbital Rotation angle TolX            ....  5.000e-05
 DIIS Error             TolErr          ....  1.000e-06


Diagonalization of the overlap matrix:
Smallest eigenvalue                        ... 1.197e-05
Time for diagonalization                   ...    0.005 sec
Threshold for overlap eigenvalues          ... 1.000e-08
Number of eigenvalues below threshold      ... 0
Time for construction of square roots      ...    0.003 sec
Total time needed                          ...    0.008 sec

-------------------
DFT GRID GENERATION
-------------------

General Integration Accuracy     IntAcc      ...  4.670
Radial Grid Type                 RadialGrid  ... Gauss-Chebyshev
Angular Grid (max. acc.)         AngularGrid ... Lebedev-302
Angular grid pruning method      GridPruning ... 3 (G Style)
Weight generation scheme         WeightScheme... Becke
Basis function cutoff            BFCut       ...    1.0000e-10
Integration weight cutoff        WCut        ...    1.0000e-14
Grids for H and He will be reduced by one unit

# of grid points (after initial pruning)     ...  28818 (   0.0 sec)
# of grid points (after weights+screening)   ...  27867 (   0.0 sec)
nearest neighbour list constructed           ...    0.0 sec
Grid point re-assignment to atoms done       ...    0.0 sec
Grid point division into batches done        ...    0.1 sec
Reduced shell lists constructed in    0.1 sec

Total number of grid points                  ...    27867
Total number of batches                      ...      439
Average number of points per batch           ...       63
Average number of grid points per atom       ...     4644
Average number of shells per batch           ...    14.10 (23.50%)
Average number of basis functions per batch  ...    34.50 (21.30%)
Average number of large shells per batch     ...     9.20 (65.25%)
Average number of large basis fcns per batch ...    23.40 (67.83%)
Maximum spatial batch extension              ...  15.83, 19.48, 16.05 au
Average spatial batch extension              ...   0.49,  0.59,  0.55 au

Time for grid setup =    0.167 sec

------------------------------
INITIAL GUESS: MODEL POTENTIAL
------------------------------
Loading Hartree-Fock densities                     ... done
Calculating cut-offs                               ... done
Setting up the integral package                    ... done
Initializing the effective Hamiltonian             ... done
Starting the Coulomb interaction                   ... done (   0.0 sec)
Reading the grid                                   ... done
Mapping shells                                     ... done
Starting the XC term evaluation                    ... done (   0.0 sec)
  promolecular density results
     # of electrons  =     21.998529606
     EX              =    -17.559347169
     EC              =     -0.692814598
     EX+EC           =    -18.252161767
Transforming the Hamiltonian                       ... done (   0.0 sec)
Diagonalizing the Hamiltonian                      ... done (   0.0 sec)
Back transforming the eigenvectors                 ... done (   0.0 sec)
Now organizing SCF variables                       ... done
                      ------------------
                      INITIAL GUESS DONE (   0.3 sec)
                      ------------------
--------------
SCF ITERATIONS
--------------
ITER       Energy         Delta-E        Max-DP      RMS-DP      [F,P]     Damp
               ***  Starting incremental Fock matrix formation  ***
  0   -132.7100350870   0.000000000000 0.11548567  0.00201385  0.2712497 0.7000
  1   -132.7721516708  -0.062116583826 0.06804516  0.00144620  0.0805786 0.7000
                               ***Turning on DIIS***
  2   -132.7883116943  -0.016160023519 0.10161767  0.00248098  0.0438021 0.0000
  3   -132.8224175029  -0.034105808556 0.04102807  0.00085970  0.0498072 0.0000
  4   -132.8272951543  -0.004877651385 0.00747327  0.00025416  0.0414335 0.0000
  5   -132.8293180507  -0.002022896461 0.00460715  0.00011199  0.0089270 0.0000
                      *** Initiating the SOSCF procedure ***
                           *** Shutting down DIIS ***
                      *** Re-Reading the Fockian *** 
                      *** Removing any level shift *** 
ITER      Energy       Delta-E        Grad      Rot      Max-DP    RMS-DP
  6   -132.82941777  -0.0000997228  0.000288  0.000288  0.003010  0.000055
               *** Restarting incremental Fock matrix formation ***
  7   -132.82942220  -0.0000044246  0.000176  0.000603  0.001503  0.000035
  8   -132.82942077   0.0000014242  0.000527  0.000431  0.000676  0.000011
  9   -132.82942249  -0.0000017119  0.000056  0.000072  0.000344  0.000008
                 **** Energy Check signals convergence ****
              ***Rediagonalizing the Fockian in SOSCF/NRSCF***

               *****************************************************
               *                     SUCCESS                       *
               *           SCF CONVERGED AFTER  10 CYCLES          *
               *****************************************************


----------------
TOTAL SCF ENERGY
----------------

Total Energy       :         -132.82942244 Eh           -3614.47234 eV

Components:
Nuclear Repulsion  :           58.37362529 Eh            1588.42710 eV
Electronic Energy  :         -191.20304773 Eh           -5202.89944 eV
One Electron Energy:         -293.49378107 Eh           -7986.37180 eV
Two Electron Energy:          102.29073334 Eh            2783.47236 eV

Virial components:
Potential Energy   :         -265.04758094 Eh           -7212.31134 eV
Kinetic Energy     :          132.21815849 Eh            3597.83900 eV
Virial Ratio       :            2.00462315


DFT components:
N(Alpha)           :       10.999997685045 electrons
N(Beta)            :       10.999997685045 electrons
N(Total)           :       21.999995370089 electrons
E(X)               :      -18.138484668546 Eh       
E(C)               :       -0.705199547609 Eh       
E(XC)              :      -18.843684216155 Eh       
DFET-embed. en.    :        0.000000000000 Eh       

---------------
SCF CONVERGENCE
---------------

  Last Energy change         ...    4.3327e-08  Tolerance :   1.0000e-06
  Last MAX-Density change    ...    1.5581e-04  Tolerance :   1.0000e-05
  Last RMS-Density change    ...    3.8238e-06  Tolerance :   1.0000e-06
  Last Orbital Gradient      ...    8.0086e-05  Tolerance :   5.0000e-05
  Last Orbital Rotation      ...    4.8773e-05  Tolerance :   5.0000e-05

             **** THE GBW FILE WAS UPDATED (MOR21_mecn.gbw) ****
             **** DENSITY FILE WAS UPDATED (MOR21_mecn.scfp) ****
             **** ENERGY FILE WAS UPDATED (MOR21_mecn.en.tmp) ****
             **** THE GBW FILE WAS UPDATED (MOR21_mecn.gbw) ****
             **** DENSITY FILE WAS UPDATED (MOR21_mecn.scfp) ****
----------------
ORBITAL ENERGIES
----------------

  NO   OCC          E(Eh)            E(eV) 
   0   2.0000     -14.098990      -383.6530 
   1   2.0000     -10.044025      -273.3118 
   2   2.0000     -10.025323      -272.8029 
   3   2.0000      -0.842802       -22.9338 
   4   2.0000      -0.726544       -19.7703 
   5   2.0000      -0.477767       -13.0007 
   6   2.0000      -0.429310       -11.6821 
   7   2.0000      -0.429306       -11.6820 
   8   2.0000      -0.320111        -8.7107 
   9   2.0000      -0.298741        -8.1292 
  10   2.0000      -0.298741        -8.1292 
  11   0.0000      -0.016036        -0.4364 
  12   0.0000      -0.005827        -0.1586 
  13   0.0000      -0.005826        -0.1585 
  14   0.0000       0.040259         1.0955 
  15   0.0000       0.065344         1.7781 
  16   0.0000       0.065345         1.7781 
  17   0.0000       0.089343         2.4311 
  18   0.0000       0.096487         2.6255 
  19   0.0000       0.096507         2.6261 
  20   0.0000       0.144510         3.9323 
  21   0.0000       0.144516         3.9325 
  22   0.0000       0.148361         4.0371 
  23   0.0000       0.163432         4.4472 
  24   0.0000       0.224716         6.1148 
  25   0.0000       0.224730         6.1152 
  26   0.0000       0.227801         6.1988 
  27   0.0000       0.239391         6.5142 
  28   0.0000       0.241395         6.5687 
  29   0.0000       0.241426         6.5695 
  30   0.0000       0.258157         7.0248 
  31   0.0000       0.258173         7.0252 
  32   0.0000       0.265574         7.2266 
  33   0.0000       0.268890         7.3169 
  34   0.0000       0.317183         8.6310 
  35   0.0000       0.362975         9.8770 
  36   0.0000       0.363015         9.8781 
  37   0.0000       0.381960        10.3937 
  38   0.0000       0.381975        10.3941 
  39   0.0000       0.412986        11.2379 
  40   0.0000       0.440006        11.9732 
  41   0.0000       0.440034        11.9739 
  42   0.0000       0.448325        12.1995 
  43   0.0000       0.474991        12.9252 
  44   0.0000       0.475018        12.9259 
  45   0.0000       0.525809        14.3080 
  46   0.0000       0.537499        14.6261 
  47   0.0000       0.537524        14.6268 
  48   0.0000       0.582571        15.8526 
  49   0.0000       0.591860        16.1053 
  50   0.0000       0.591936        16.1074 
  51   0.0000       0.639198        17.3935 
  52   0.0000       0.639226        17.3942 
  53   0.0000       0.644890        17.5484 
  54   0.0000       0.680521        18.5179 
  55   0.0000       0.708419        19.2771 
  56   0.0000       0.708439        19.2776 
  57   0.0000       0.764320        20.7982 
  58   0.0000       0.794063        21.6076 
  59   0.0000       0.794082        21.6081 
  60   0.0000       0.817235        22.2381 
  61   0.0000       0.817265        22.2389 
  62   0.0000       0.854292        23.2465 
  63   0.0000       0.948181        25.8013 
  64   0.0000       0.962907        26.2020 
  65   0.0000       1.078587        29.3498 
  66   0.0000       1.078616        29.3506 
  67   0.0000       1.141897        31.0726 
  68   0.0000       1.141938        31.0737 
  69   0.0000       1.154088        31.4043 
  70   0.0000       1.219559        33.1859 
  71   0.0000       1.219630        33.1878 
  72   0.0000       1.245703        33.8973 
  73   0.0000       1.417267        38.5658 
  74   0.0000       1.417280        38.5662 
  75   0.0000       1.472370        40.0652 
  76   0.0000       1.483743        40.3747 
  77   0.0000       1.483772        40.3755 
  78   0.0000       1.530266        41.6407 
  79   0.0000       1.539124        41.8817 
  80   0.0000       1.539157        41.8826 
  81   0.0000       1.590211        43.2718 
  82   0.0000       1.656855        45.0853 
  83   0.0000       1.656933        45.0874 
  84   0.0000       1.784942        48.5707 
  85   0.0000       1.784950        48.5710 
  86   0.0000       1.829035        49.7706 
  87   0.0000       1.977285        53.8047 
  88   0.0000       2.108395        57.3723 
  89   0.0000       2.108408        57.3727 
  90   0.0000       2.286327        62.2141 
  91   0.0000       2.488444        67.7140 
  92   0.0000       2.532940        68.9248 
  93   0.0000       2.532943        68.9249 
  94   0.0000       2.542284        69.1791 
  95   0.0000       2.599189        70.7275 
  96   0.0000       2.613244        71.1100 
  97   0.0000       2.732487        74.3548 
  98   0.0000       2.732574        74.3571 
  99   0.0000       2.771242        75.4093 
 100   0.0000       2.771250        75.4095 
 101   0.0000       2.803929        76.2988 
 102   0.0000       2.874112        78.2086 
 103   0.0000       2.906582        79.0921 
 104   0.0000       2.906606        79.0928 
 105   0.0000       2.960945        80.5714 
 106   0.0000       2.960978        80.5723 
 107   0.0000       3.085154        83.9513 
 108   0.0000       3.085163        83.9516 
 109   0.0000       3.134526        85.2948 
 110   0.0000       3.134539        85.2952 
 111   0.0000       3.240037        88.1659 
 112   0.0000       3.277568        89.1872 
 113   0.0000       3.277580        89.1875 
 114   0.0000       3.338053        90.8330 
 115   0.0000       3.400009        92.5190 
 116   0.0000       3.484754        94.8250 
 117   0.0000       3.484834        94.8272 
 118   0.0000       3.518660        95.7476 
 119   0.0000       3.581040        97.4451 
 120   0.0000       3.581056        97.4455 
 121   0.0000       3.731927       101.5509 
 122   0.0000       3.916439       106.5717 
 123   0.0000       3.916484       106.5729 
 124   0.0000       3.967036       107.9485 
 125   0.0000       3.967213       107.9534 
 126   0.0000       3.987655       108.5096 
 127   0.0000       3.989240       108.5527 
 128   0.0000       3.989245       108.5529 
 129   0.0000       4.137801       112.5953 
 130   0.0000       4.168323       113.4258 
 131   0.0000       4.168333       113.4261 
 132   0.0000       4.223926       114.9389 
 133   0.0000       4.390540       119.4727 
 134   0.0000       4.390556       119.4731 
 135   0.0000       4.420590       120.2904 
 136   0.0000       4.602732       125.2467 
 137   0.0000       4.602744       125.2470 
 138   0.0000       4.718514       128.3973 
 139   0.0000       4.718518       128.3974 
 140   0.0000       4.803932       130.7216 
 141   0.0000       4.803957       130.7223 
 142   0.0000       4.825659       131.3129 
 143   0.0000       4.866472       132.4234 
 144   0.0000       5.168651       140.6461 
 145   0.0000       5.232303       142.3782 
 146   0.0000       5.232315       142.3785 
 147   0.0000       5.318261       144.7172 
 148   0.0000       5.318272       144.7175 
 149   0.0000       5.333020       145.1189 
 150   0.0000       5.436965       147.9473 
 151   0.0000       5.437030       147.9491 
 152   0.0000       5.558043       151.2420 
 153   0.0000       5.692863       154.9107 
 154   0.0000       5.692894       154.9115 
 155   0.0000       5.727994       155.8666 
 156   0.0000       5.848222       159.1382 
 157   0.0000       5.848246       159.1389 
 158   0.0000       6.129544       166.7934 
 159   0.0000      23.439972       637.8341 
 160   0.0000      23.617811       642.6733 
 161   0.0000      32.335413       879.8913 

                    ********************************
                    * MULLIKEN POPULATION ANALYSIS *
                    ********************************

-----------------------
MULLIKEN ATOMIC CHARGES
-----------------------
   0 N :   -0.191970
   1 C :   -0.054513
   2 C :    0.073416
   3 H :    0.057508
   4 H :    0.057855
   5 H :    0.057703
Sum of atomic charges:    0.0000000

--------------------------------
MULLIKEN REDUCED ORBITAL CHARGES
--------------------------------
  0 N s       :     4.040545  s :     4.040545
      pz      :     1.041449  p :     3.112733
      px      :     1.029837
      py      :     1.041447
      dz2     :     0.001319  d :     0.036743
      dxz     :     0.015724
      dyz     :     0.000036
      dx2y2   :     0.004021
      dxy     :     0.015641
      f0      :     0.000346  f :     0.001949
      f+1     :     0.000037
      f-1     :     0.000058
      f+2     :     0.000573
      f-2     :     0.000011
      f+3     :     0.000073
      f-3     :     0.000851
  1 C s       :     3.280435  s :     3.280435
      pz      :     0.892153  p :     2.648439
      px      :     0.864185
      py      :     0.892102
      dz2     :    -0.004096  d :     0.109743
      dxz     :     0.062690
      dyz     :     0.001513
      dx2y2   :    -0.013613
      dxy     :     0.063249
      f0      :     0.002240  f :     0.015895
      f+1     :     0.001472
      f-1     :     0.000374
      f+2     :     0.003691
      f-2     :     0.000098
      f+3     :     0.002466
      f-3     :     0.005554
  2 C s       :     3.006034  s :     3.006034
      pz      :     1.009213  p :     2.823282
      px      :     0.805279
      py      :     1.008790
      dz2     :     0.004116  d :     0.094289
      dxz     :     0.039838
      dyz     :     0.003911
      dx2y2   :     0.005768
      dxy     :     0.040656
      f0      :     0.000144  f :     0.002979
      f+1     :     0.000535
      f-1     :     0.000637
      f+2     :     0.000247
      f-2     :     0.000267
      f+3     :     0.000775
      f-3     :     0.000373
  3 H s       :     0.902052  s :     0.902052
      pz      :     0.019512  p :     0.038917
      px      :     0.010470
      py      :     0.008935
      dz2     :     0.000493  d :     0.001522
      dxz     :     0.000324
      dyz     :     0.000273
      dx2y2   :     0.000279
      dxy     :     0.000153
  4 H s       :     0.901840  s :     0.901840
      pz      :     0.004605  p :     0.038784
      px      :     0.010608
      py      :     0.023571
      dz2     :     0.000065  d :     0.001521
      dxz     :     0.000074
      dyz     :     0.000536
      dx2y2   :     0.000477
      dxy     :     0.000368
  5 H s       :     0.901900  s :     0.901900
      pz      :     0.018499  p :     0.038874
      px      :     0.010368
      py      :     0.010007
      dz2     :     0.000497  d :     0.001523
      dxz     :     0.000350
      dyz     :     0.000234
      dx2y2   :     0.000271
      dxy     :     0.000171


                     *******************************
                     * LOEWDIN POPULATION ANALYSIS *
                     *******************************

----------------------
LOEWDIN ATOMIC CHARGES
----------------------
   0 N :    0.128109
   1 C :   -0.243439
   2 C :    0.136861
   3 H :   -0.007179
   4 H :   -0.007174
   5 H :   -0.007178

-------------------------------
LOEWDIN REDUCED ORBITAL CHARGES
-------------------------------
  0 N s       :     3.273089  s :     3.273089
      pz      :     0.976596  p :     3.388578
      px      :     1.434464
      py      :     0.977518
      dz2     :     0.024175  d :     0.194020
      dxz     :     0.048643
      dyz     :     0.000222
      dx2y2   :     0.072070
      dxy     :     0.048911
      f0      :     0.001744  f :     0.016204
      f+1     :     0.002581
      f-1     :     0.000296
      f+2     :     0.002884
      f-2     :     0.000054
      f+3     :     0.004290
      f-3     :     0.004356
  1 C s       :     2.767525  s :     2.767525
      pz      :     0.792660  p :     2.683671
      px      :     1.097736
      py      :     0.793276
      dz2     :     0.072476  d :     0.733434
      dxz     :     0.220659
      dyz     :     0.003069
      dx2y2   :     0.213990
      dxy     :     0.223240
      f0      :     0.006339  f :     0.058809
      f+1     :     0.009336
      f-1     :     0.001080
      f+2     :     0.010457
      f-2     :     0.000250
      f+3     :     0.015487
      f-3     :     0.015861
  2 C s       :     2.649677  s :     2.649677
      pz      :     0.928707  p :     2.732169
      px      :     0.874861
      py      :     0.928600
      dz2     :     0.069612  d :     0.448886
      dxz     :     0.104135
      dyz     :     0.053953
      dx2y2   :     0.108134
      dxy     :     0.113052
      f0      :     0.001909  f :     0.032406
      f+1     :     0.005805
      f-1     :     0.005472
      f+2     :     0.003380
      f-2     :     0.003701
      f+3     :     0.007345
      f-3     :     0.004795
  3 H s       :     0.698644  s :     0.698644
      pz      :     0.114207  p :     0.279630
      px      :     0.077538
      py      :     0.087884
      dz2     :     0.008941  d :     0.028905
      dxz     :     0.006487
      dyz     :     0.007407
      dx2y2   :     0.003326
      dxy     :     0.002744
  4 H s       :     0.698642  s :     0.698642
      pz      :     0.075619  p :     0.279627
      px      :     0.079732
      py      :     0.124276
      dz2     :     0.002686  d :     0.028905
      dxz     :     0.001264
      dyz     :     0.008254
      dx2y2   :     0.008504
      dxy     :     0.008196
  5 H s       :     0.698644  s :     0.698644
      pz      :     0.113524  p :     0.279629
      px      :     0.075057
      py      :     0.091048
      dz2     :     0.008955  d :     0.028905
      dxz     :     0.006109
      dyz     :     0.007540
      dx2y2   :     0.003430
      dxy     :     0.002871


                      *****************************
                      * MAYER POPULATION ANALYSIS *
                      *****************************

  NA   - Mulliken gross atomic population
  ZA   - Total nuclear charge
  QA   - Mulliken gross atomic charge
  VA   - Mayer's total valence
  BVA  - Mayer's bonded valence
  FA   - Mayer's free valence

  ATOM       NA         ZA         QA         VA         BVA        FA
  0 N      7.1920     7.0000    -0.1920     2.4543     2.4543    -0.0000
  1 C      6.0545     6.0000    -0.0545     3.4268     3.4268     0.0000
  2 C      5.9266     6.0000     0.0734     4.0210     4.0210     0.0000
  3 H      0.9425     1.0000     0.0575     1.0288     1.0288     0.0000
  4 H      0.9421     1.0000     0.0579     1.0280     1.0280    -0.0000
  5 H      0.9423     1.0000     0.0577     1.0283     1.0283     0.0000

  Mayer bond orders larger than 0.100000
B(  0-N ,  1-C ) :   2.2875 B(  0-N ,  2-C ) :   0.1097 B(  1-C ,  2-C ) :   1.0432 
B(  2-C ,  3-H ) :   0.9562 B(  2-C ,  4-H ) :   0.9554 B(  2-C ,  5-H ) :   0.9564 


-------
TIMINGS
-------

Total SCF time: 0 days 0 hours 0 min 1 sec 

Total time                  ....       1.824 sec
Sum of individual times     ....       1.716 sec  ( 94.1%)

Fock matrix formation       ....       1.399 sec  ( 76.7%)
  Split-RI-J                ....       0.812 sec  ( 58.1% of F)
  XC integration            ....       0.549 sec  ( 39.3% of F)
    Basis function eval.    ....       0.049 sec  (  8.8% of XC)
    Density eval.           ....       0.075 sec  ( 13.6% of XC)
    XC-Functional eval.     ....       0.027 sec  (  5.0% of XC)
    XC-Potential eval.      ....       0.173 sec  ( 31.5% of XC)
Diagonalization             ....       0.025 sec  (  1.4%)
Density matrix formation    ....       0.007 sec  (  0.4%)
Population analysis         ....       0.005 sec  (  0.3%)
Initial guess               ....       0.096 sec  (  5.3%)
Orbital Transformation      ....       0.000 sec  (  0.0%)
Orbital Orthonormalization  ....       0.000 sec  (  0.0%)
DIIS solution               ....       0.010 sec  (  0.6%)
SOSCF solution              ....       0.007 sec  (  0.4%)
Grid generation             ....       0.167 sec  (  9.1%)


-------------------------------------------------------------------------------
                          DFT DISPERSION CORRECTION                            
                                                                               
                              DFTD3 V3.1  Rev 1                                
                          USING Becke-Johnson damping                          
-------------------------------------------------------------------------------
The TPSS functional is recognized
Active option DFTDOPT                   ...         4   

molecular C6(AA) [au] = 386.358522 


            DFT-D V3
 parameters
 s6 scaling factor         :     1.0000 
 a1 scaling factor         :     0.4535 
 s8 scaling factor         :     1.9435 
 a2 scaling factor         :     4.4752 
 ad hoc parameters k1-k3   :    16.0000     1.3333    -4.0000 

 Edisp/kcal,au: -2.162555421108  -0.003446251060 
 E6   /kcal   :  -1.109437896 
 E8   /kcal   :  -1.053117525 
 % E8         :  48.697828258 

-------------------------   ----------------
Dispersion correction           -0.003446251
-------------------------   ----------------


-------------------------   --------------------
FINAL SINGLE POINT ENERGY      -132.832868693454
-------------------------   --------------------


                            ***************************************
                            *     ORCA property calculations      *
                            ***************************************

                                    ---------------------
                                    Active property flags
                                    ---------------------
   (+) Dipole Moment


------------------------------------------------------------------------------
                       ORCA ELECTRIC PROPERTIES CALCULATION
------------------------------------------------------------------------------

Dipole Moment Calculation                       ... on
Quadrupole Moment Calculation                   ... off
Polarizability Calculation                      ... off
GBWName                                         ... MOR21_mecn.gbw
Electron density file                           ... MOR21_mecn.scfp
The origin for moment calculation is the CENTER OF MASS  = ( 0.212467,  0.012369 -0.007883)

-------------
DIPOLE MOMENT
-------------
                                X             Y             Z
Electronic contribution:      3.11589       0.18140      -0.11562
Nuclear contribution   :     -4.67428      -0.27212       0.17343
                        -----------------------------------------
Total Dipole Moment    :     -1.55839      -0.09071       0.05781
                        -----------------------------------------
Magnitude (a.u.)       :      1.56209
Magnitude (Debye)      :      3.97053



--------------------
Rotational spectrum 
--------------------
 
Rotational constants in cm-1:     5.279638     0.306561     0.306561 
Rotational constants in MHz : 158279.554854  9190.460473  9190.452676 

 Dipole components along the rotational axes: 
x,y,z [a.u.] :     1.562094    -0.000006    -0.000012 
x,y,z [Debye]:     3.970528    -0.000016    -0.000030 

 

Timings for individual modules:

Sum of individual times         ...        2.778 sec (=   0.046 min)
GTO integral calculation        ...        0.628 sec (=   0.010 min)  22.6 %
SCF iterations                  ...        2.150 sec (=   0.036 min)  77.4 %
                             ****ORCA TERMINATED NORMALLY****
TOTAL RUN TIME: 0 days 0 hours 0 minutes 3 seconds 276 msec
