
                                 *****************
                                 * O   R   C   A *
                                 *****************

           --- An Ab Initio, DFT and Semiempirical electronic structure package ---

                  #######################################################
                  #                        -***-                        #
                  #          Department of theory and spectroscopy      #
                  #               Directorship: Frank Neese             #
                  #        Max Planck Institute fuer Kohlenforschung    #
                  #                Kaiser Wilhelm Platz 1               #
                  #                 D-45470 Muelheim/Ruhr               #
                  #                      Germany                        #
                  #                                                     #
                  #                  All rights reserved                #
                  #                        -***-                        #
                  #######################################################


                         Program Version 4.2.0 -  RELEASE  -


 With contributions from (in alphabetic order):
   Daniel Aravena         : Magnetic Suceptibility
   Michael Atanasov       : Ab Initio Ligand Field Theory (pilot matlab implementation)
   Alexander A. Auer      : GIAO ZORA, VPT2
   Ute Becker             : Parallelization
   Giovanni Bistoni       : ED, misc. LED, open-shell LED, HFLED
   Martin Brehm           : Molecular dynamics
   Dmytro Bykov           : SCF Hessian
   Vijay G. Chilkuri      : MRCI spin determinant printing, contributions to CSF-ICE
   Dipayan Datta          : RHF DLPNO-CCSD density
   Achintya Kumar Dutta   : EOM-CC, STEOM-CC
   Dmitry Ganyushin       : Spin-Orbit,Spin-Spin,Magnetic field MRCI
   Miquel Garcia          : C-PCM Hessian, Gaussian charge scheme
   Yang Guo               : DLPNO-NEVPT2, CIM, IAO-localization
   Andreas Hansen         : Spin unrestricted coupled pair/coupled cluster methods
   Benjamin Helmich-Paris : CASSCF linear response (MC-RPA)
   Lee Huntington         : MR-EOM, pCC
   Robert Izsak           : Overlap fitted RIJCOSX, COSX-SCS-MP3, EOM
   Christian Kollmar      : KDIIS, OOCD, Brueckner-CCSD(T), CCSD density
   Simone Kossmann        : Meta GGA functionals, TD-DFT gradient, OOMP2, MP2 Hessian
   Martin Krupicka        : AUTO-CI
   Lucas Lang             : DCDCAS
   Dagmar Lenk            : GEPOL surface, SMD
   Dimitrios Liakos       : Extrapolation schemes; Compound Job, initial MDCI parallelization
   Dimitrios Manganas     : Further ROCIS development; embedding schemes
   Dimitrios Pantazis     : SARC Basis sets
   Taras Petrenko         : DFT Hessian,TD-DFT gradient, ASA, ECA, R-Raman, ABS, FL, XAS/XES, NRVS
   Peter Pinski           : DLPNO-MP2, DLPNO-MP2 Gradient
   Christoph Reimann      : Effective Core Potentials
   Marius Retegan         : Local ZFS, SOC
   Christoph Riplinger    : Optimizer, TS searches, QM/MM, DLPNO-CCSD(T), (RO)-DLPNO pert. Triples
   Tobias Risthaus        : Range-separated hybrids, TD-DFT gradient, RPA, STAB
   Michael Roemelt        : Original ROCIS implementation
   Masaaki Saitow         : Open-shell DLPNO-CCSD energy and density
   Barbara Sandhoefer     : DKH picture change effects
   Avijit Sen             : IP-ROCIS
   Kantharuban Sivalingam : CASSCF convergence, NEVPT2, FIC-MRCI
   Bernardo de Souza      : ESD, SOC TD-DFT
   Georgi Stoychev        : AutoAux, RI-MP2 NMR
   Willem Van den Heuvel  : Paramagnetic NMR
   Boris Wezisla          : Elementary symmetry handling
   Frank Wennmohs         : Technical directorship


 We gratefully acknowledge several colleagues who have allowed us to
 interface, adapt or use parts of their codes:
   Stefan Grimme, W. Hujo, H. Kruse,             : VdW corrections, initial TS optimization,
                  C. Bannwarth                     DFT functionals, gCP, sTDA/sTD-DF
   Ed Valeev, F. Pavosevic, A. Kumar             : LibInt (2-el integral package), F12 methods
   Garnet Chan, S. Sharma, J. Yang, R. Olivares  : DMRG
   Ulf Ekstrom                                   : XCFun DFT Library
   Mihaly Kallay                                 : mrcc  (arbitrary order and MRCC methods)
   Andreas Klamt, Michael Diedenhofen            : otool_cosmo (COSMO solvation model)
   Jiri Pittner, Ondrej Demel                    : Mk-CCSD
   Frank Weinhold                                : gennbo (NPA and NBO analysis)
   Christopher J. Cramer and Donald G. Truhlar   : smd solvation model
   Lars Goerigk                                  : TD-DFT with DH, B97 family of functionals
   V. Asgeirsson, H. Jonsson                     : NEB implementation
   FAccTs GmbH                                   : IRC, NEB, NEB-TS, Multilevel, MM, QM/MM, CI optimization
   S Lehtola, MJT Oliveira, MAL Marques          : LibXC Library


 Your calculation uses the libint2 library for the computation of 2-el integrals
 For citations please refer to: http://libint.valeyev.net

 Your ORCA version has been built with support for libXC version: 4.2.3
 For citations please refer to: https://tddft.org/programs/libxc/

 This ORCA versions uses:
   CBLAS   interface :  Fast vector & matrix operations
   LAPACKE interface :  Fast linear algebra routines
   SCALAPACK package :  Parallel linear algebra routines


Your calculation utilizes the atom-pairwise dispersion correction
with the Becke-Johnson damping scheme (D3BJ)
Cite in your paper:
S.Grimme, S.Ehrlich, L.Goerigk, J Comput Chem, (2011), 32, 1456–1465 
S.Grimme, J.Antony, S.Ehrlich and H.Krieg, J.Chem.Phys., 132, (2010), 154104 
   

----- Orbital basis set information -----
Your calculation utilizes the basis: def2-TZVPPD
   F. Weigend and R. Ahlrichs, Phys. Chem. Chem. Phys. 7, 3297 (2005).
   D. Rappoport and F. Furche, J. Chem. Phys. 133 134105 (2010).

----- AuxJ basis set information -----
Your calculation utilizes the auxiliary basis: def2/J
   F. Weigend, Phys. Chem. Chem. Phys. 8, 1057 (2006).

cite the ECPs for Mo [Def2-ECP] as follows:
Ce-Yb(ecp-28): M. Dolg, H. Stoll, H.Preuss, J. Chem. Phys., 1989, 90, 1730-1734.
Y-Cd(ecp-28), Hf-Hg(ecp-46): D. Andrae,U. Haeussermann, M. Dolg, H. Stoll, H. Preuss, Theor. Chim. Acta, 1990, 77, 123-141.
In-Sb(ecp-28), Tl-Bi(ecp-46): B. Metz, H. Stoll, M. Dolg, J. Chem. Phys., 2000, 113, 2563-2569.
Te-Xe(ecp-28), Po-Rn(ecp-46): K. A. Peterson, D. Figgen, E. Goll, H. Stoll, M. Dolg, J. Chem. Phys., 2003, 119, 11113-11123.
Rb(ecp-28), Cs(ecp-46): T. Leininger, A. Nicklass, W. Kuechle, H. Stoll, M. Dolg, A. Bergner, Chem. Phys. Lett., 1996, 255, 274-280.
Sr(ecp-28), Ba(ecp-46): M. Kaupp, P. V. Schleyer, H. Stoll and H. Preuss, J. Chem. Phys., 1991, 94, 1360-1366.
La(ecp-46): M. Dolg, H. Stoll, A. Savin, H. Preuss, Theor. Chim. Acta, 1989, 75, 173-194.
Lu(ecp-28): X. Cao, M. Dolg, J. Chem. Phys., 2001, 115, 7348-7355.

ECP parameters for Mo [Def2-ECP] have been obtained from:
TURBOMOLE (7.0.2)

================================================================================
                                        WARNINGS
                       Please study these warnings very carefully!
================================================================================


INFO   : the flag for use of LIBINT has been found!

================================================================================
                                       INPUT FILE
================================================================================
NAME = MOR37_pr38.in
|  1> #
|  2> # MOR37_pr38 TPSS-D3BJ/Def2-TZVPPD
|  3> #
|  4> ! tpss d3bj def2-tzvppd def2/j grid4 nofinalgrid
|  5> 
|  6> *xyz 0 1
|  7> Mo       0.000368   -0.000951   -0.664236 
|  8> C        1.186218    1.095679   -1.824431 
|  9> C       -1.543342    0.475450   -1.823831 
| 10> C        0.358600   -1.578355   -1.821075 
| 11> O        0.584740   -2.492846   -2.512436 
| 12> O        1.864319    1.747384   -2.517871 
| 13> O       -2.447606    0.735637   -2.516687 
| 14> P        1.980785   -0.729448    0.688588 
| 15> P       -1.623545   -1.348294    0.688464 
| 16> P       -0.357708    2.080403    0.685812 
| 17> C       -1.633250    3.223236    0.009653 
| 18> H       -1.705660    4.145387    0.596929 
| 19> H       -2.603028    2.718106    0.000627 
| 20> H       -1.373511    3.465952   -1.024212 
| 21> C       -0.858884    2.043709    2.465539 
| 22> H       -1.825180    1.541749    2.565977 
| 23> H       -0.943418    3.056285    2.875390 
| 24> H       -0.120247    1.484663    3.045786 
| 25> C        1.092608    3.215640    0.782943 
| 26> H        0.848407    4.138527    1.320517 
| 27> H        1.418994    3.459201   -0.231490 
| 28> H        1.920240    2.713456    1.291867 
| 29> C       -1.984130   -3.020964    0.008508 
| 30> H       -2.747676   -3.543086    0.595776 
| 31> H       -1.064326   -3.612180   -0.003877 
| 32> H       -2.325682   -2.913010   -1.024422 
| 33> C       -1.336917   -1.769970    2.466070 
| 34> H       -2.171293   -2.349509    2.876428 
| 35> H       -1.219304   -0.852646    3.048800 
| 36> H       -0.419591   -2.357379    2.562237 
| 37> C       -3.329045   -0.653966    0.792955 
| 38> H       -4.006858   -1.325859    1.330979 
| 39> H       -3.705797   -0.489375   -0.219919 
| 40> H       -3.303097    0.312486    1.304224 
| 41> C        3.608641   -0.198569    0.011444 
| 42> H        4.443241   -0.596886    0.599054 
| 43> H        3.657034    0.893802    0.001026 
| 44> H        3.688452   -0.546249   -1.021993 
| 45> C        2.199807   -0.272940    2.467201 
| 46> H        3.119209   -0.704894    2.877753 
| 47> H        1.346620   -0.631939    3.048604 
| 48> H        2.248134    0.815142    2.564989 
| 49> C        2.238042   -2.552971    0.789569 
| 50> H        3.157648   -2.802349    1.330381 
| 51> H        2.288935   -2.958854   -0.224143 
| 52> H        1.387609   -3.017788    1.296348 
| 53> *
| 54> 
| 55> %maxcore 5000
| 56> 
| 57> %pal
| 58> nprocs = 24
| 59> end
| 60> 
| 61> 
| 62>                          ****END OF INPUT****
================================================================================

                       ****************************
                       * Single Point Calculation *
                       ****************************

---------------------------------
CARTESIAN COORDINATES (ANGSTROEM)
---------------------------------
  Mo     0.000368   -0.000951   -0.664236
  C      1.186218    1.095679   -1.824431
  C     -1.543342    0.475450   -1.823831
  C      0.358600   -1.578355   -1.821075
  O      0.584740   -2.492846   -2.512436
  O      1.864319    1.747384   -2.517871
  O     -2.447606    0.735637   -2.516687
  P      1.980785   -0.729448    0.688588
  P     -1.623545   -1.348294    0.688464
  P     -0.357708    2.080403    0.685812
  C     -1.633250    3.223236    0.009653
  H     -1.705660    4.145387    0.596929
  H     -2.603028    2.718106    0.000627
  H     -1.373511    3.465952   -1.024212
  C     -0.858884    2.043709    2.465539
  H     -1.825180    1.541749    2.565977
  H     -0.943418    3.056285    2.875390
  H     -0.120247    1.484663    3.045786
  C      1.092608    3.215640    0.782943
  H      0.848407    4.138527    1.320517
  H      1.418994    3.459201   -0.231490
  H      1.920240    2.713456    1.291867
  C     -1.984130   -3.020964    0.008508
  H     -2.747676   -3.543086    0.595776
  H     -1.064326   -3.612180   -0.003877
  H     -2.325682   -2.913010   -1.024422
  C     -1.336917   -1.769970    2.466070
  H     -2.171293   -2.349509    2.876428
  H     -1.219304   -0.852646    3.048800
  H     -0.419591   -2.357379    2.562237
  C     -3.329045   -0.653966    0.792955
  H     -4.006858   -1.325859    1.330979
  H     -3.705797   -0.489375   -0.219919
  H     -3.303097    0.312486    1.304224
  C      3.608641   -0.198569    0.011444
  H      4.443241   -0.596886    0.599054
  H      3.657034    0.893802    0.001026
  H      3.688452   -0.546249   -1.021993
  C      2.199807   -0.272940    2.467201
  H      3.119209   -0.704894    2.877753
  H      1.346620   -0.631939    3.048604
  H      2.248134    0.815142    2.564989
  C      2.238042   -2.552971    0.789569
  H      3.157648   -2.802349    1.330381
  H      2.288935   -2.958854   -0.224143
  H      1.387609   -3.017788    1.296348

----------------------------
CARTESIAN COORDINATES (A.U.)
----------------------------
  NO LB      ZA    FRAG     MASS         X           Y           Z
   0 Mo   14.0000*   0    95.940    0.000695   -0.001797   -1.255224
   1 C     6.0000    0    12.011    2.241627    2.070533   -3.447675
   2 C     6.0000    0    12.011   -2.916494    0.898470   -3.446541
   3 C     6.0000    0    12.011    0.677656   -2.982659   -3.441333
   4 O     8.0000    0    15.999    1.104998   -4.710796   -4.747816
   5 O     8.0000    0    15.999    3.523052    3.302077   -4.758087
   6 O     8.0000    0    15.999   -4.625305    1.390152   -4.755849
   7 P    15.0000    0    30.974    3.743141   -1.378457    1.301243
   8 P    15.0000    0    30.974   -3.068055   -2.547906    1.301008
   9 P    15.0000    0    30.974   -0.675970    3.931392    1.295997
  10 C     6.0000    0    12.011   -3.086395    6.091033    0.018242
  11 H     1.0000    0     1.008   -3.223230    7.833646    1.128032
  12 H     1.0000    0     1.008   -4.919010    5.136476    0.001185
  13 H     1.0000    0     1.008   -2.595560    6.549700   -1.935480
  14 C     6.0000    0    12.011   -1.623056    3.862050    4.659193
  15 H     1.0000    0     1.008   -3.449090    2.913483    4.848994
  16 H     1.0000    0     1.008   -1.782802    5.775542    5.433700
  17 H     1.0000    0     1.008   -0.227234    2.805606    5.755701
  18 C     6.0000    0    12.011    2.064730    6.076679    1.479548
  19 H     1.0000    0     1.008    1.603257    7.820683    2.495415
  20 H     1.0000    0     1.008    2.681510    6.536943   -0.437453
  21 H     1.0000    0     1.008    3.628728    5.127689    2.441275
  22 C     6.0000    0    12.011   -3.749462   -5.708795    0.016078
  23 H     1.0000    0     1.008   -5.192355   -6.695462    1.125853
  24 H     1.0000    0     1.008   -2.011285   -6.826031   -0.007326
  25 H     1.0000    0     1.008   -4.394902   -5.504791   -1.935877
  26 C     6.0000    0    12.011   -2.526407   -3.344759    4.660197
  27 H     1.0000    0     1.008   -4.103149   -4.439929    5.435661
  28 H     1.0000    0     1.008   -2.304151   -1.611267    5.761397
  29 H     1.0000    0     1.008   -0.792912   -4.454801    4.841926
  30 C     6.0000    0    12.011   -6.290983   -1.235817    1.498468
  31 H     1.0000    0     1.008   -7.571864   -2.505510    2.515186
  32 H     1.0000    0     1.008   -7.002941   -0.924785   -0.415587
  33 H     1.0000    0     1.008   -6.241949    0.590513    2.464626
  34 C     6.0000    0    12.011    6.819343   -0.375241    0.021626
  35 H     1.0000    0     1.008    8.396509   -1.127951    1.132048
  36 H     1.0000    0     1.008    6.910793    1.689041    0.001939
  37 H     1.0000    0     1.008    6.970164   -1.032261   -1.931287
  38 C     6.0000    0    12.011    4.157033   -0.515782    4.662334
  39 H     1.0000    0     1.008    5.894451   -1.332057    5.438165
  40 H     1.0000    0     1.008    2.544743   -1.194192    5.761027
  41 H     1.0000    0     1.008    4.248358    1.540395    4.847127
  42 C     6.0000    0    12.011    4.229286   -4.824416    1.492069
  43 H     1.0000    0     1.008    5.967090   -5.295672    2.514056
  44 H     1.0000    0     1.008    4.325460   -5.591424   -0.423569
  45 H     1.0000    0     1.008    2.622201   -5.702793    2.449743
* core charge reduced due to ECP

--------------------------------
INTERNAL COORDINATES (ANGSTROEM)
--------------------------------
 Mo     0   0   0     0.000000000000     0.00000000     0.00000000
 C      1   0   0     1.988690528319     0.00000000     0.00000000
 C      1   2   0     1.988632454961    89.46128764     0.00000000
 C      1   2   3     1.988670414363    89.46193183    89.46921956
 O      4   1   2     1.168508930647   178.86812029     6.51846240
 O      2   1   3     1.168503062395   178.85991355     6.37056828
 O      3   1   2     1.168520471965   178.87157847    96.25921765
 P      1   2   3     2.506569797128    90.22935200   176.09041719
 P      1   2   3     2.506436490561   176.04395978     3.70655342
 P      1   2   3     2.506567872090    86.64718269   269.72450756
 C     10   1   2     1.841267403973   114.61760223    82.46228783
 H     11  10   1     1.095672749993   111.79777680   183.74525823
 H     11  10   1     1.093483952722   109.31085116    62.27958480
 H     11  10   1     1.093275922630   108.69202984   304.87730741
 C     10   1   2     1.849311230470   122.72291328   204.27412740
 H     15  10   1     1.093517074883   109.69288201   299.29877108
 H     15  10   1     1.095643187873   111.25810817   178.90985062
 H     15  10   1     1.093070733710   109.74799549    58.14003268
 C     10   1   2     1.844346490545   115.28590184   326.49065573
 H     19  10   1     1.095600451189   111.65749336   175.65121091
 H     19  10   1     1.093125835943   108.84829929    54.61887917
 H     19  10   1     1.093694260320   109.69065585   296.71164414
 C      9   1   3     1.841245945837   114.57707187    82.08546856
 H     23   9   1     1.095672205007   111.80447892   183.84191780
 H     23   9   1     1.093494007893   109.30627646    62.37431477
 H     23   9   1     1.093277741345   108.68624668   304.97624158
 C      9   1   3     1.849283469508   122.74667659   203.89544732
 H     27   9   1     1.095647046298   111.25967410   179.07487836
 H     27   9   1     1.093110420609   109.74015724    58.31476841
 H     27   9   1     1.093519279869   109.69673341   299.47241753
 C      9   1   3     1.844380652323   115.29768154   326.15325644
 H     31   9   1     1.095600516153   111.65623660   175.61830579
 H     31   9   1     1.093135859196   108.83770007    54.59959590
 H     31   9   1     1.093662999909   109.70718450   296.68231823
 C      8   1   2     1.841269036864   114.59706857   352.95688582
 H     35   8   1     1.095672900363   111.80140135   183.81964697
 H     35   8   1     1.093492029607   109.30862855    62.35602212
 H     35   8   1     1.093271791958   108.69201056   304.95470716
 C      8   1   2     1.849279425700   122.74611464   114.75507476
 H     39   8   1     1.095644668870   111.25112146   178.97638609
 H     39   8   1     1.093086358610   109.75801008    58.20780757
 H     39   8   1     1.093535747288   109.68609327   299.35583056
 C      8   1   2     1.844346620877   115.28421321   237.01460190
 H     43   8   1     1.095601296761   111.66331317   175.79199402
 H     43   8   1     1.093134541620   108.83416448    54.76877029
 H     43   8   1     1.093670922087   109.70126913   296.86988779

---------------------------
INTERNAL COORDINATES (A.U.)
---------------------------
 Mo     0   0   0     0.000000000000     0.00000000     0.00000000
 C      1   0   0     3.758080463646     0.00000000     0.00000000
 C      1   2   0     3.757970720905    89.46128764     0.00000000
 C      1   2   3     3.758042453777    89.46193183    89.46921956
 O      4   1   2     2.208161863964   178.86812029     6.51846240
 O      2   1   3     2.208150774574   178.85991355     6.37056828
 O      3   1   2     2.208183673894   178.87157847    96.25921765
 P      1   2   3     4.736730452130    90.22935200   176.09041719
 P      1   2   3     4.736478539228   176.04395978     3.70655342
 P      1   2   3     4.736726814337    86.64718269   269.72450756
 C     10   1   2     3.479491132825   114.61760223    82.46228783
 H     11  10   1     2.070521429887   111.79777680   183.74525823
 H     11  10   1     2.066385202482   109.31085116    62.27958480
 H     11  10   1     2.065992082580   108.69202984   304.87730741
 C     10   1   2     3.494691761972   122.72291328   204.27412740
 H     15  10   1     2.066447794295   109.69288201   299.29877108
 H     15  10   1     2.070465565577   111.25810817   178.90985062
 H     15  10   1     2.065604331717   109.74799549    58.14003268
 C     10   1   2     3.485309763189   115.28590184   326.49065573
 H     19  10   1     2.070384804948   111.65749336   175.65121091
 H     19  10   1     2.065708459846   108.84829929    54.61887917
 H     19  10   1     2.066782626246   109.69065585   296.71164414
 C      9   1   3     3.479450582825   114.57707187    82.08546856
 H     23   9   1     2.070520400012   111.80447892   183.84191780
 H     23   9   1     2.066404204001   109.30627646    62.37431477
 H     23   9   1     2.065995519454   108.68624668   304.97624158
 C      9   1   3     3.494639301358   122.74667659   203.89544732
 H     27   9   1     2.070472856942   111.25967410   179.07487836
 H     27   9   1     2.065679329087   109.74015724    58.31476841
 H     27   9   1     2.066451961116   109.69673341   299.47241753
 C      9   1   3     3.485374319594   115.29768154   326.15325644
 H     31   9   1     2.070384927711   111.65623660   175.61830579
 H     31   9   1     2.065727401050   108.83770007    54.59959590
 H     31   9   1     2.066723552630   109.70718450   296.68231823
 C      8   1   2     3.479494218541   114.59706857   352.95688582
 H     35   8   1     2.070521714045   111.80140135   183.81964697
 H     35   8   1     2.066400465583   109.30862855    62.35602212
 H     35   8   1     2.065984276741   108.69201056   304.95470716
 C      8   1   2     3.494631659668   122.74611464   114.75507476
 H     39   8   1     2.070468364256   111.25112146   178.97638609
 H     39   8   1     2.065633858498   109.75801008    58.20780757
 H     39   8   1     2.066483080027   109.68609327   299.35583056
 C      8   1   2     3.485310009480   115.28421321   237.01460190
 H     43   8   1     2.070386402847   111.66331317   175.79199402
 H     43   8   1     2.065724911191   108.83416448    54.76877029
 H     43   8   1     2.066738523378   109.70126913   296.86988779

---------------------
BASIS SET INFORMATION
---------------------
There are 5 groups of distinct atoms

 Group   1 Type Mo  : 7s7p5d2f1g contracted to 6s4p3d2f1g pattern {211111/4111/311/11/1}
 Group   2 Type C   : 12s6p3d1f contracted to 6s3p3d1f pattern {621111/411/111/1}
 Group   3 Type O   : 12s7p3d1f contracted to 6s4p3d1f pattern {621111/4111/111/1}
 Group   4 Type P   : 15s9p4d1f contracted to 6s5p4d1f pattern {732111/51111/1111/1}
 Group   5 Type H   : 5s3p1d contracted to 3s3p1d pattern {311/111/1}

Atom   0Mo   basis set group =>   1
Atom   1C    basis set group =>   2
Atom   2C    basis set group =>   2
Atom   3C    basis set group =>   2
Atom   4O    basis set group =>   3
Atom   5O    basis set group =>   3
Atom   6O    basis set group =>   3
Atom   7P    basis set group =>   4
Atom   8P    basis set group =>   4
Atom   9P    basis set group =>   4
Atom  10C    basis set group =>   2
Atom  11H    basis set group =>   5
Atom  12H    basis set group =>   5
Atom  13H    basis set group =>   5
Atom  14C    basis set group =>   2
Atom  15H    basis set group =>   5
Atom  16H    basis set group =>   5
Atom  17H    basis set group =>   5
Atom  18C    basis set group =>   2
Atom  19H    basis set group =>   5
Atom  20H    basis set group =>   5
Atom  21H    basis set group =>   5
Atom  22C    basis set group =>   2
Atom  23H    basis set group =>   5
Atom  24H    basis set group =>   5
Atom  25H    basis set group =>   5
Atom  26C    basis set group =>   2
Atom  27H    basis set group =>   5
Atom  28H    basis set group =>   5
Atom  29H    basis set group =>   5
Atom  30C    basis set group =>   2
Atom  31H    basis set group =>   5
Atom  32H    basis set group =>   5
Atom  33H    basis set group =>   5
Atom  34C    basis set group =>   2
Atom  35H    basis set group =>   5
Atom  36H    basis set group =>   5
Atom  37H    basis set group =>   5
Atom  38C    basis set group =>   2
Atom  39H    basis set group =>   5
Atom  40H    basis set group =>   5
Atom  41H    basis set group =>   5
Atom  42C    basis set group =>   2
Atom  43H    basis set group =>   5
Atom  44H    basis set group =>   5
Atom  45H    basis set group =>   5
---------------------------------
AUXILIARY/J BASIS SET INFORMATION
---------------------------------
There are 5 groups of distinct atoms

 Group   1 Type Mo  : 11s5p5d3f3g contracted to 8s5p5d2f3g pattern {41111111/11111/11111/21/111}
 Group   2 Type C   : 12s5p4d2f1g contracted to 6s4p3d1f1g pattern {711111/2111/211/2/1}
 Group   3 Type O   : 12s5p4d2f1g contracted to 6s4p3d1f1g pattern {711111/2111/211/2/1}
 Group   4 Type P   : 14s5p5d2f1g contracted to 8s4p3d1f1g pattern {71111111/2111/311/2/1}
 Group   5 Type H   : 5s2p1d contracted to 3s1p1d pattern {311/2/1}

Atom   0Mo   basis set group =>   1
Atom   1C    basis set group =>   2
Atom   2C    basis set group =>   2
Atom   3C    basis set group =>   2
Atom   4O    basis set group =>   3
Atom   5O    basis set group =>   3
Atom   6O    basis set group =>   3
Atom   7P    basis set group =>   4
Atom   8P    basis set group =>   4
Atom   9P    basis set group =>   4
Atom  10C    basis set group =>   2
Atom  11H    basis set group =>   5
Atom  12H    basis set group =>   5
Atom  13H    basis set group =>   5
Atom  14C    basis set group =>   2
Atom  15H    basis set group =>   5
Atom  16H    basis set group =>   5
Atom  17H    basis set group =>   5
Atom  18C    basis set group =>   2
Atom  19H    basis set group =>   5
Atom  20H    basis set group =>   5
Atom  21H    basis set group =>   5
Atom  22C    basis set group =>   2
Atom  23H    basis set group =>   5
Atom  24H    basis set group =>   5
Atom  25H    basis set group =>   5
Atom  26C    basis set group =>   2
Atom  27H    basis set group =>   5
Atom  28H    basis set group =>   5
Atom  29H    basis set group =>   5
Atom  30C    basis set group =>   2
Atom  31H    basis set group =>   5
Atom  32H    basis set group =>   5
Atom  33H    basis set group =>   5
Atom  34C    basis set group =>   2
Atom  35H    basis set group =>   5
Atom  36H    basis set group =>   5
Atom  37H    basis set group =>   5
Atom  38C    basis set group =>   2
Atom  39H    basis set group =>   5
Atom  40H    basis set group =>   5
Atom  41H    basis set group =>   5
Atom  42C    basis set group =>   2
Atom  43H    basis set group =>   5
Atom  44H    basis set group =>   5
Atom  45H    basis set group =>   5
-------------------------
ECP PARAMETER INFORMATION
-------------------------

 Group 1, Type Mo ECP Def2-ECP (replacing 28 core electrons, lmax=3)

Atom   0Mo   ECP group =>   1



           ************************************************************
           *        Program running with 24 parallel MPI-processes    *
           *              working on a common directory               *
           ************************************************************
------------------------------------------------------------------------------
                           ORCA GTO INTEGRAL CALCULATION
                           -- RI-GTO INTEGRALS CHOSEN --
------------------------------------------------------------------------------

                         BASIS SET STATISTICS AND STARTUP INFO

Gaussian basis set:
 # of primitive gaussian shells          ...  685
 # of primitive gaussian functions       ... 1585
 # of contracted shells                  ...  451
 # of contracted basis functions         ... 1223
 Highest angular momentum                ...    4
 Maximum contraction depth               ...    7
Auxiliary gaussian basis set:
 # of primitive gaussian shells          ...  684
 # of primitive gaussian functions       ... 1812
 # of contracted shells                  ...  434
 # of contracted aux-basis functions     ... 1274
 Highest angular momentum                ...    4
 Maximum contraction depth               ...    7
Ratio of auxiliary to basis functions    ...  1.04
Integral package used                  ... LIBINT
 One Electron integrals                  
   ECP integrals                         ... done
 Ordering auxiliary basis shells         ... done
 Integral threshhold             Thresh  ...  1.000e-10
 Primitive cut-off               TCut    ...  1.000e-11
 Pre-screening matrix                    ... done
 Shell pair data                         ... 
 Ordering of the shell pairs             ... done (   0.016 sec) 80952 of 101926 pairs
 Determination of significant pairs      ... done (   0.000 sec)
 Creation of shell pair data             ... done (   0.007 sec)
 Storage of shell pair data              ... done (   0.020 sec)
 Shell pair data done in (   0.044 sec)
 Computing two index integrals           ... done
 Cholesky decomposition of the V-matrix  ... done


Timings:
 Total evaluation time                   ...   6.652 sec (  0.111 min)
 One electron matrix time                ...   5.846 sec (  0.097 min) = 87.9%
 Schwartz matrix evaluation time         ...   0.627 sec (  0.010 min) =  9.4%
 Two index repulsion integral time       ...   0.037 sec (  0.001 min) =  0.6%
 Cholesky decomposition of V             ...   0.071 sec (  0.001 min) =  1.1%
 Three index repulsion integral time     ...   0.000 sec (  0.000 min) =  0.0%



           ************************************************************
           *        Program running with 24 parallel MPI-processes    *
           *              working on a common directory               *
           ************************************************************
-------------------------------------------------------------------------------
                                 ORCA SCF
-------------------------------------------------------------------------------

------------
SCF SETTINGS
------------
Hamiltonian:
 Density Functional     Method          .... DFT(GTOs)
 Exchange Functional    Exchange        .... TPSS
 Correlation Functional Correlation     .... TPSS
 LDA part of GGA corr.  LDAOpt          .... PW91-LDA
 Gradients option       PostSCFGGA      .... off
   Density functional embedding theory  .... OFF
   NL short-range parameter             ....  5.000000
 RI-approximation to the Coulomb term is turned on
   Number of auxiliary basis functions  .... 1274


General Settings:
 Integral files         IntName         .... MOR37_pr38
 Hartree-Fock type      HFTyp           .... RHF
 Total Charge           Charge          ....    0
 Multiplicity           Mult            ....    1
 Number of Electrons    NEL             ....  182
 Basis Dimension        Dim             .... 1223
 Nuclear Repulsion      ENuc            ....   2310.7496732048 Eh

Convergence Acceleration:
 DIIS                   CNVDIIS         .... on
   Start iteration      DIISMaxIt       ....    12
   Startup error        DIISStart       ....  0.200000
   # of expansion vecs  DIISMaxEq       ....     5
   Bias factor          DIISBfac        ....   1.050
   Max. coefficient     DIISMaxC        ....  10.000
 Newton-Raphson         CNVNR           .... off
 SOSCF                  CNVSOSCF        .... off
 Level Shifting         CNVShift        .... on
   Level shift para.    LevelShift      ....    0.2500
   Turn off err/grad.   ShiftErr        ....    0.0010
 Zerner damping         CNVZerner       .... off
 Static damping         CNVDamp         .... on
   Fraction old density DampFac         ....    0.7000
   Max. Damping (<1)    DampMax         ....    0.9800
   Min. Damping (>=0)   DampMin         ....    0.0000
   Turn off err/grad.   DampErr         ....    0.1000
 Fernandez-Rico         CNVRico         .... off

SCF Procedure:
 Maximum # iterations   MaxIter         ....   125
 SCF integral mode      SCFMode         .... Direct
   Integral package                     .... LIBINT
 Reset frequency        DirectResetFreq ....    20
 Integral Threshold     Thresh          ....  1.000e-10 Eh
 Primitive CutOff       TCut            ....  1.000e-11 Eh

Convergence Tolerance:
 Convergence Check Mode ConvCheckMode   .... Total+1el-Energy
 Convergence forced     ConvForced      .... 0
 Energy Change          TolE            ....  1.000e-06 Eh
 1-El. energy change                    ....  1.000e-03 Eh
 DIIS Error             TolErr          ....  1.000e-06


Diagonalization of the overlap matrix:
Smallest eigenvalue                        ... 8.075e-07
Time for diagonalization                   ...    0.206 sec
Threshold for overlap eigenvalues          ... 1.000e-08
Number of eigenvalues below threshold      ... 0
Time for construction of square roots      ...    0.194 sec
Total time needed                          ...    0.406 sec

-------------------
DFT GRID GENERATION
-------------------

General Integration Accuracy     IntAcc      ...  4.670
Radial Grid Type                 RadialGrid  ... Gauss-Chebyshev
Angular Grid (max. acc.)         AngularGrid ... Lebedev-302
Angular grid pruning method      GridPruning ... 3 (G Style)
Weight generation scheme         WeightScheme... Becke
Basis function cutoff            BFCut       ...    1.0000e-10
Integration weight cutoff        WCut        ...    1.0000e-14
Grids for H and He will be reduced by one unit

# of grid points (after initial pruning)     ... 215954 (   0.0 sec)
# of grid points (after weights+screening)   ... 185782 (   0.2 sec)
nearest neighbour list constructed           ...    0.0 sec
Grid point re-assignment to atoms done       ...    0.0 sec
Grid point division into batches done        ...    0.6 sec
Reduced shell lists constructed in    0.8 sec

Total number of grid points                  ...   185782
Total number of batches                      ...     2926
Average number of points per batch           ...       63
Average number of grid points per atom       ...     4039
Average number of shells per batch           ...   262.85 (58.28%)
Average number of basis functions per batch  ...   701.35 (57.35%)
Average number of large shells per batch     ...   193.85 (73.75%)
Average number of large basis fcns per batch ...   524.57 (74.79%)
Maximum spatial batch extension              ...   4.21,  3.61,  5.15 au
Average spatial batch extension              ...   0.05,  0.05,  0.05 au

Time for grid setup =    1.040 sec

------------------------------
INITIAL GUESS: MODEL POTENTIAL
------------------------------
Loading Hartree-Fock densities                     ... done
  calling /sw/apps/orca/orca_4_2_0_linux_x86-64_openmpi314/orca MOR37_pr38_atom42.inp > MOR37_pr38_atom42.out in order to generate an atomic fitting density for atom 0 (Mo with ECP) on-the-fly... 
    atom 0 (Mo), assumed electronic state with S=5: 1s2 2s2 2p6 3s2 3p6 4s2 3d10 4p6 5s2 4d4           ... done
Calculating cut-offs                               ... done
Setting up the integral package                    ... done
Initializing the effective Hamiltonian             ... done
Starting the Coulomb interaction                   ... done (   0.2 sec)
Reading the grid                                   ... done
Mapping shells                                     ... done
Starting the XC term evaluation                    ... done (   0.9 sec)
  promolecular density results
     # of electrons  =    209.987902953
     EX              =   -280.614938702
     EC              =     -7.931946959
     EX+EC           =   -288.546885661
Transforming the Hamiltonian                       ... done (   0.1 sec)
Diagonalizing the Hamiltonian                      ... done (   0.2 sec)
Back transforming the eigenvectors                 ... done (   0.1 sec)
Now organizing SCF variables                       ... done
                      ------------------
                      INITIAL GUESS DONE (   4.5 sec)
                      ------------------
--------------
SCF ITERATIONS
--------------
ITER       Energy         Delta-E        Max-DP      RMS-DP      [F,P]     Damp
               ***  Starting incremental Fock matrix formation  ***
  0  -1791.3727771532   0.000000000000 0.72565654  0.00165804  0.4533576 0.7000
  1  -1791.8166487432  -0.443871589991 0.49287152  0.00114319  0.2847518 0.7000
                               ***Turning on DIIS***
  2  -1791.9359569284  -0.119308185156 0.21719550  0.00064912  0.1829087 0.7000
  3  -1792.0197887598  -0.083831831382 0.12042718  0.00043298  0.1306635 0.7000
  4  -1792.0801165698  -0.060327810042 0.51440985  0.00115959  0.0958973 0.0000
  5  -1792.2181747578  -0.138058187968 0.21957017  0.00024204  0.0066806 0.0000
  6  -1792.2185826498  -0.000407892067 0.04311300  0.00006462  0.0064471 0.0000
  7  -1792.2187907548  -0.000208104977 0.14309854  0.00014877  0.0019462 0.0000
  8  -1792.2188180176  -0.000027262821 0.17118012  0.00017833  0.0004895 0.0000
  9  -1792.2188142467   0.000003770964 0.08065779  0.00008072  0.0012077 0.0000
 10  -1792.2188200889  -0.000005842195 0.20171814  0.00020363  0.0002975 0.0000
                 **** Energy Check signals convergence ****

               *****************************************************
               *                     SUCCESS                       *
               *           SCF CONVERGED AFTER  11 CYCLES          *
               *****************************************************


----------------
TOTAL SCF ENERGY
----------------

Total Energy       :        -1792.21882043 Eh          -48768.75346 eV

Components:
Nuclear Repulsion  :         2310.74967320 Eh           62878.69530 eV
Electronic Energy  :        -4102.96849364 Eh         -111647.44876 eV
One Electron Energy:        -7086.15543226 Eh         -192824.09230 eV
Two Electron Energy:         2983.18693863 Eh           81176.64354 eV

Virial components:
Potential Energy   :        -3533.98851932 Eh          -96164.71653 eV
Kinetic Energy     :         1741.76969889 Eh           47395.96307 eV
Virial Ratio       :            2.02896429


DFT components:
N(Alpha)           :       91.000197728996 electrons
N(Beta)            :       91.000197728996 electrons
N(Total)           :      182.000395457993 electrons
E(X)               :     -172.596970658651 Eh       
E(C)               :       -6.352932482776 Eh       
E(XC)              :     -178.949903141427 Eh       
DFET-embed. en.    :        0.000000000000 Eh       

---------------
SCF CONVERGENCE
---------------

  Last Energy change         ...   -3.4156e-07  Tolerance :   1.0000e-06
  Last MAX-Density change    ...    1.6456e-01  Tolerance :   1.0000e-05
  Last RMS-Density change    ...    1.6575e-04  Tolerance :   1.0000e-06
  Last DIIS Error            ...    1.3952e-04  Tolerance :   1.0000e-06

             **** THE GBW FILE WAS UPDATED (MOR37_pr38.gbw) ****
             **** DENSITY FILE WAS UPDATED (MOR37_pr38.scfp) ****
             **** ENERGY FILE WAS UPDATED (MOR37_pr38.en.tmp) ****
             **** THE GBW FILE WAS UPDATED (MOR37_pr38.gbw) ****
             **** DENSITY FILE WAS UPDATED (MOR37_pr38.scfp) ****
----------------
ORBITAL ENERGIES
----------------

  NO   OCC          E(Eh)            E(eV) 
   0   2.0000     -76.603907     -2084.4983 
   1   2.0000     -76.603894     -2084.4979 
   2   2.0000     -76.603870     -2084.4973 
   3   2.0000     -18.904066      -514.4058 
   4   2.0000     -18.904062      -514.4057 
   5   2.0000     -18.904047      -514.4053 
   6   2.0000     -10.041338      -273.2387 
   7   2.0000     -10.041329      -273.2385 
   8   2.0000     -10.041320      -273.2382 
   9   2.0000      -9.998931      -272.0847 
  10   2.0000      -9.998929      -272.0847 
  11   2.0000      -9.998924      -272.0846 
  12   2.0000      -9.993260      -271.9304 
  13   2.0000      -9.993242      -271.9299 
  14   2.0000      -9.993203      -271.9289 
  15   2.0000      -9.990229      -271.8479 
  16   2.0000      -9.990192      -271.8470 
  17   2.0000      -9.990153      -271.8459 
  18   2.0000      -6.377198      -173.5324 
  19   2.0000      -6.377186      -173.5321 
  20   2.0000      -6.377173      -173.5317 
  21   2.0000      -4.554915      -123.9455 
  22   2.0000      -4.554904      -123.9452 
  23   2.0000      -4.554880      -123.9446 
  24   2.0000      -4.554699      -123.9397 
  25   2.0000      -4.554679      -123.9391 
  26   2.0000      -4.554666      -123.9388 
  27   2.0000      -4.551764      -123.8598 
  28   2.0000      -4.551758      -123.8596 
  29   2.0000      -4.551751      -123.8594 
  30   2.0000      -2.404587       -65.4321 
  31   2.0000      -1.436783       -39.0968 
  32   2.0000      -1.436777       -39.0967 
  33   2.0000      -1.436379       -39.0859 
  34   2.0000      -1.000781       -27.2326 
  35   2.0000      -1.000241       -27.2179 
  36   2.0000      -1.000229       -27.2176 
  37   2.0000      -0.724675       -19.7194 
  38   2.0000      -0.719857       -19.5883 
  39   2.0000      -0.719854       -19.5882 
  40   2.0000      -0.656460       -17.8632 
  41   2.0000      -0.653820       -17.7913 
  42   2.0000      -0.653771       -17.7900 
  43   2.0000      -0.649284       -17.6679 
  44   2.0000      -0.649242       -17.6668 
  45   2.0000      -0.648264       -17.6402 
  46   2.0000      -0.513068       -13.9613 
  47   2.0000      -0.500930       -13.6310 
  48   2.0000      -0.500926       -13.6309 
  49   2.0000      -0.476601       -12.9690 
  50   2.0000      -0.466352       -12.6901 
  51   2.0000      -0.466340       -12.6898 
  52   2.0000      -0.424971       -11.5641 
  53   2.0000      -0.417016       -11.3476 
  54   2.0000      -0.416952       -11.3458 
  55   2.0000      -0.405814       -11.0427 
  56   2.0000      -0.405775       -11.0417 
  57   2.0000      -0.404404       -11.0044 
  58   2.0000      -0.399102       -10.8601 
  59   2.0000      -0.396314       -10.7843 
  60   2.0000      -0.396302       -10.7839 
  61   2.0000      -0.380338       -10.3495 
  62   2.0000      -0.379730       -10.3330 
  63   2.0000      -0.379666       -10.3312 
  64   2.0000      -0.376154       -10.2357 
  65   2.0000      -0.376083       -10.2337 
  66   2.0000      -0.374071       -10.1790 
  67   2.0000      -0.371204       -10.1010 
  68   2.0000      -0.363774        -9.8988 
  69   2.0000      -0.362394        -9.8612 
  70   2.0000      -0.362381        -9.8609 
  71   2.0000      -0.360314        -9.8046 
  72   2.0000      -0.360284        -9.8038 
  73   2.0000      -0.354167        -9.6374 
  74   2.0000      -0.351700        -9.5702 
  75   2.0000      -0.351678        -9.5696 
  76   2.0000      -0.349793        -9.5184 
  77   2.0000      -0.344247        -9.3674 
  78   2.0000      -0.344242        -9.3673 
  79   2.0000      -0.313999        -8.5444 
  80   2.0000      -0.312368        -8.5000 
  81   2.0000      -0.312341        -8.4992 
  82   2.0000      -0.305950        -8.3253 
  83   2.0000      -0.305940        -8.3251 
  84   2.0000      -0.304617        -8.2891 
  85   2.0000      -0.252227        -6.8635 
  86   2.0000      -0.243374        -6.6225 
  87   2.0000      -0.243345        -6.6218 
  88   2.0000      -0.165277        -4.4974 
  89   2.0000      -0.165271        -4.4973 
  90   2.0000      -0.163672        -4.4537 
  91   0.0000      -0.029455        -0.8015 
  92   0.0000      -0.029454        -0.8015 
  93   0.0000      -0.024511        -0.6670 
  94   0.0000      -0.019487        -0.5303 
  95   0.0000      -0.006523        -0.1775 
  96   0.0000      -0.006505        -0.1770 
  97   0.0000      -0.005296        -0.1441 
  98   0.0000      -0.000828        -0.0225 
  99   0.0000      -0.000724        -0.0197 
 100   0.0000       0.008012         0.2180 
 101   0.0000       0.015456         0.4206 
 102   0.0000       0.015477         0.4212 
 103   0.0000       0.023070         0.6278 
 104   0.0000       0.023099         0.6285 
 105   0.0000       0.023405         0.6369 
 106   0.0000       0.027122         0.7380 
 107   0.0000       0.035482         0.9655 
 108   0.0000       0.035521         0.9666 
 109   0.0000       0.037653         1.0246 
 110   0.0000       0.048972         1.3326 
 111   0.0000       0.049033         1.3343 
 112   0.0000       0.051146         1.3918 
 113   0.0000       0.054599         1.4857 
 114   0.0000       0.054604         1.4859 
 115   0.0000       0.059099         1.6082 
 116   0.0000       0.063126         1.7178 
 117   0.0000       0.063153         1.7185 
 118   0.0000       0.065845         1.7917 
 119   0.0000       0.069061         1.8792 
 120   0.0000       0.069334         1.8867 
 121   0.0000       0.069487         1.8908 
 122   0.0000       0.073657         2.0043 
 123   0.0000       0.073708         2.0057 
 124   0.0000       0.075073         2.0428 
 125   0.0000       0.081347         2.2136 
 126   0.0000       0.081412         2.2153 
 127   0.0000       0.085947         2.3387 
 128   0.0000       0.088059         2.3962 
 129   0.0000       0.088144         2.3985 
 130   0.0000       0.093463         2.5433 
 131   0.0000       0.097094         2.6421 
 132   0.0000       0.097168         2.6441 
 133   0.0000       0.099049         2.6953 
 134   0.0000       0.106391         2.8950 
 135   0.0000       0.106494         2.8978 
 136   0.0000       0.106557         2.8996 
 137   0.0000       0.111915         3.0454 
 138   0.0000       0.112036         3.0487 
 139   0.0000       0.113399         3.0857 
 140   0.0000       0.121197         3.2979 
 141   0.0000       0.122554         3.3349 
 142   0.0000       0.122636         3.3371 
 143   0.0000       0.131561         3.5800 
 144   0.0000       0.132926         3.6171 
 145   0.0000       0.132985         3.6187 
 146   0.0000       0.139155         3.7866 
 147   0.0000       0.139301         3.7906 
 148   0.0000       0.140582         3.8254 
 149   0.0000       0.143877         3.9151 
 150   0.0000       0.144024         3.9191 
 151   0.0000       0.151765         4.1297 
 152   0.0000       0.151828         4.1315 
 153   0.0000       0.156949         4.2708 
 154   0.0000       0.157069         4.2741 
 155   0.0000       0.159242         4.3332 
 156   0.0000       0.165203         4.4954 
 157   0.0000       0.175432         4.7737 
 158   0.0000       0.177524         4.8307 
 159   0.0000       0.180807         4.9200 
 160   0.0000       0.180945         4.9238 
 161   0.0000       0.187228         5.0947 
 162   0.0000       0.187269         5.0958 
 163   0.0000       0.195301         5.3144 
 164   0.0000       0.196397         5.3442 
 165   0.0000       0.196520         5.3476 
 166   0.0000       0.196711         5.3528 
 167   0.0000       0.209434         5.6990 
 168   0.0000       0.210246         5.7211 
 169   0.0000       0.210483         5.7275 
 170   0.0000       0.214930         5.8485 
 171   0.0000       0.217811         5.9269 
 172   0.0000       0.217841         5.9278 
 173   0.0000       0.222000         6.0409 
 174   0.0000       0.229254         6.2383 
 175   0.0000       0.229563         6.2467 
 176   0.0000       0.229615         6.2481 
 177   0.0000       0.235833         6.4173 
 178   0.0000       0.235981         6.4214 
 179   0.0000       0.239558         6.5187 
 180   0.0000       0.239594         6.5197 
 181   0.0000       0.243204         6.6179 
 182   0.0000       0.243499         6.6259 
 183   0.0000       0.243550         6.6273 
 184   0.0000       0.247798         6.7429 
 185   0.0000       0.253056         6.8860 
 186   0.0000       0.253290         6.8924 
 187   0.0000       0.253368         6.8945 
 188   0.0000       0.261805         7.1241 
 189   0.0000       0.261911         7.1270 
 190   0.0000       0.262071         7.1313 
 191   0.0000       0.263864         7.1801 
 192   0.0000       0.267212         7.2712 
 193   0.0000       0.267314         7.2740 
 194   0.0000       0.268932         7.3180 
 195   0.0000       0.270537         7.3617 
 196   0.0000       0.270718         7.3666 
 197   0.0000       0.279647         7.6096 
 198   0.0000       0.280272         7.6266 
 199   0.0000       0.280437         7.6311 
 200   0.0000       0.286866         7.8060 
 201   0.0000       0.287003         7.8097 
 202   0.0000       0.287220         7.8157 
 203   0.0000       0.291380         7.9289 
 204   0.0000       0.293291         7.9809 
 205   0.0000       0.293394         7.9837 
 206   0.0000       0.301446         8.2027 
 207   0.0000       0.301628         8.2077 
 208   0.0000       0.301742         8.2108 
 209   0.0000       0.305166         8.3040 
 210   0.0000       0.305280         8.3071 
 211   0.0000       0.306007         8.3269 
 212   0.0000       0.313268         8.5245 
 213   0.0000       0.316724         8.6185 
 214   0.0000       0.316873         8.6225 
 215   0.0000       0.319868         8.7041 
 216   0.0000       0.321588         8.7509 
 217   0.0000       0.321640         8.7523 
 218   0.0000       0.330650         8.9974 
 219   0.0000       0.333881         9.0854 
 220   0.0000       0.334877         9.1125 
 221   0.0000       0.335006         9.1160 
 222   0.0000       0.338269         9.2048 
 223   0.0000       0.338516         9.2115 
 224   0.0000       0.346511         9.4291 
 225   0.0000       0.346662         9.4332 
 226   0.0000       0.349737         9.5168 
 227   0.0000       0.354343         9.6422 
 228   0.0000       0.354473         9.6457 
 229   0.0000       0.360021         9.7967 
 230   0.0000       0.364189         9.9101 
 231   0.0000       0.364408         9.9161 
 232   0.0000       0.370095        10.0708 
 233   0.0000       0.370162        10.0726 
 234   0.0000       0.373807        10.1718 
 235   0.0000       0.375282        10.2119 
 236   0.0000       0.381164        10.3720 
 237   0.0000       0.381431        10.3793 
 238   0.0000       0.383257        10.4289 
 239   0.0000       0.385900        10.5009 
 240   0.0000       0.390041        10.6136 
 241   0.0000       0.390070        10.6143 
 242   0.0000       0.394845        10.7443 
 243   0.0000       0.394951        10.7472 
 244   0.0000       0.395249        10.7553 
 245   0.0000       0.400675        10.9029 
 246   0.0000       0.403037        10.9672 
 247   0.0000       0.403123        10.9695 
 248   0.0000       0.404092        10.9959 
 249   0.0000       0.410294        11.1647 
 250   0.0000       0.410602        11.1731 
 251   0.0000       0.410627        11.1737 
 252   0.0000       0.416576        11.3356 
 253   0.0000       0.423326        11.5193 
 254   0.0000       0.423408        11.5215 
 255   0.0000       0.425203        11.5704 
 256   0.0000       0.427880        11.6432 
 257   0.0000       0.428212        11.6522 
 258   0.0000       0.432493        11.7687 
 259   0.0000       0.441610        12.0168 
 260   0.0000       0.441646        12.0178 
 261   0.0000       0.443567        12.0701 
 262   0.0000       0.445793        12.1306 
 263   0.0000       0.445907        12.1337 
 264   0.0000       0.449729        12.2378 
 265   0.0000       0.450034        12.2460 
 266   0.0000       0.456075        12.4104 
 267   0.0000       0.456129        12.4119 
 268   0.0000       0.456374        12.4186 
 269   0.0000       0.465514        12.6673 
 270   0.0000       0.467452        12.7200 
 271   0.0000       0.467650        12.7254 
 272   0.0000       0.472829        12.8663 
 273   0.0000       0.473089        12.8734 
 274   0.0000       0.475310        12.9338 
 275   0.0000       0.479681        13.0528 
 276   0.0000       0.484684        13.1889 
 277   0.0000       0.484884        13.1944 
 278   0.0000       0.491020        13.3613 
 279   0.0000       0.491182        13.3657 
 280   0.0000       0.491313        13.3693 
 281   0.0000       0.499491        13.5918 
 282   0.0000       0.499725        13.5982 
 283   0.0000       0.500568        13.6211 
 284   0.0000       0.508682        13.8419 
 285   0.0000       0.508733        13.8433 
 286   0.0000       0.513827        13.9820 
 287   0.0000       0.513948        13.9852 
 288   0.0000       0.515030        14.0147 
 289   0.0000       0.515653        14.0316 
 290   0.0000       0.522352        14.2139 
 291   0.0000       0.527342        14.3497 
 292   0.0000       0.527471        14.3532 
 293   0.0000       0.531110        14.4522 
 294   0.0000       0.531182        14.4542 
 295   0.0000       0.532994        14.5035 
 296   0.0000       0.538889        14.6639 
 297   0.0000       0.539012        14.6672 
 298   0.0000       0.542159        14.7529 
 299   0.0000       0.546324        14.8662 
 300   0.0000       0.554060        15.0767 
 301   0.0000       0.556708        15.1488 
 302   0.0000       0.556894        15.1539 
 303   0.0000       0.558360        15.1937 
 304   0.0000       0.564859        15.3706 
 305   0.0000       0.564966        15.3735 
 306   0.0000       0.571045        15.5389 
 307   0.0000       0.571261        15.5448 
 308   0.0000       0.577213        15.7068 
 309   0.0000       0.580737        15.8027 
 310   0.0000       0.582360        15.8468 
 311   0.0000       0.582512        15.8510 
 312   0.0000       0.586627        15.9629 
 313   0.0000       0.592973        16.1356 
 314   0.0000       0.593162        16.1408 
 315   0.0000       0.595106        16.1937 
 316   0.0000       0.596211        16.2237 
 317   0.0000       0.596268        16.2253 
 318   0.0000       0.602312        16.3898 
 319   0.0000       0.606120        16.4934 
 320   0.0000       0.606181        16.4950 
 321   0.0000       0.606964        16.5163 
 322   0.0000       0.609796        16.5934 
 323   0.0000       0.610135        16.6026 
 324   0.0000       0.617710        16.8087 
 325   0.0000       0.618046        16.8179 
 326   0.0000       0.618617        16.8334 
 327   0.0000       0.624016        16.9803 
 328   0.0000       0.624199        16.9853 
 329   0.0000       0.628076        17.0908 
 330   0.0000       0.631655        17.1882 
 331   0.0000       0.631862        17.1938 
 332   0.0000       0.637013        17.3340 
 333   0.0000       0.638372        17.3710 
 334   0.0000       0.638410        17.3720 
 335   0.0000       0.644489        17.5374 
 336   0.0000       0.645186        17.5564 
 337   0.0000       0.645356        17.5610 
 338   0.0000       0.649463        17.6728 
 339   0.0000       0.655647        17.8411 
 340   0.0000       0.655765        17.8443 
 341   0.0000       0.661991        18.0137 
 342   0.0000       0.662192        18.0192 
 343   0.0000       0.662896        18.0383 
 344   0.0000       0.667451        18.1623 
 345   0.0000       0.667663        18.1680 
 346   0.0000       0.668013        18.1776 
 347   0.0000       0.671703        18.2780 
 348   0.0000       0.671900        18.2833 
 349   0.0000       0.672083        18.2883 
 350   0.0000       0.677725        18.4418 
 351   0.0000       0.684434        18.6244 
 352   0.0000       0.684799        18.6343 
 353   0.0000       0.688717        18.7409 
 354   0.0000       0.690913        18.8007 
 355   0.0000       0.691034        18.8040 
 356   0.0000       0.693688        18.8762 
 357   0.0000       0.695493        18.9253 
 358   0.0000       0.695778        18.9331 
 359   0.0000       0.696070        18.9410 
 360   0.0000       0.701472        19.0880 
 361   0.0000       0.701513        19.0891 
 362   0.0000       0.705481        19.1971 
 363   0.0000       0.705631        19.2012 
 364   0.0000       0.705956        19.2100 
 365   0.0000       0.713024        19.4024 
 366   0.0000       0.716446        19.4955 
 367   0.0000       0.716451        19.4956 
 368   0.0000       0.719679        19.5835 
 369   0.0000       0.724196        19.7064 
 370   0.0000       0.724552        19.7161 
 371   0.0000       0.728398        19.8207 
 372   0.0000       0.730895        19.8887 
 373   0.0000       0.731030        19.8923 
 374   0.0000       0.733812        19.9680 
 375   0.0000       0.740830        20.1590 
 376   0.0000       0.744842        20.2682 
 377   0.0000       0.745079        20.2746 
 378   0.0000       0.749549        20.3963 
 379   0.0000       0.749883        20.4054 
 380   0.0000       0.750104        20.4114 
 381   0.0000       0.751878        20.4596 
 382   0.0000       0.752145        20.4669 
 383   0.0000       0.762578        20.7508 
 384   0.0000       0.762757        20.7557 
 385   0.0000       0.763812        20.7844 
 386   0.0000       0.770172        20.9574 
 387   0.0000       0.770552        20.9678 
 388   0.0000       0.777301        21.1514 
 389   0.0000       0.780711        21.2442 
 390   0.0000       0.780980        21.2515 
 391   0.0000       0.781965        21.2783 
 392   0.0000       0.786510        21.4020 
 393   0.0000       0.786827        21.4106 
 394   0.0000       0.789432        21.4815 
 395   0.0000       0.795575        21.6487 
 396   0.0000       0.798339        21.7239 
 397   0.0000       0.798719        21.7342 
 398   0.0000       0.801790        21.8178 
 399   0.0000       0.805681        21.9237 
 400   0.0000       0.805884        21.9292 
 401   0.0000       0.809279        22.0216 
 402   0.0000       0.815408        22.1884 
 403   0.0000       0.815728        22.1971 
 404   0.0000       0.819815        22.3083 
 405   0.0000       0.820010        22.3136 
 406   0.0000       0.823297        22.4031 
 407   0.0000       0.828812        22.5531 
 408   0.0000       0.840486        22.8708 
 409   0.0000       0.840983        22.8843 
 410   0.0000       0.841454        22.8971 
 411   0.0000       0.847119        23.0513 
 412   0.0000       0.850793        23.1513 
 413   0.0000       0.850973        23.1562 
 414   0.0000       0.866615        23.5818 
 415   0.0000       0.866793        23.5866 
 416   0.0000       0.876306        23.8455 
 417   0.0000       0.876461        23.8497 
 418   0.0000       0.876892        23.8614 
 419   0.0000       0.882831        24.0231 
 420   0.0000       0.885983        24.1088 
 421   0.0000       0.886466        24.1220 
 422   0.0000       0.888852        24.1869 
 423   0.0000       0.894355        24.3366 
 424   0.0000       0.894425        24.3385 
 425   0.0000       0.895315        24.3628 
 426   0.0000       0.907619        24.6976 
 427   0.0000       0.908008        24.7082 
 428   0.0000       0.908159        24.7123 
 429   0.0000       0.917362        24.9627 
 430   0.0000       0.921410        25.0728 
 431   0.0000       0.921867        25.0853 
 432   0.0000       0.930220        25.3126 
 433   0.0000       0.930711        25.3259 
 434   0.0000       0.935413        25.4539 
 435   0.0000       0.939104        25.5543 
 436   0.0000       0.939348        25.5610 
 437   0.0000       0.940700        25.5977 
 438   0.0000       0.948137        25.8001 
 439   0.0000       0.948381        25.8068 
 440   0.0000       0.960230        26.1292 
 441   0.0000       0.960316        26.1315 
 442   0.0000       0.962595        26.1936 
 443   0.0000       0.965829        26.2816 
 444   0.0000       0.966533        26.3007 
 445   0.0000       0.969649        26.3855 
 446   0.0000       0.978022        26.6133 
 447   0.0000       0.993630        27.0380 
 448   0.0000       0.994062        27.0498 
 449   0.0000       0.998811        27.1790 
 450   0.0000       0.999033        27.1851 
 451   0.0000       0.999202        27.1897 
 452   0.0000       1.008083        27.4313 
 453   0.0000       1.018272        27.7086 
 454   0.0000       1.018493        27.7146 
 455   0.0000       1.021918        27.8078 
 456   0.0000       1.028118        27.9765 
 457   0.0000       1.028396        27.9841 
 458   0.0000       1.033215        28.1152 
 459   0.0000       1.042323        28.3631 
 460   0.0000       1.044093        28.4112 
 461   0.0000       1.044370        28.4188 
 462   0.0000       1.047371        28.5004 
 463   0.0000       1.053639        28.6710 
 464   0.0000       1.053892        28.6779 
 465   0.0000       1.070329        29.1251 
 466   0.0000       1.075189        29.2574 
 467   0.0000       1.075393        29.2629 
 468   0.0000       1.088657        29.6238 
 469   0.0000       1.088958        29.6321 
 470   0.0000       1.090523        29.6746 
 471   0.0000       1.095095        29.7990 
 472   0.0000       1.095201        29.8019 
 473   0.0000       1.097044        29.8521 
 474   0.0000       1.107368        30.1330 
 475   0.0000       1.107884        30.1470 
 476   0.0000       1.121371        30.5141 
 477   0.0000       1.129100        30.7244 
 478   0.0000       1.129399        30.7325 
 479   0.0000       1.135129        30.8884 
 480   0.0000       1.135255        30.8918 
 481   0.0000       1.145290        31.1649 
 482   0.0000       1.154331        31.4109 
 483   0.0000       1.156729        31.4762 
 484   0.0000       1.156959        31.4825 
 485   0.0000       1.160343        31.5746 
 486   0.0000       1.170327        31.8462 
 487   0.0000       1.170602        31.8537 
 488   0.0000       1.174635        31.9635 
 489   0.0000       1.179496        32.0957 
 490   0.0000       1.179626        32.0993 
 491   0.0000       1.183081        32.1933 
 492   0.0000       1.186695        32.2916 
 493   0.0000       1.186942        32.2983 
 494   0.0000       1.201905        32.7055 
 495   0.0000       1.214656        33.0525 
 496   0.0000       1.216985        33.1158 
 497   0.0000       1.217251        33.1231 
 498   0.0000       1.228040        33.4167 
 499   0.0000       1.228447        33.4277 
 500   0.0000       1.233581        33.5674 
 501   0.0000       1.234008        33.5791 
 502   0.0000       1.237242        33.6671 
 503   0.0000       1.248562        33.9751 
 504   0.0000       1.249053        33.9885 
 505   0.0000       1.255027        34.1510 
 506   0.0000       1.260655        34.3042 
 507   0.0000       1.264157        34.3995 
 508   0.0000       1.264371        34.4053 
 509   0.0000       1.274687        34.6860 
 510   0.0000       1.279807        34.8253 
 511   0.0000       1.280250        34.8374 
 512   0.0000       1.291814        35.1521 
 513   0.0000       1.291978        35.1565 
 514   0.0000       1.293535        35.1989 
 515   0.0000       1.302599        35.4455 
 516   0.0000       1.302821        35.4516 
 517   0.0000       1.307235        35.5717 
 518   0.0000       1.314326        35.7646 
 519   0.0000       1.314609        35.7723 
 520   0.0000       1.315784        35.8043 
 521   0.0000       1.324318        36.0365 
 522   0.0000       1.327879        36.1334 
 523   0.0000       1.328057        36.1383 
 524   0.0000       1.334573        36.3156 
 525   0.0000       1.335053        36.3286 
 526   0.0000       1.335164        36.3317 
 527   0.0000       1.345621        36.6162 
 528   0.0000       1.345675        36.6177 
 529   0.0000       1.347690        36.6725 
 530   0.0000       1.360476        37.0204 
 531   0.0000       1.360764        37.0283 
 532   0.0000       1.365762        37.1643 
 533   0.0000       1.377424        37.4816 
 534   0.0000       1.377791        37.4916 
 535   0.0000       1.387152        37.7463 
 536   0.0000       1.396920        38.0121 
 537   0.0000       1.397096        38.0169 
 538   0.0000       1.405160        38.2364 
 539   0.0000       1.405496        38.2455 
 540   0.0000       1.405703        38.2511 
 541   0.0000       1.407069        38.2883 
 542   0.0000       1.411663        38.4133 
 543   0.0000       1.411896        38.4196 
 544   0.0000       1.414334        38.4860 
 545   0.0000       1.421953        38.6933 
 546   0.0000       1.431699        38.9585 
 547   0.0000       1.431944        38.9652 
 548   0.0000       1.440525        39.1987 
 549   0.0000       1.446390        39.3583 
 550   0.0000       1.446946        39.3734 
 551   0.0000       1.449870        39.4530 
 552   0.0000       1.452059        39.5125 
 553   0.0000       1.452457        39.5234 
 554   0.0000       1.461053        39.7573 
 555   0.0000       1.469506        39.9873 
 556   0.0000       1.469881        39.9975 
 557   0.0000       1.472013        40.0555 
 558   0.0000       1.474503        40.1233 
 559   0.0000       1.474818        40.1318 
 560   0.0000       1.477439        40.2032 
 561   0.0000       1.491238        40.5786 
 562   0.0000       1.491494        40.5856 
 563   0.0000       1.500642        40.8346 
 564   0.0000       1.509248        41.0687 
 565   0.0000       1.510183        41.0942 
 566   0.0000       1.525403        41.5083 
 567   0.0000       1.525494        41.5108 
 568   0.0000       1.538954        41.8771 
 569   0.0000       1.539372        41.8884 
 570   0.0000       1.542634        41.9772 
 571   0.0000       1.546082        42.0710 
 572   0.0000       1.550878        42.2015 
 573   0.0000       1.561281        42.4846 
 574   0.0000       1.567175        42.6450 
 575   0.0000       1.567489        42.6536 
 576   0.0000       1.574950        42.8566 
 577   0.0000       1.575092        42.8604 
 578   0.0000       1.576533        42.8996 
 579   0.0000       1.593776        43.3689 
 580   0.0000       1.597103        43.4594 
 581   0.0000       1.597471        43.4694 
 582   0.0000       1.608476        43.7688 
 583   0.0000       1.608874        43.7797 
 584   0.0000       1.624786        44.2127 
 585   0.0000       1.629541        44.3421 
 586   0.0000       1.630130        44.3581 
 587   0.0000       1.639104        44.6023 
 588   0.0000       1.645546        44.7776 
 589   0.0000       1.645773        44.7838 
 590   0.0000       1.656329        45.0710 
 591   0.0000       1.657140        45.0931 
 592   0.0000       1.657318        45.0979 
 593   0.0000       1.671588        45.4862 
 594   0.0000       1.674800        45.5736 
 595   0.0000       1.681245        45.7490 
 596   0.0000       1.690565        46.0026 
 597   0.0000       1.690856        46.0105 
 598   0.0000       1.700391        46.2700 
 599   0.0000       1.701013        46.2869 
 600   0.0000       1.705232        46.4017 
 601   0.0000       1.706928        46.4479 
 602   0.0000       1.707289        46.4577 
 603   0.0000       1.714556        46.6554 
 604   0.0000       1.723547        46.9001 
 605   0.0000       1.723983        46.9120 
 606   0.0000       1.735240        47.2183 
 607   0.0000       1.735474        47.2247 
 608   0.0000       1.735781        47.2330 
 609   0.0000       1.745605        47.5003 
 610   0.0000       1.746146        47.5150 
 611   0.0000       1.763773        47.9947 
 612   0.0000       1.764272        48.0083 
 613   0.0000       1.765548        48.0430 
 614   0.0000       1.772619        48.2354 
 615   0.0000       1.772946        48.2443 
 616   0.0000       1.776944        48.3531 
 617   0.0000       1.794114        48.8203 
 618   0.0000       1.801961        49.0339 
 619   0.0000       1.803742        49.0823 
 620   0.0000       1.803924        49.0873 
 621   0.0000       1.821323        49.5607 
 622   0.0000       1.821505        49.5657 
 623   0.0000       1.829296        49.7777 
 624   0.0000       1.834496        49.9192 
 625   0.0000       1.834912        49.9305 
 626   0.0000       1.852388        50.4060 
 627   0.0000       1.859150        50.5900 
 628   0.0000       1.859330        50.5949 
 629   0.0000       1.866246        50.7831 
 630   0.0000       1.866636        50.7938 
 631   0.0000       1.871308        50.9209 
 632   0.0000       1.882266        51.2191 
 633   0.0000       1.882466        51.2245 
 634   0.0000       1.890427        51.4411 
 635   0.0000       1.893394        51.5219 
 636   0.0000       1.893950        51.5370 
 637   0.0000       1.903663        51.8013 
 638   0.0000       1.922359        52.3100 
 639   0.0000       1.922681        52.3188 
 640   0.0000       1.926361        52.4189 
 641   0.0000       1.928864        52.4871 
 642   0.0000       1.933984        52.6264 
 643   0.0000       1.934416        52.6381 
 644   0.0000       1.943952        52.8976 
 645   0.0000       1.944186        52.9040 
 646   0.0000       1.944270        52.9063 
 647   0.0000       1.978053        53.8256 
 648   0.0000       1.978167        53.8287 
 649   0.0000       1.983958        53.9862 
 650   0.0000       1.988471        54.1090 
 651   0.0000       1.993201        54.2378 
 652   0.0000       1.993333        54.2413 
 653   0.0000       2.009068        54.6695 
 654   0.0000       2.009132        54.6713 
 655   0.0000       2.014723        54.8234 
 656   0.0000       2.022248        55.0282 
 657   0.0000       2.022465        55.0341 
 658   0.0000       2.033049        55.3221 
 659   0.0000       2.033920        55.3458 
 660   0.0000       2.034368        55.3580 
 661   0.0000       2.035611        55.3918 
 662   0.0000       2.051229        55.8168 
 663   0.0000       2.066607        56.2352 
 664   0.0000       2.066976        56.2453 
 665   0.0000       2.080556        56.6148 
 666   0.0000       2.080892        56.6240 
 667   0.0000       2.083646        56.6989 
 668   0.0000       2.092630        56.9434 
 669   0.0000       2.093022        56.9540 
 670   0.0000       2.119959        57.6870 
 671   0.0000       2.130070        57.9622 
 672   0.0000       2.132476        58.0276 
 673   0.0000       2.132797        58.0364 
 674   0.0000       2.170837        59.0715 
 675   0.0000       2.172803        59.1250 
 676   0.0000       2.173301        59.1385 
 677   0.0000       2.192520        59.6615 
 678   0.0000       2.193163        59.6790 
 679   0.0000       2.211553        60.1794 
 680   0.0000       2.217902        60.3522 
 681   0.0000       2.246762        61.1375 
 682   0.0000       2.247089        61.1464 
 683   0.0000       2.257217        61.4220 
 684   0.0000       2.264116        61.6097 
 685   0.0000       2.264390        61.6172 
 686   0.0000       2.280158        62.0462 
 687   0.0000       2.280233        62.0483 
 688   0.0000       2.289186        62.2919 
 689   0.0000       2.289607        62.3034 
 690   0.0000       2.302350        62.6501 
 691   0.0000       2.327478        63.3339 
 692   0.0000       2.336092        63.5683 
 693   0.0000       2.349134        63.9232 
 694   0.0000       2.349795        63.9412 
 695   0.0000       2.364549        64.3426 
 696   0.0000       2.364811        64.3498 
 697   0.0000       2.367919        64.4344 
 698   0.0000       2.373567        64.5880 
 699   0.0000       2.382355        64.8272 
 700   0.0000       2.382624        64.8345 
 701   0.0000       2.385150        64.9032 
 702   0.0000       2.396837        65.2213 
 703   0.0000       2.396997        65.2256 
 704   0.0000       2.410877        65.6033 
 705   0.0000       2.427764        66.0628 
 706   0.0000       2.428129        66.0728 
 707   0.0000       2.446462        66.5716 
 708   0.0000       2.447396        66.5970 
 709   0.0000       2.447621        66.6032 
 710   0.0000       2.492443        67.8228 
 711   0.0000       2.514817        68.4317 
 712   0.0000       2.514972        68.4359 
 713   0.0000       2.568244        69.8855 
 714   0.0000       2.569595        69.9222 
 715   0.0000       2.569702        69.9252 
 716   0.0000       2.589022        70.4509 
 717   0.0000       2.606723        70.9325 
 718   0.0000       2.607034        70.9410 
 719   0.0000       2.619197        71.2720 
 720   0.0000       2.635885        71.7261 
 721   0.0000       2.636096        71.7318 
 722   0.0000       2.670191        72.6596 
 723   0.0000       2.700483        73.4839 
 724   0.0000       2.700663        73.4888 
 725   0.0000       2.722949        74.0952 
 726   0.0000       2.723203        74.1021 
 727   0.0000       2.734095        74.3985 
 728   0.0000       2.750374        74.8415 
 729   0.0000       2.757596        75.0380 
 730   0.0000       2.780961        75.6738 
 731   0.0000       2.781104        75.6777 
 732   0.0000       2.793131        76.0049 
 733   0.0000       2.809117        76.4400 
 734   0.0000       2.809301        76.4450 
 735   0.0000       2.822062        76.7922 
 736   0.0000       2.833943        77.1155 
 737   0.0000       2.834152        77.1212 
 738   0.0000       2.834820        77.1394 
 739   0.0000       2.843836        77.3847 
 740   0.0000       2.843912        77.3868 
 741   0.0000       2.850985        77.5792 
 742   0.0000       2.851451        77.5919 
 743   0.0000       2.867253        78.0219 
 744   0.0000       2.870638        78.1140 
 745   0.0000       2.872342        78.1604 
 746   0.0000       2.872508        78.1649 
 747   0.0000       2.879697        78.3605 
 748   0.0000       2.888296        78.5945 
 749   0.0000       2.888476        78.5994 
 750   0.0000       2.897860        78.8548 
 751   0.0000       2.898293        78.8666 
 752   0.0000       2.912484        79.2527 
 753   0.0000       2.920246        79.4639 
 754   0.0000       2.921194        79.4897 
 755   0.0000       2.921480        79.4975 
 756   0.0000       2.925669        79.6115 
 757   0.0000       2.937491        79.9332 
 758   0.0000       2.937626        79.9369 
 759   0.0000       2.940624        80.0184 
 760   0.0000       2.950690        80.2924 
 761   0.0000       2.950792        80.2951 
 762   0.0000       2.953848        80.3783 
 763   0.0000       2.976900        81.0056 
 764   0.0000       2.979723        81.0824 
 765   0.0000       2.979898        81.0871 
 766   0.0000       2.989311        81.3433 
 767   0.0000       2.989406        81.3459 
 768   0.0000       2.999952        81.6329 
 769   0.0000       3.000276        81.6417 
 770   0.0000       3.000333        81.6432 
 771   0.0000       3.005520        81.7844 
 772   0.0000       3.009326        81.8879 
 773   0.0000       3.009458        81.8915 
 774   0.0000       3.032751        82.5254 
 775   0.0000       3.033043        82.5333 
 776   0.0000       3.033118        82.5353 
 777   0.0000       3.036486        82.6270 
 778   0.0000       3.048185        82.9453 
 779   0.0000       3.048315        82.9489 
 780   0.0000       3.054075        83.1056 
 781   0.0000       3.055469        83.1435 
 782   0.0000       3.055729        83.1506 
 783   0.0000       3.067879        83.4812 
 784   0.0000       3.068123        83.4879 
 785   0.0000       3.076957        83.7283 
 786   0.0000       3.078381        83.7670 
 787   0.0000       3.078808        83.7786 
 788   0.0000       3.091480        84.1235 
 789   0.0000       3.091627        84.1274 
 790   0.0000       3.092440        84.1496 
 791   0.0000       3.099958        84.3541 
 792   0.0000       3.105071        84.4933 
 793   0.0000       3.105678        84.5098 
 794   0.0000       3.105889        84.5155 
 795   0.0000       3.112193        84.6871 
 796   0.0000       3.112592        84.6979 
 797   0.0000       3.130079        85.1738 
 798   0.0000       3.130154        85.1758 
 799   0.0000       3.132055        85.2276 
 800   0.0000       3.143866        85.5489 
 801   0.0000       3.144153        85.5568 
 802   0.0000       3.144412        85.5638 
 803   0.0000       3.154011        85.8250 
 804   0.0000       3.163430        86.0813 
 805   0.0000       3.163742        86.0898 
 806   0.0000       3.181116        86.5626 
 807   0.0000       3.181498        86.5730 
 808   0.0000       3.182118        86.5898 
 809   0.0000       3.191354        86.8411 
 810   0.0000       3.194269        86.9205 
 811   0.0000       3.194520        86.9273 
 812   0.0000       3.198137        87.0257 
 813   0.0000       3.211055        87.3772 
 814   0.0000       3.213078        87.4323 
 815   0.0000       3.213451        87.4424 
 816   0.0000       3.224423        87.7410 
 817   0.0000       3.226558        87.7991 
 818   0.0000       3.226852        87.8071 
 819   0.0000       3.237998        88.1104 
 820   0.0000       3.238442        88.1225 
 821   0.0000       3.240728        88.1847 
 822   0.0000       3.249736        88.4298 
 823   0.0000       3.249934        88.4352 
 824   0.0000       3.255546        88.5879 
 825   0.0000       3.258683        88.6733 
 826   0.0000       3.258926        88.6799 
 827   0.0000       3.267499        88.9132 
 828   0.0000       3.268664        88.9449 
 829   0.0000       3.277568        89.1872 
 830   0.0000       3.277756        89.1923 
 831   0.0000       3.284971        89.3886 
 832   0.0000       3.285214        89.3952 
 833   0.0000       3.295640        89.6789 
 834   0.0000       3.296014        89.6891 
 835   0.0000       3.303402        89.8901 
 836   0.0000       3.307783        90.0094 
 837   0.0000       3.313395        90.1621 
 838   0.0000       3.313568        90.1668 
 839   0.0000       3.326927        90.5303 
 840   0.0000       3.335468        90.7627 
 841   0.0000       3.337882        90.8284 
 842   0.0000       3.337991        90.8313 
 843   0.0000       3.349896        91.1553 
 844   0.0000       3.350593        91.1743 
 845   0.0000       3.369145        91.6791 
 846   0.0000       3.369288        91.6830 
 847   0.0000       3.370982        91.7291 
 848   0.0000       3.381725        92.0214 
 849   0.0000       3.381980        92.0284 
 850   0.0000       3.388017        92.1926 
 851   0.0000       3.394838        92.3782 
 852   0.0000       3.399747        92.5118 
 853   0.0000       3.400141        92.5226 
 854   0.0000       3.412966        92.8715 
 855   0.0000       3.413836        92.8952 
 856   0.0000       3.414001        92.8997 
 857   0.0000       3.438753        93.5732 
 858   0.0000       3.438865        93.5763 
 859   0.0000       3.440463        93.6198 
 860   0.0000       3.449925        93.8772 
 861   0.0000       3.450369        93.8893 
 862   0.0000       3.461592        94.1947 
 863   0.0000       3.477340        94.6232 
 864   0.0000       3.481619        94.7397 
 865   0.0000       3.486190        94.8640 
 866   0.0000       3.486564        94.8742 
 867   0.0000       3.507143        95.4342 
 868   0.0000       3.507544        95.4451 
 869   0.0000       3.507792        95.4519 
 870   0.0000       3.520095        95.7867 
 871   0.0000       3.530471        96.0690 
 872   0.0000       3.544894        96.4615 
 873   0.0000       3.545112        96.4674 
 874   0.0000       3.548524        96.5602 
 875   0.0000       3.552514        96.6688 
 876   0.0000       3.552700        96.6739 
 877   0.0000       3.561949        96.9256 
 878   0.0000       3.562193        96.9322 
 879   0.0000       3.582225        97.4773 
 880   0.0000       3.582929        97.4965 
 881   0.0000       3.583333        97.5075 
 882   0.0000       3.587445        97.6193 
 883   0.0000       3.587781        97.6285 
 884   0.0000       3.598281        97.9142 
 885   0.0000       3.610708        98.2524 
 886   0.0000       3.610936        98.2586 
 887   0.0000       3.612357        98.2972 
 888   0.0000       3.619231        98.4843 
 889   0.0000       3.619439        98.4899 
 890   0.0000       3.619596        98.4942 
 891   0.0000       3.627147        98.6997 
 892   0.0000       3.627391        98.7063 
 893   0.0000       3.633499        98.8725 
 894   0.0000       3.633602        98.8753 
 895   0.0000       3.635276        98.9209 
 896   0.0000       3.640501        99.0631 
 897   0.0000       3.640898        99.0739 
 898   0.0000       3.641021        99.0772 
 899   0.0000       3.648220        99.2731 
 900   0.0000       3.653116        99.4064 
 901   0.0000       3.653358        99.4129 
 902   0.0000       3.671567        99.9084 
 903   0.0000       3.671788        99.9144 
 904   0.0000       3.682854       100.2156 
 905   0.0000       3.704232       100.7973 
 906   0.0000       3.704463       100.8036 
 907   0.0000       3.706626       100.8624 
 908   0.0000       3.719970       101.2255 
[...]
      dxz     :     0.002555
      dyz     :     0.007902
      dx2y2   :     0.006793
      dxy     :     0.007062
 20 H s       :     0.701360  s :     0.701360
      pz      :     0.143026  p :     0.327331
      px      :     0.090398
      py      :     0.093908
      dz2     :     0.009590  d :     0.030123
      dxz     :     0.009044
      dyz     :     0.008736
      dx2y2   :     0.001142
      dxy     :     0.001611
 21 H s       :     0.708576  s :     0.708576
      pz      :     0.100450  p :     0.334716
      px      :     0.122575
      py      :     0.111691
      dz2     :     0.005417  d :     0.029987
      dxz     :     0.006676
      dyz     :     0.003670
      dx2y2   :     0.007680
      dxy     :     0.006544
 22 C s       :     2.692274  s :     2.692274
      pz      :     0.938219  p :     2.811976
      px      :     0.938295
      py      :     0.935462
      dz2     :     0.109944  d :     0.491182
      dxz     :     0.070837
      dyz     :     0.086283
      dx2y2   :     0.080473
      dxy     :     0.143645
      f0      :     0.003379  f :     0.021748
      f+1     :     0.003780
      f-1     :     0.002452
      f+2     :     0.002567
      f-2     :     0.003091
      f+3     :     0.002266
      f-3     :     0.004212
 23 H s       :     0.711932  s :     0.711932
      pz      :     0.100464  p :     0.310516
      px      :     0.110358
      py      :     0.099694
      dz2     :     0.006231  d :     0.029810
      dxz     :     0.006008
      dyz     :     0.004404
      dx2y2   :     0.006525
      dxy     :     0.006642
 24 H s       :     0.708064  s :     0.708064
      pz      :     0.085585  p :     0.320596
      px      :     0.129047
      py      :     0.105964
      dz2     :     0.002709  d :     0.030115
      dxz     :     0.006988
      dyz     :     0.002808
      dx2y2   :     0.009008
      dxy     :     0.008603
 25 H s       :     0.705469  s :     0.705469
      pz      :     0.135775  p :     0.313354
      px      :     0.090055
      py      :     0.087524
      dz2     :     0.010373  d :     0.030205
      dxz     :     0.009043
      dyz     :     0.008736
      dx2y2   :     0.000908
      dxy     :     0.001143
 26 C s       :     2.692338  s :     2.692338
      pz      :     0.939505  p :     2.805972
      px      :     0.931879
      py      :     0.934587
      dz2     :     0.129290  d :     0.499564
      dxz     :     0.092410
      dyz     :     0.130114
      dx2y2   :     0.055006
      dxy     :     0.092745
      f0      :     0.003605  f :     0.021851
      f+1     :     0.002676
      f-1     :     0.002654
      f+2     :     0.003949
      f-2     :     0.003236
      f+3     :     0.000514
      f-3     :     0.005219
 27 H s       :     0.708963  s :     0.708963
      pz      :     0.097274  p :     0.312155
      px      :     0.117103
      py      :     0.097777
      dz2     :     0.004380  d :     0.029908
      dxz     :     0.006537
      dyz     :     0.004085
      dx2y2   :     0.007853
      dxy     :     0.007052
 28 H s       :     0.705197  s :     0.705197
      pz      :     0.108291  p :     0.339293
      px      :     0.089140
      py      :     0.141862
      dz2     :     0.006292  d :     0.030048
      dxz     :     0.002608
      dyz     :     0.008446
      dx2y2   :     0.005596
      dxy     :     0.007107
 29 H s       :     0.705729  s :     0.705729
      pz      :     0.096052  p :     0.340002
      px      :     0.139570
      py      :     0.104381
      dz2     :     0.002727  d :     0.030090
      dxz     :     0.006991
      dyz     :     0.003031
      dx2y2   :     0.009101
      dxy     :     0.008239
 30 C s       :     2.691120  s :     2.691120
      pz      :     0.939038  p :     2.806284
      px      :     0.936822
      py      :     0.930425
      dz2     :     0.078532  d :     0.494240
      dxz     :     0.104881
      dyz     :     0.078500
      dx2y2   :     0.126164
      dxy     :     0.106164
      f0      :     0.003945  f :     0.021784
      f+1     :     0.003657
      f-1     :     0.000802
      f+2     :     0.003536
      f-2     :     0.003572
      f+3     :     0.002424
      f-3     :     0.003848
 31 H s       :     0.710593  s :     0.710593
      pz      :     0.095660  p :     0.310498
      px      :     0.109520
      py      :     0.105318
      dz2     :     0.005543  d :     0.029858
      dxz     :     0.005396
      dyz     :     0.005071
      dx2y2   :     0.007563
      dxy     :     0.006285
 32 H s       :     0.701307  s :     0.701307
      pz      :     0.142949  p :     0.327343
      px      :     0.099375
      py      :     0.085019
      dz2     :     0.009574  d :     0.030122
      dxz     :     0.009186
      dyz     :     0.008557
      dx2y2   :     0.001354
      dxy     :     0.001450
 33 H s       :     0.708443  s :     0.708443
      pz      :     0.100696  p :     0.335251
      px      :     0.096992
      py      :     0.137564
      dz2     :     0.005436  d :     0.029988
      dxz     :     0.002002
      dyz     :     0.008362
      dx2y2   :     0.006406
      dxy     :     0.007783
 34 C s       :     2.692231  s :     2.692231
      pz      :     0.938238  p :     2.811953
      px      :     0.936441
      py      :     0.937274
      dz2     :     0.110073  d :     0.491240
      dxz     :     0.109331
      dyz     :     0.047569
      dx2y2   :     0.147472
      dxy     :     0.076795
      f0      :     0.003382  f :     0.021748
      f+1     :     0.001737
      f-1     :     0.004491
      f+2     :     0.002312
      f-2     :     0.003347
      f+3     :     0.002252
      f-3     :     0.004227
 35 H s       :     0.711931  s :     0.711931
      pz      :     0.100470  p :     0.310489
      px      :     0.119881
      py      :     0.090139
      dz2     :     0.006235  d :     0.029810
      dxz     :     0.006996
      dyz     :     0.003417
      dx2y2   :     0.007198
      dxy     :     0.005964
 36 H s       :     0.708066  s :     0.708066
      pz      :     0.085558  p :     0.320694
      px      :     0.091261
      py      :     0.143875
      dz2     :     0.002711  d :     0.030114
      dxz     :     0.000051
      dyz     :     0.009740
      dx2y2   :     0.007932
      dxy     :     0.009679
 37 H s       :     0.705465  s :     0.705465
      pz      :     0.135845  p :     0.313396
      px      :     0.089174
      py      :     0.088378
      dz2     :     0.010373  d :     0.030204
      dxz     :     0.009031
      dyz     :     0.008765
      dx2y2   :     0.001243
      dxy     :     0.000792
 38 C s       :     2.692321  s :     2.692321
      pz      :     0.939518  p :     2.805951
      px      :     0.936108
      py      :     0.930325
      dz2     :     0.129466  d :     0.499642
      dxz     :     0.143136
      dyz     :     0.079337
      dx2y2   :     0.095097
      dxy     :     0.052607
      f0      :     0.003616  f :     0.021855
      f+1     :     0.002227
      f-1     :     0.003087
      f+2     :     0.003458
      f-2     :     0.003735
      f+3     :     0.000506
      f-3     :     0.005225
 39 H s       :     0.708972  s :     0.708972
      pz      :     0.097294  p :     0.312157
      px      :     0.123311
      py      :     0.091551
      dz2     :     0.004384  d :     0.029909
      dxz     :     0.008132
      dyz     :     0.002489
      dx2y2   :     0.007874
      dxy     :     0.007030
 40 H s       :     0.705177  s :     0.705177
      pz      :     0.108208  p :     0.339404
      px      :     0.135220
      py      :     0.095976
      dz2     :     0.006277  d :     0.030052
      dxz     :     0.007764
      dyz     :     0.003285
      dx2y2   :     0.006516
      dxy     :     0.006210
 41 H s       :     0.705755  s :     0.705755
      pz      :     0.096042  p :     0.339938
      px      :     0.088934
      py      :     0.154962
      dz2     :     0.002731  d :     0.030092
      dxz     :     0.000070
      dyz     :     0.009953
      dx2y2   :     0.007799
      dxy     :     0.009538
 42 C s       :     2.691165  s :     2.691165
      pz      :     0.939119  p :     2.806460
      px      :     0.933406
      py      :     0.933935
      dz2     :     0.078807  d :     0.494095
      dxz     :     0.079479
      dyz     :     0.103487
      dx2y2   :     0.114889
      dxy     :     0.117434
      f0      :     0.003950  f :     0.021783
      f+1     :     0.000235
      f-1     :     0.004222
      f+2     :     0.003238
      f-2     :     0.003865
      f+3     :     0.002436
      f-3     :     0.003838
 43 H s       :     0.710673  s :     0.710673
      pz      :     0.095814  p :     0.310480
      px      :     0.123150
      py      :     0.091517
      dz2     :     0.005572  d :     0.029859
      dxz     :     0.007741
      dyz     :     0.002739
      dx2y2   :     0.006402
      dxy     :     0.007405
 44 H s       :     0.701340  s :     0.701340
      pz      :     0.142948  p :     0.327284
      px      :     0.086746
      py      :     0.097589
      dz2     :     0.009581  d :     0.030125
      dxz     :     0.008417
      dyz     :     0.009351
      dx2y2   :     0.001666
      dxy     :     0.001110
 45 H s       :     0.708572  s :     0.708572
      pz      :     0.100373  p :     0.334836
      px      :     0.132293
      py      :     0.102170
      dz2     :     0.005395  d :     0.029988
      dxz     :     0.006880
      dyz     :     0.003460
      dx2y2   :     0.007250
      dxy     :     0.007003


                      *****************************
                      * MAYER POPULATION ANALYSIS *
                      *****************************

  NA   - Mulliken gross atomic population
  ZA   - Total nuclear charge
  QA   - Mulliken gross atomic charge
  VA   - Mayer's total valence
  BVA  - Mayer's bonded valence
  FA   - Mayer's free valence

  ATOM       NA         ZA         QA         VA         BVA        FA
  0 Mo    15.9743    14.0000    -1.9743     7.5758     7.5758    -0.0000
  1 C      5.3896     6.0000     0.6104     3.0899     3.0899    -0.0000
  2 C      5.3801     6.0000     0.6199     3.0894     3.0894     0.0000
  3 C      5.3944     6.0000     0.6056     3.0950     3.0950    -0.0000
  4 O      8.4997     8.0000    -0.4997     1.8390     1.8390     0.0000
  5 O      8.4998     8.0000    -0.4998     1.8390     1.8390    -0.0000
  6 O      8.5005     8.0000    -0.5005     1.8398     1.8398    -0.0000
  7 P     13.8307    15.0000     1.1693     3.5860     3.5860    -0.0000
  8 P     13.8539    15.0000     1.1461     3.6112     3.6112    -0.0000
  9 P     13.8677    15.0000     1.1323     3.6282     3.6282    -0.0000
 10 C      6.6653     6.0000    -0.6653     4.0874     4.0874     0.0000
 11 H      0.8324     1.0000     0.1676     1.0455     1.0455     0.0000
 12 H      0.8728     1.0000     0.1272     1.0729     1.0729     0.0000
 13 H      0.8919     1.0000     0.1081     1.0681     1.0681     0.0000
 14 C      6.6358     6.0000    -0.6358     4.2199     4.2199    -0.0000
 15 H      0.8584     1.0000     0.1416     1.0717     1.0717     0.0000
 16 H      0.8236     1.0000     0.1764     1.0872     1.0872    -0.0000
 17 H      0.8671     1.0000     0.1329     1.1556     1.1556    -0.0000
 18 C      6.5303     6.0000    -0.5303     4.1868     4.1868    -0.0000
 19 H      0.8381     1.0000     0.1619     1.0778     1.0778    -0.0000
 20 H      0.8668     1.0000     0.1332     1.0884     1.0884    -0.0000
 21 H      0.9095     1.0000     0.0905     1.1435     1.1435    -0.0000
 22 C      6.6623     6.0000    -0.6623     4.0847     4.0847    -0.0000
 23 H      0.8340     1.0000     0.1660     1.0471     1.0471     0.0000
 24 H      0.8736     1.0000     0.1264     1.0719     1.0719     0.0000
 25 H      0.8900     1.0000     0.1100     1.0642     1.0642    -0.0000
 26 C      6.6453     6.0000    -0.6453     4.2293     4.2293    -0.0000
 27 H      0.8280     1.0000     0.1720     1.0938     1.0938    -0.0000
 28 H      0.8637     1.0000     0.1363     1.1503     1.1503     0.0000
 29 H      0.8593     1.0000     0.1407     1.0697     1.0697    -0.0000
 30 C      6.5330     6.0000    -0.5330     4.1863     4.1863     0.0000
 31 H      0.8408     1.0000     0.1592     1.0796     1.0796    -0.0000
 32 H      0.8648     1.0000     0.1352     1.0872     1.0872     0.0000
 33 H      0.9125     1.0000     0.0875     1.1448     1.1448     0.0000
 34 C      6.6657     6.0000    -0.6657     4.0862     4.0862    -0.0000
 35 H      0.8347     1.0000     0.1653     1.0476     1.0476    -0.0000
 36 H      0.8731     1.0000     0.1269     1.0727     1.0727     0.0000
 37 H      0.8889     1.0000     0.1111     1.0648     1.0648    -0.0000
 38 C      6.6465     6.0000    -0.6465     4.2211     4.2211     0.0000
 39 H      0.8289     1.0000     0.1711     1.0958     1.0958     0.0000
 40 H      0.8604     1.0000     0.1396     1.1482     1.1482     0.0000
 41 H      0.8593     1.0000     0.1407     1.0702     1.0702     0.0000
 42 C      6.5317     6.0000    -0.5317     4.1871     4.1871    -0.0000
 43 H      0.8428     1.0000     0.1572     1.0805     1.0805    -0.0000
 44 H      0.8679     1.0000     0.1321     1.0895     1.0895     0.0000
 45 H      0.9099     1.0000     0.0901     1.1428     1.1428     0.0000

  Mayer bond orders larger than 0.100000
B(  0-Mo,  1-C ) :   1.6360 B(  0-Mo,  2-C ) :   1.6391 B(  0-Mo,  3-C ) :   1.6409 
B(  0-Mo,  7-P ) :   0.5443 B(  0-Mo,  8-P ) :   0.5512 B(  0-Mo,  9-P ) :   0.5542 
B(  0-Mo, 10-C ) :   0.1033 B(  0-Mo, 22-C ) :   0.1009 B(  0-Mo, 34-C ) :   0.1012 
B(  0-Mo, 42-C ) :   0.1012 B(  1-C ,  2-C ) :  -0.1313 B(  1-C ,  3-C ) :  -0.1312 
B(  1-C ,  5-O ) :   1.5718 B(  2-C ,  3-C ) :  -0.1295 B(  2-C ,  6-O ) :   1.5723 
B(  3-C ,  4-O ) :   1.5731 B(  7-P ,  8-P ) :   0.1438 B(  7-P ,  9-P ) :   0.1430 
B(  7-P , 34-C ) :   0.7429 B(  7-P , 38-C ) :   0.8309 B(  7-P , 42-C ) :   0.7881 
B(  8-P ,  9-P ) :   0.1495 B(  8-P , 22-C ) :   0.7409 B(  8-P , 26-C ) :   0.8376 
B(  8-P , 30-C ) :   0.7906 B(  9-P , 10-C ) :   0.7436 B(  9-P , 14-C ) :   0.8381 
B(  9-P , 18-C ) :   0.7971 B( 10-C , 11-H ) :   0.9373 B( 10-C , 12-H ) :   0.9833 
B( 10-C , 13-H ) :   0.9858 B( 10-C , 14-C ) :   0.1430 B( 10-C , 18-C ) :   0.1637 
B( 14-C , 15-H ) :   0.9848 B( 14-C , 16-H ) :   0.9366 B( 14-C , 17-H ) :   1.0159 
B( 14-C , 18-C ) :   0.1579 B( 18-C , 19-H ) :   0.9529 B( 18-C , 20-H ) :   0.9393 
B( 18-C , 21-H ) :   1.0011 B( 22-C , 23-H ) :   0.9400 B( 22-C , 24-H ) :   0.9818 
B( 22-C , 25-H ) :   0.9844 B( 22-C , 26-C ) :   0.1442 B( 22-C , 30-C ) :   0.1639 
B( 26-C , 27-H ) :   0.9403 B( 26-C , 28-H ) :   1.0146 B( 26-C , 29-H ) :   0.9846 
B( 26-C , 30-C ) :   0.1594 B( 30-C , 31-H ) :   0.9562 B( 30-C , 32-H ) :   0.9390 
B( 30-C , 33-H ) :   1.0037 B( 34-C , 35-H ) :   0.9412 B( 34-C , 36-H ) :   0.9813 
B( 34-C , 37-H ) :   0.9820 B( 34-C , 38-C ) :   0.1435 B( 34-C , 42-C ) :   0.1634 
B( 38-C , 39-H ) :   0.9425 B( 38-C , 40-H ) :   1.0121 B( 38-C , 41-H ) :   0.9844 
B( 38-C , 42-C ) :   0.1598 B( 42-C , 43-H ) :   0.9573 B( 42-C , 44-H ) :   0.9385 
B( 42-C , 45-H ) :   1.0026 

-------
TIMINGS
-------

Total SCF time: 0 days 0 hours 0 min 47 sec 

Total time                  ....      47.862 sec
Sum of individual times     ....      46.102 sec  ( 96.3%)

Fock matrix formation       ....      34.462 sec  ( 72.0%)
  Split-RI-J                ....      11.763 sec  ( 34.1% of F)
  XC integration            ....      21.768 sec  ( 63.2% of F)
    Basis function eval.    ....       1.922 sec  (  8.8% of XC)
    Density eval.           ....       7.782 sec  ( 35.7% of XC)
    XC-Functional eval.     ....       0.159 sec  (  0.7% of XC)
    XC-Potential eval.      ....       9.688 sec  ( 44.5% of XC)
Diagonalization             ....       3.191 sec  (  6.7%)
Density matrix formation    ....       0.178 sec  (  0.4%)
Population analysis         ....       0.395 sec  (  0.8%)
Initial guess               ....       3.423 sec  (  7.2%)
Orbital Transformation      ....       0.000 sec  (  0.0%)
Orbital Orthonormalization  ....       0.000 sec  (  0.0%)
DIIS solution               ....       3.411 sec  (  7.1%)
Grid generation             ....       1.040 sec  (  2.2%)


-------------------------------------------------------------------------------
                          DFT DISPERSION CORRECTION                            
                                                                               
                              DFTD3 V3.1  Rev 1                                
                          USING Becke-Johnson damping                          
-------------------------------------------------------------------------------
The TPSS functional is recognized
Active option DFTDOPT                   ...         4   

molecular C6(AA) [au] = 29142.349168 


            DFT-D V3
 parameters
 s6 scaling factor         :     1.0000 
 a1 scaling factor         :     0.4535 
 s8 scaling factor         :     1.9435 
 a2 scaling factor         :     4.4752 
 ad hoc parameters k1-k3   :    16.0000     1.3333    -4.0000 

 Edisp/kcal,au: -65.181408048771  -0.103873174494 
 E6   /kcal   : -30.010149839 
 E8   /kcal   : -35.171258210 
 % E8         :  53.959034122 

-------------------------   ----------------
Dispersion correction           -0.103873174
-------------------------   ----------------


-------------------------   --------------------
FINAL SINGLE POINT ENERGY     -1792.322693604923
-------------------------   --------------------


                            ***************************************
                            *     ORCA property calculations      *
                            ***************************************

                                    ---------------------
                                    Active property flags
                                    ---------------------
   (+) Dipole Moment


------------------------------------------------------------------------------
                       ORCA ELECTRIC PROPERTIES CALCULATION
------------------------------------------------------------------------------

Dipole Moment Calculation                       ... on
Quadrupole Moment Calculation                   ... off
Polarizability Calculation                      ... off
GBWName                                         ... MOR37_pr38.gbw
Electron density file                           ... MOR37_pr38.scfp
The origin for moment calculation is the CENTER OF MASS  = ( 0.000065, -0.000237 -0.171282)

-------------
DIPOLE MOMENT
-------------
                                X             Y             Z
Electronic contribution:      0.03118      -0.08875     -63.21465
Nuclear contribution   :     -0.03125       0.09337      66.31953
                        -----------------------------------------
Total Dipole Moment    :     -0.00007       0.00462       3.10488
                        -----------------------------------------
Magnitude (a.u.)       :      3.10489
Magnitude (Debye)      :      7.89200



--------------------
Rotational spectrum 
--------------------
 
Rotational constants in cm-1:     0.008677     0.008672     0.007610 
Rotational constants in MHz :   260.126059   259.983430   228.154635 

 Dipole components along the rotational axes: 
x,y,z [a.u.] :    -0.000239     0.005039     3.104883 
x,y,z [Debye]:    -0.000608     0.012807     7.891985 

 

Timings for individual modules:

Sum of individual times         ...       55.279 sec (=   0.921 min)
GTO integral calculation        ...        7.019 sec (=   0.117 min)  12.7 %
SCF iterations                  ...       48.261 sec (=   0.804 min)  87.3 %
                             ****ORCA TERMINATED NORMALLY****
TOTAL RUN TIME: 0 days 0 hours 0 minutes 56 seconds 5 msec
