
                                 *****************
                                 * O   R   C   A *
                                 *****************

           --- An Ab Initio, DFT and Semiempirical electronic structure package ---

                  #######################################################
                  #                        -***-                        #
                  #          Department of theory and spectroscopy      #
                  #               Directorship: Frank Neese             #
                  #        Max Planck Institute fuer Kohlenforschung    #
                  #                Kaiser Wilhelm Platz 1               #
                  #                 D-45470 Muelheim/Ruhr               #
                  #                      Germany                        #
                  #                                                     #
                  #                  All rights reserved                #
                  #                        -***-                        #
                  #######################################################


                         Program Version 4.2.0 -  RELEASE  -


 With contributions from (in alphabetic order):
   Daniel Aravena         : Magnetic Suceptibility
   Michael Atanasov       : Ab Initio Ligand Field Theory (pilot matlab implementation)
   Alexander A. Auer      : GIAO ZORA, VPT2
   Ute Becker             : Parallelization
   Giovanni Bistoni       : ED, misc. LED, open-shell LED, HFLED
   Martin Brehm           : Molecular dynamics
   Dmytro Bykov           : SCF Hessian
   Vijay G. Chilkuri      : MRCI spin determinant printing, contributions to CSF-ICE
   Dipayan Datta          : RHF DLPNO-CCSD density
   Achintya Kumar Dutta   : EOM-CC, STEOM-CC
   Dmitry Ganyushin       : Spin-Orbit,Spin-Spin,Magnetic field MRCI
   Miquel Garcia          : C-PCM Hessian, Gaussian charge scheme
   Yang Guo               : DLPNO-NEVPT2, CIM, IAO-localization
   Andreas Hansen         : Spin unrestricted coupled pair/coupled cluster methods
   Benjamin Helmich-Paris : CASSCF linear response (MC-RPA)
   Lee Huntington         : MR-EOM, pCC
   Robert Izsak           : Overlap fitted RIJCOSX, COSX-SCS-MP3, EOM
   Christian Kollmar      : KDIIS, OOCD, Brueckner-CCSD(T), CCSD density
   Simone Kossmann        : Meta GGA functionals, TD-DFT gradient, OOMP2, MP2 Hessian
   Martin Krupicka        : AUTO-CI
   Lucas Lang             : DCDCAS
   Dagmar Lenk            : GEPOL surface, SMD
   Dimitrios Liakos       : Extrapolation schemes; Compound Job, initial MDCI parallelization
   Dimitrios Manganas     : Further ROCIS development; embedding schemes
   Dimitrios Pantazis     : SARC Basis sets
   Taras Petrenko         : DFT Hessian,TD-DFT gradient, ASA, ECA, R-Raman, ABS, FL, XAS/XES, NRVS
   Peter Pinski           : DLPNO-MP2, DLPNO-MP2 Gradient
   Christoph Reimann      : Effective Core Potentials
   Marius Retegan         : Local ZFS, SOC
   Christoph Riplinger    : Optimizer, TS searches, QM/MM, DLPNO-CCSD(T), (RO)-DLPNO pert. Triples
   Tobias Risthaus        : Range-separated hybrids, TD-DFT gradient, RPA, STAB
   Michael Roemelt        : Original ROCIS implementation
   Masaaki Saitow         : Open-shell DLPNO-CCSD energy and density
   Barbara Sandhoefer     : DKH picture change effects
   Avijit Sen             : IP-ROCIS
   Kantharuban Sivalingam : CASSCF convergence, NEVPT2, FIC-MRCI
   Bernardo de Souza      : ESD, SOC TD-DFT
   Georgi Stoychev        : AutoAux, RI-MP2 NMR
   Willem Van den Heuvel  : Paramagnetic NMR
   Boris Wezisla          : Elementary symmetry handling
   Frank Wennmohs         : Technical directorship


 We gratefully acknowledge several colleagues who have allowed us to
 interface, adapt or use parts of their codes:
   Stefan Grimme, W. Hujo, H. Kruse,             : VdW corrections, initial TS optimization,
                  C. Bannwarth                     DFT functionals, gCP, sTDA/sTD-DF
   Ed Valeev, F. Pavosevic, A. Kumar             : LibInt (2-el integral package), F12 methods
   Garnet Chan, S. Sharma, J. Yang, R. Olivares  : DMRG
   Ulf Ekstrom                                   : XCFun DFT Library
   Mihaly Kallay                                 : mrcc  (arbitrary order and MRCC methods)
   Andreas Klamt, Michael Diedenhofen            : otool_cosmo (COSMO solvation model)
   Jiri Pittner, Ondrej Demel                    : Mk-CCSD
   Frank Weinhold                                : gennbo (NPA and NBO analysis)
   Christopher J. Cramer and Donald G. Truhlar   : smd solvation model
   Lars Goerigk                                  : TD-DFT with DH, B97 family of functionals
   V. Asgeirsson, H. Jonsson                     : NEB implementation
   FAccTs GmbH                                   : IRC, NEB, NEB-TS, Multilevel, MM, QM/MM, CI optimization
   S Lehtola, MJT Oliveira, MAL Marques          : LibXC Library


 Your calculation uses the libint2 library for the computation of 2-el integrals
 For citations please refer to: http://libint.valeyev.net

 Your ORCA version has been built with support for libXC version: 4.2.3
 For citations please refer to: https://tddft.org/programs/libxc/

 This ORCA versions uses:
   CBLAS   interface :  Fast vector & matrix operations
   LAPACKE interface :  Fast linear algebra routines
   SCALAPACK package :  Parallel linear algebra routines


Your calculation utilizes the atom-pairwise dispersion correction
with the Becke-Johnson damping scheme (D3BJ)
Cite in your paper:
S.Grimme, S.Ehrlich, L.Goerigk, J Comput Chem, (2011), 32, 1456–1465 
S.Grimme, J.Antony, S.Ehrlich and H.Krieg, J.Chem.Phys., 132, (2010), 154104 
   

----- Orbital basis set information -----
Your calculation utilizes the basis: def2-TZVPPD
   F. Weigend and R. Ahlrichs, Phys. Chem. Chem. Phys. 7, 3297 (2005).
   D. Rappoport and F. Furche, J. Chem. Phys. 133 134105 (2010).

----- AuxJ basis set information -----
Your calculation utilizes the auxiliary basis: def2/J
   F. Weigend, Phys. Chem. Chem. Phys. 8, 1057 (2006).

================================================================================
                                        WARNINGS
                       Please study these warnings very carefully!
================================================================================


INFO   : the flag for use of LIBINT has been found!

================================================================================
                                       INPUT FILE
================================================================================
NAME = MOR30_pr12.in
|  1> #
|  2> # MOR30_pr12 TPSS-D3BJ/Def2-TZVPPD
|  3> #
|  4> ! tpss d3bj def2-tzvppd def2/j grid4 nofinalgrid
|  5> 
|  6> *xyz 0 1
|  7> Cr      -0.000015    0.000077   -0.030936 
|  8> O       -3.048010    0.000059    0.176284 
|  9> C       -1.899390    0.000055    0.076972 
| 10> C        0.001618   -0.001981    1.838499 
| 11> O        0.002800   -0.003409    2.993522 
| 12> C        1.899510    0.000027    0.074271 
| 13> O        3.048267   -0.000019    0.172029 
| 14> C       -0.000196    1.904845   -0.051611 
| 15> O       -0.000396    3.057825   -0.041163 
| 16> C       -0.000244   -1.904616   -0.055186 
| 17> O       -0.000506   -3.057616   -0.046760 
| 18> C       -0.692601    0.002127   -2.246320 
| 19> H       -1.244106   -0.917771   -2.406195 
| 20> H       -1.243862    0.922423   -2.404834 
| 21> C        0.689570    0.001986   -2.247230 
| 22> H        1.240812    0.922165   -2.406446 
| 23> H        1.240675   -0.918028   -2.407739 
| 24> *
| 25> 
| 26> %maxcore 5000
| 27> 
| 28> %pal
| 29> nprocs = 24
| 30> end
| 31> 
| 32> 
| 33>                          ****END OF INPUT****
================================================================================

                       ****************************
                       * Single Point Calculation *
                       ****************************

---------------------------------
CARTESIAN COORDINATES (ANGSTROEM)
---------------------------------
  Cr    -0.000015    0.000077   -0.030936
  O     -3.048010    0.000059    0.176284
  C     -1.899390    0.000055    0.076972
  C      0.001618   -0.001981    1.838499
  O      0.002800   -0.003409    2.993522
  C      1.899510    0.000027    0.074271
  O      3.048267   -0.000019    0.172029
  C     -0.000196    1.904845   -0.051611
  O     -0.000396    3.057825   -0.041163
  C     -0.000244   -1.904616   -0.055186
  O     -0.000506   -3.057616   -0.046760
  C     -0.692601    0.002127   -2.246320
  H     -1.244106   -0.917771   -2.406195
  H     -1.243862    0.922423   -2.404834
  C      0.689570    0.001986   -2.247230
  H      1.240812    0.922165   -2.406446
  H      1.240675   -0.918028   -2.407739

----------------------------
CARTESIAN COORDINATES (A.U.)
----------------------------
  NO LB      ZA    FRAG     MASS         X           Y           Z
   0 Cr   24.0000    0    52.000   -0.000028    0.000146   -0.058461
   1 O     8.0000    0    15.999   -5.759904    0.000111    0.333128
   2 C     6.0000    0    12.011   -3.589327    0.000104    0.145456
   3 C     6.0000    0    12.011    0.003058   -0.003744    3.474260
   4 O     8.0000    0    15.999    0.005291   -0.006442    5.656937
   5 C     6.0000    0    12.011    3.589554    0.000051    0.140352
   6 O     8.0000    0    15.999    5.760390   -0.000036    0.325088
   7 C     6.0000    0    12.011   -0.000370    3.599635   -0.097531
   8 O     8.0000    0    15.999   -0.000748    5.778452   -0.077787
   9 C     6.0000    0    12.011   -0.000461   -3.599203   -0.104286
  10 O     8.0000    0    15.999   -0.000956   -5.778057   -0.088364
  11 C     6.0000    0    12.011   -1.308826    0.004019   -4.244930
  12 H     1.0000    0     1.008   -2.351020   -1.734336   -4.547050
  13 H     1.0000    0     1.008   -2.350559    1.743127   -4.544478
  14 C     6.0000    0    12.011    1.303098    0.003753   -4.246649
  15 H     1.0000    0     1.008    2.344795    1.742639   -4.547524
  16 H     1.0000    0     1.008    2.344536   -1.734822   -4.549967

--------------------------------
INTERNAL COORDINATES (ANGSTROEM)
--------------------------------
 Cr     0   0   0     0.000000000000     0.00000000     0.00000000
 O      1   0   0     3.055030875253     0.00000000     0.00000000
 C      2   1   0     1.152905363748     1.05231170     0.00000000
 C      1   2   3     1.869436846026    86.16074383   180.09239677
 O      4   1   2     1.155024487549   179.98842661   137.88507603
 C      1   2   3     1.902436264629   172.94054995   180.04418130
 O      6   1   4     1.152909048333   178.30605126   359.96332525
 C      1   2   3     1.904880212037    90.03708688    89.40838194
 O      8   1   2     1.153027354881   178.85892270    85.88519596
 C      1   2   3     1.904847379501    90.04226574   270.75742385
 O     10   1   2     1.153030817507   178.85184584   274.19504469
 C      1   2   3     2.321121676550    76.52872678     0.08131834
 H     12   1   2     1.084403112802   106.96083706   297.49596825
 H     12   1   2     1.084416942847   106.97461437    62.51637637
 C     12   1   2     1.382171306757    72.67713796   180.00280841
 H     15  12   1     1.084410839701   120.55353131   260.15481243
 H     15  12   1     1.084391820470   120.55728906    99.82389988

---------------------------
INTERNAL COORDINATES (A.U.)
---------------------------
 Cr     0   0   0     0.000000000000     0.00000000     0.00000000
 O      1   0   0     5.773171684902     0.00000000     0.00000000
 C      2   1   0     2.178675395813     1.05231170     0.00000000
 C      1   2   3     3.532723663650    86.16074383   180.09239677
 O      4   1   2     2.182679959440   179.98842661   137.88507603
 C      1   2   3     3.595083527388   172.94054995   180.04418130
 O      6   1   4     2.178682358670   178.30605126   359.96332525
 C      1   2   3     3.599701918676    90.03708688    89.40838194
 O      8   1   2     2.178905925645   178.85892270    85.88519596
 C      1   2   3     3.599639874174    90.04226574   270.75742385
 O     10   1   2     2.178912469059   178.85184584   274.19504469
 C      1   2   3     4.386284292188    76.52872678     0.08131834
 H     12   1   2     2.049224901967   106.96083706   297.49596825
 H     12   1   2     2.049251036964   106.97461437    62.51637637
 C     12   1   2     2.611925239935    72.67713796   180.00280841
 H     15  12   1     2.049239503690   120.55353131   260.15481243
 H     15  12   1     2.049203562552   120.55728906    99.82389988

---------------------
BASIS SET INFORMATION
---------------------
There are 4 groups of distinct atoms

 Group   1 Type Cr  : 17s13p7d2f1g contracted to 6s6p4d2f1g pattern {842111/631111/4111/11/1}
 Group   2 Type O   : 12s7p3d1f contracted to 6s4p3d1f pattern {621111/4111/111/1}
 Group   3 Type C   : 12s6p3d1f contracted to 6s3p3d1f pattern {621111/411/111/1}
 Group   4 Type H   : 5s3p1d contracted to 3s3p1d pattern {311/111/1}

Atom   0Cr   basis set group =>   1
Atom   1O    basis set group =>   2
Atom   2C    basis set group =>   3
Atom   3C    basis set group =>   3
Atom   4O    basis set group =>   2
Atom   5C    basis set group =>   3
Atom   6O    basis set group =>   2
Atom   7C    basis set group =>   3
Atom   8O    basis set group =>   2
Atom   9C    basis set group =>   3
Atom  10O    basis set group =>   2
Atom  11C    basis set group =>   3
Atom  12H    basis set group =>   4
Atom  13H    basis set group =>   4
Atom  14C    basis set group =>   3
Atom  15H    basis set group =>   4
Atom  16H    basis set group =>   4
---------------------------------
AUXILIARY/J BASIS SET INFORMATION
---------------------------------
There are 4 groups of distinct atoms

 Group   1 Type Cr  : 19s5p5d3f3g contracted to 8s5p5d2f3g pattern {121111111/11111/11111/21/111}
 Group   2 Type O   : 12s5p4d2f1g contracted to 6s4p3d1f1g pattern {711111/2111/211/2/1}
 Group   3 Type C   : 12s5p4d2f1g contracted to 6s4p3d1f1g pattern {711111/2111/211/2/1}
 Group   4 Type H   : 5s2p1d contracted to 3s1p1d pattern {311/2/1}

Atom   0Cr   basis set group =>   1
Atom   1O    basis set group =>   2
Atom   2C    basis set group =>   3
Atom   3C    basis set group =>   3
Atom   4O    basis set group =>   2
Atom   5C    basis set group =>   3
Atom   6O    basis set group =>   2
Atom   7C    basis set group =>   3
Atom   8O    basis set group =>   2
Atom   9C    basis set group =>   3
Atom  10O    basis set group =>   2
Atom  11C    basis set group =>   3
Atom  12H    basis set group =>   4
Atom  13H    basis set group =>   4
Atom  14C    basis set group =>   3
Atom  15H    basis set group =>   4
Atom  16H    basis set group =>   4


           ************************************************************
           *        Program running with 24 parallel MPI-processes    *
           *              working on a common directory               *
           ************************************************************
------------------------------------------------------------------------------
                           ORCA GTO INTEGRAL CALCULATION
                           -- RI-GTO INTEGRALS CHOSEN --
------------------------------------------------------------------------------

                         BASIS SET STATISTICS AND STARTUP INFO

Gaussian basis set:
 # of primitive gaussian shells          ...  345
 # of primitive gaussian functions       ...  829
 # of contracted shells                  ...  208
 # of contracted basis functions         ...  594
 Highest angular momentum                ...    4
 Maximum contraction depth               ...    8
Auxiliary gaussian basis set:
 # of primitive gaussian shells          ...  355
 # of primitive gaussian functions       ... 1011
 # of contracted shells                  ...  223
 # of contracted aux-basis functions     ...  721
 Highest angular momentum                ...    4
 Maximum contraction depth               ...   12
Ratio of auxiliary to basis functions    ...  1.21
Integral package used                  ... LIBINT
 One Electron integrals                  ... done
 Ordering auxiliary basis shells         ... done
 Integral threshhold             Thresh  ...  1.000e-10
 Primitive cut-off               TCut    ...  1.000e-11
 Pre-screening matrix                    ... done
 Shell pair data                         ... 
 Ordering of the shell pairs             ... done (   0.003 sec) 19491 of 21736 pairs
 Determination of significant pairs      ... done (   0.000 sec)
 Creation of shell pair data             ... done (   0.002 sec)
 Storage of shell pair data              ... done (   0.012 sec)
 Shell pair data done in (   0.017 sec)
 Computing two index integrals           ... done
 Cholesky decomposition of the V-matrix  ... done


Timings:
 Total evaluation time                   ...   0.512 sec (  0.009 min)
 One electron matrix time                ...   0.159 sec (  0.003 min) = 31.1%
 Schwartz matrix evaluation time         ...   0.291 sec (  0.005 min) = 56.8%
 Two index repulsion integral time       ...   0.011 sec (  0.000 min) =  2.2%
 Cholesky decomposition of V             ...   0.008 sec (  0.000 min) =  1.6%
 Three index repulsion integral time     ...   0.000 sec (  0.000 min) =  0.0%



           ************************************************************
           *        Program running with 24 parallel MPI-processes    *
           *              working on a common directory               *
           ************************************************************
-------------------------------------------------------------------------------
                                 ORCA SCF
-------------------------------------------------------------------------------

------------
SCF SETTINGS
------------
Hamiltonian:
 Density Functional     Method          .... DFT(GTOs)
 Exchange Functional    Exchange        .... TPSS
 Correlation Functional Correlation     .... TPSS
 LDA part of GGA corr.  LDAOpt          .... PW91-LDA
 Gradients option       PostSCFGGA      .... off
   Density functional embedding theory  .... OFF
   NL short-range parameter             ....  5.000000
 RI-approximation to the Coulomb term is turned on
   Number of auxiliary basis functions  .... 721


General Settings:
 Integral files         IntName         .... MOR30_pr12
 Hartree-Fock type      HFTyp           .... RHF
 Total Charge           Charge          ....    0
 Multiplicity           Mult            ....    1
 Number of Electrons    NEL             ....  110
 Basis Dimension        Dim             ....  594
 Nuclear Repulsion      ENuc            ....   1031.0713484369 Eh

Convergence Acceleration:
 DIIS                   CNVDIIS         .... on
   Start iteration      DIISMaxIt       ....    12
   Startup error        DIISStart       ....  0.200000
   # of expansion vecs  DIISMaxEq       ....     5
   Bias factor          DIISBfac        ....   1.050
   Max. coefficient     DIISMaxC        ....  10.000
 Newton-Raphson         CNVNR           .... off
 SOSCF                  CNVSOSCF        .... off
 Level Shifting         CNVShift        .... on
   Level shift para.    LevelShift      ....    0.2500
   Turn off err/grad.   ShiftErr        ....    0.0010
 Zerner damping         CNVZerner       .... off
 Static damping         CNVDamp         .... on
   Fraction old density DampFac         ....    0.7000
   Max. Damping (<1)    DampMax         ....    0.9800
   Min. Damping (>=0)   DampMin         ....    0.0000
   Turn off err/grad.   DampErr         ....    0.1000
 Fernandez-Rico         CNVRico         .... off

SCF Procedure:
 Maximum # iterations   MaxIter         ....   125
 SCF integral mode      SCFMode         .... Direct
   Integral package                     .... LIBINT
 Reset frequency        DirectResetFreq ....    20
 Integral Threshold     Thresh          ....  1.000e-10 Eh
 Primitive CutOff       TCut            ....  1.000e-11 Eh

Convergence Tolerance:
 Convergence Check Mode ConvCheckMode   .... Total+1el-Energy
 Convergence forced     ConvForced      .... 0
 Energy Change          TolE            ....  1.000e-06 Eh
 1-El. energy change                    ....  1.000e-03 Eh
 DIIS Error             TolErr          ....  1.000e-06


Diagonalization of the overlap matrix:
Smallest eigenvalue                        ... 3.583e-06
Time for diagonalization                   ...    0.059 sec
Threshold for overlap eigenvalues          ... 1.000e-08
Number of eigenvalues below threshold      ... 0
Time for construction of square roots      ...    0.063 sec
Total time needed                          ...    0.124 sec

-------------------
DFT GRID GENERATION
-------------------

General Integration Accuracy     IntAcc      ...  4.670
Radial Grid Type                 RadialGrid  ... Gauss-Chebyshev
Angular Grid (max. acc.)         AngularGrid ... Lebedev-302
Angular grid pruning method      GridPruning ... 3 (G Style)
Weight generation scheme         WeightScheme... Becke
Basis function cutoff            BFCut       ...    1.0000e-10
Integration weight cutoff        WCut        ...    1.0000e-14
Grids for H and He will be reduced by one unit

# of grid points (after initial pruning)     ...  97784 (   0.0 sec)
# of grid points (after weights+screening)   ...  89263 (   0.0 sec)
nearest neighbour list constructed           ...    0.0 sec
Grid point re-assignment to atoms done       ...    0.0 sec
Grid point division into batches done        ...    0.4 sec
Reduced shell lists constructed in    0.4 sec

Total number of grid points                  ...    89263
Total number of batches                      ...     1406
Average number of points per batch           ...       63
Average number of grid points per atom       ...     5251
Average number of shells per batch           ...   159.33 (76.60%)
Average number of basis functions per batch  ...   475.20 (80.00%)
Average number of large shells per batch     ...   135.00 (84.73%)
Average number of large basis fcns per batch ...   400.60 (84.30%)
Maximum spatial batch extension              ...   1.93,  1.38,  1.44 au
Average spatial batch extension              ...   0.05,  0.04,  0.04 au

Time for grid setup =    0.515 sec

------------------------------
INITIAL GUESS: MODEL POTENTIAL
------------------------------
Loading Hartree-Fock densities                     ... done
Calculating cut-offs                               ... done
Setting up the integral package                    ... done
Initializing the effective Hamiltonian             ... done
Starting the Coulomb interaction                   ... done (   0.0 sec)
Reading the grid                                   ... done
Mapping shells                                     ... done
Starting the XC term evaluation                    ... done (   0.2 sec)
  promolecular density results
     # of electrons  =    109.997896004
     EX              =   -124.863021585
     EC              =     -3.899130025
     EX+EC           =   -128.762151610
Transforming the Hamiltonian                       ... done (   0.0 sec)
Diagonalizing the Hamiltonian                      ... done (   0.0 sec)
Back transforming the eigenvectors                 ... done (   0.0 sec)
Now organizing SCF variables                       ... done
                      ------------------
                      INITIAL GUESS DONE (   0.9 sec)
                      ------------------
--------------
SCF ITERATIONS
--------------
ITER       Energy         Delta-E        Max-DP      RMS-DP      [F,P]     Damp
               ***  Starting incremental Fock matrix formation  ***
  0  -1690.0632733021   0.000000000000 0.22644132  0.00129913  0.1546340 0.7000
  1  -1690.1709995012  -0.107726199091 0.12742790  0.00081541  0.0740655 0.7000
                               ***Turning on DIIS***
  2  -1690.2075864374  -0.036586936213 0.23529176  0.00162458  0.0414330 0.0000
  3  -1690.2630882253  -0.055501787905 0.04287675  0.00016827  0.1119018 0.7000
  4  -1690.2768600897  -0.013771864436 0.04846918  0.00036263  0.0593337 0.0000
  5  -1690.2865471431  -0.009687053359 0.03822692  0.00016149  0.0308076 0.0000
  6  -1690.2889109390  -0.002363795929 0.00891543  0.00004776  0.0042932 0.0000
  7  -1690.2889499319  -0.000038992853 0.00416369  0.00002841  0.0062959 0.0000
  8  -1690.2890021991  -0.000052267193 0.00593533  0.00002849  0.0008606 0.0000
  9  -1690.2889970003   0.000005198801 0.00313873  0.00001113  0.0018340 0.0000
 10  -1690.2890036612  -0.000006660953 0.00299377  0.00001578  0.0013817 0.0000
 11  -1690.2890061359  -0.000002474648 0.00716635  0.00002683  0.0005702 0.0000
 12  -1690.2890064616  -0.000000325734 0.00554272  0.00002374  0.0001611 0.0000
 13  -1690.2890064673  -0.000000005688 0.00225321  0.00000964  0.0002827 0.0000
 14  -1690.2890066689  -0.000000201580 0.00171554  0.00000735  0.0000671 0.0000
 15  -1690.2890065140   0.000000154893 0.00693569  0.00003125  0.0000233 0.0000
                 **** Energy Check signals convergence ****

               *****************************************************
               *                     SUCCESS                       *
               *           SCF CONVERGED AFTER  16 CYCLES          *
               *****************************************************


----------------
TOTAL SCF ENERGY
----------------

Total Energy       :        -1690.28900662 Eh          -45995.10222 eV

Components:
Nuclear Repulsion  :         1031.07134844 Eh           28056.87778 eV
Electronic Energy  :        -2721.36035506 Eh          -74051.97999 eV
One Electron Energy:        -4368.24215994 Eh         -118865.91220 eV
Two Electron Energy:         1646.88180488 Eh           44813.93221 eV

Virial components:
Potential Energy   :        -3376.19105530 Eh          -91870.82924 eV
Kinetic Energy     :         1685.90204867 Eh           45875.72702 eV
Virial Ratio       :            2.00260214


DFT components:
N(Alpha)           :       54.999967472487 electrons
N(Beta)            :       54.999967472487 electrons
N(Total)           :      109.999934944974 electrons
E(X)               :     -126.959626360522 Eh       
E(C)               :       -3.950705500970 Eh       
E(XC)              :     -130.910331861492 Eh       
DFET-embed. en.    :        0.000000000000 Eh       

---------------
SCF CONVERGENCE
---------------

  Last Energy change         ...   -1.1002e-07  Tolerance :   1.0000e-06
  Last MAX-Density change    ...    2.4953e-03  Tolerance :   1.0000e-05
  Last RMS-Density change    ...    1.5163e-05  Tolerance :   1.0000e-06
  Last DIIS Error            ...    6.2236e-06  Tolerance :   1.0000e-06

             **** THE GBW FILE WAS UPDATED (MOR30_pr12.gbw) ****
             **** DENSITY FILE WAS UPDATED (MOR30_pr12.scfp) ****
             **** ENERGY FILE WAS UPDATED (MOR30_pr12.en.tmp) ****
             **** THE GBW FILE WAS UPDATED (MOR30_pr12.gbw) ****
             **** DENSITY FILE WAS UPDATED (MOR30_pr12.scfp) ****
----------------
ORBITAL ENERGIES
----------------

  NO   OCC          E(Eh)            E(eV) 
   0   2.0000    -214.976515     -5849.8084 
   1   2.0000     -24.396694      -663.8678 
   2   2.0000     -20.705023      -563.4123 
   3   2.0000     -20.703269      -563.3646 
   4   2.0000     -20.702931      -563.3554 
   5   2.0000     -18.967761      -516.1390 
   6   2.0000     -18.967757      -516.1389 
   7   2.0000     -18.966209      -516.0968 
   8   2.0000     -18.966209      -516.0968 
   9   2.0000     -18.956952      -515.8449 
  10   2.0000     -10.103496      -274.9301 
  11   2.0000     -10.103494      -274.9300 
  12   2.0000     -10.099380      -274.8181 
  13   2.0000     -10.099375      -274.8180 
  14   2.0000     -10.096163      -274.7306 
  15   2.0000     -10.033046      -273.0131 
  16   2.0000     -10.032608      -273.0011 
  17   2.0000      -2.773646       -75.4747 
  18   2.0000      -1.749061       -47.5944 
  19   2.0000      -1.745154       -47.4881 
  20   2.0000      -1.745001       -47.4839 
  21   2.0000      -1.067547       -29.0494 
  22   2.0000      -1.067110       -29.0375 
  23   2.0000      -1.066711       -29.0267 
  24   2.0000      -1.066470       -29.0201 
  25   2.0000      -1.056877       -28.7591 
  26   2.0000      -0.748110       -20.3571 
  27   2.0000      -0.581762       -15.8305 
  28   2.0000      -0.558355       -15.1936 
  29   2.0000      -0.521502       -14.1908 
  30   2.0000      -0.518330       -14.1045 
  31   2.0000      -0.517417       -14.0796 
  32   2.0000      -0.512074       -13.9342 
  33   2.0000      -0.469150       -12.7662 
  34   2.0000      -0.447333       -12.1726 
  35   2.0000      -0.434787       -11.8312 
  36   2.0000      -0.433201       -11.7880 
  37   2.0000      -0.431602       -11.7445 
  38   2.0000      -0.429709       -11.6930 
  39   2.0000      -0.421448       -11.4682 
  40   2.0000      -0.419222       -11.4076 
  41   2.0000      -0.417101       -11.3499 
  42   2.0000      -0.410978       -11.1833 
  43   2.0000      -0.408111       -11.1053 
  44   2.0000      -0.405083       -11.0229 
  45   2.0000      -0.405037       -11.0216 
  46   2.0000      -0.403069       -10.9681 
  47   2.0000      -0.383823       -10.4443 
  48   2.0000      -0.371012       -10.0957 
  49   2.0000      -0.367563       -10.0019 
  50   2.0000      -0.360055        -9.7976 
  51   2.0000      -0.302184        -8.2228 
  52   2.0000      -0.228271        -6.2116 
  53   2.0000      -0.225356        -6.1322 
  54   2.0000      -0.213356        -5.8057 
  55   0.0000      -0.085082        -2.3152 
  56   0.0000      -0.076155        -2.0723 
  57   0.0000      -0.072293        -1.9672 
  58   0.0000      -0.063509        -1.7282 
  59   0.0000      -0.061953        -1.6858 
  60   0.0000      -0.042109        -1.1458 
  61   0.0000      -0.040517        -1.1025 
  62   0.0000      -0.038879        -1.0579 
  63   0.0000      -0.033603        -0.9144 
  64   0.0000      -0.026139        -0.7113 
  65   0.0000      -0.022560        -0.6139 
  66   0.0000      -0.014109        -0.3839 
  67   0.0000      -0.010288        -0.2799 
  68   0.0000      -0.007799        -0.2122 
  69   0.0000       0.001120         0.0305 
  70   0.0000       0.005964         0.1623 
  71   0.0000       0.007169         0.1951 
  72   0.0000       0.040070         1.0904 
  73   0.0000       0.040265         1.0957 
  74   0.0000       0.042280         1.1505 
  75   0.0000       0.045414         1.2358 
  76   0.0000       0.047728         1.2987 
  77   0.0000       0.066586         1.8119 
  78   0.0000       0.071440         1.9440 
  79   0.0000       0.074665         2.0317 
  80   0.0000       0.079868         2.1733 
  81   0.0000       0.084817         2.3080 
  82   0.0000       0.084966         2.3120 
  83   0.0000       0.089907         2.4465 
  84   0.0000       0.099399         2.7048 
  85   0.0000       0.102215         2.7814 
  86   0.0000       0.103347         2.8122 
  87   0.0000       0.107147         2.9156 
  88   0.0000       0.119012         3.2385 
  89   0.0000       0.124274         3.3817 
  90   0.0000       0.126761         3.4494 
  91   0.0000       0.126886         3.4527 
  92   0.0000       0.131451         3.5770 
  93   0.0000       0.135805         3.6954 
  94   0.0000       0.140177         3.8144 
  95   0.0000       0.145763         3.9664 
  96   0.0000       0.157608         4.2887 
  97   0.0000       0.166246         4.5238 
  98   0.0000       0.168575         4.5872 
  99   0.0000       0.177553         4.8315 
 100   0.0000       0.191980         5.2241 
 101   0.0000       0.193707         5.2710 
 102   0.0000       0.203765         5.5447 
 103   0.0000       0.204158         5.5554 
 104   0.0000       0.209546         5.7020 
 105   0.0000       0.216061         5.8793 
 106   0.0000       0.217136         5.9086 
 107   0.0000       0.220893         6.0108 
 108   0.0000       0.235911         6.4195 
 109   0.0000       0.239074         6.5055 
 110   0.0000       0.240246         6.5374 
 111   0.0000       0.244768         6.6605 
 112   0.0000       0.248892         6.7727 
 113   0.0000       0.256283         6.9738 
 114   0.0000       0.266506         7.2520 
 115   0.0000       0.270794         7.3687 
 116   0.0000       0.274996         7.4830 
 117   0.0000       0.279782         7.6132 
 118   0.0000       0.280473         7.6321 
 119   0.0000       0.283720         7.7204 
 120   0.0000       0.287169         7.8143 
 121   0.0000       0.294104         8.0030 
 122   0.0000       0.297998         8.1089 
 123   0.0000       0.300615         8.1801 
 124   0.0000       0.304416         8.2836 
 125   0.0000       0.311851         8.4859 
 126   0.0000       0.322363         8.7719 
 127   0.0000       0.324301         8.8247 
 128   0.0000       0.331022         9.0076 
 129   0.0000       0.340793         9.2734 
 130   0.0000       0.341467         9.2918 
 131   0.0000       0.341956         9.3051 
 132   0.0000       0.348715         9.4890 
 133   0.0000       0.353962         9.6318 
 134   0.0000       0.355551         9.6750 
 135   0.0000       0.359477         9.7819 
 136   0.0000       0.360047         9.7974 
 137   0.0000       0.367873        10.0103 
 138   0.0000       0.370425        10.0798 
 139   0.0000       0.371606        10.1119 
 140   0.0000       0.373915        10.1747 
 141   0.0000       0.379444        10.3252 
 142   0.0000       0.383903        10.4465 
 143   0.0000       0.390159        10.6168 
 144   0.0000       0.398562        10.8454 
 145   0.0000       0.400254        10.8915 
 146   0.0000       0.406633        11.0650 
 147   0.0000       0.410259        11.1637 
 148   0.0000       0.411925        11.2090 
 149   0.0000       0.424671        11.5559 
 150   0.0000       0.427848        11.6423 
 151   0.0000       0.433948        11.8083 
 152   0.0000       0.444171        12.0865 
 153   0.0000       0.447764        12.1843 
 154   0.0000       0.453753        12.3473 
 155   0.0000       0.459329        12.4990 
 156   0.0000       0.463861        12.6223 
 157   0.0000       0.465151        12.6574 
 158   0.0000       0.482474        13.1288 
 159   0.0000       0.488696        13.2981 
 160   0.0000       0.489213        13.3122 
 161   0.0000       0.491754        13.3813 
 162   0.0000       0.498323        13.5601 
 163   0.0000       0.498738        13.5714 
 164   0.0000       0.508428        13.8350 
 165   0.0000       0.514981        14.0134 
 166   0.0000       0.515312        14.0223 
 167   0.0000       0.519203        14.1282 
 168   0.0000       0.527436        14.3523 
 169   0.0000       0.533896        14.5280 
 170   0.0000       0.544320        14.8117 
 171   0.0000       0.545293        14.8382 
 172   0.0000       0.553869        15.0715 
 173   0.0000       0.556712        15.1489 
 174   0.0000       0.569284        15.4910 
 175   0.0000       0.573783        15.6134 
 176   0.0000       0.580367        15.7926 
 177   0.0000       0.587558        15.9883 
 178   0.0000       0.588084        16.0026 
 179   0.0000       0.591347        16.0914 
 180   0.0000       0.601012        16.3544 
 181   0.0000       0.602038        16.3823 
 182   0.0000       0.605045        16.4641 
 183   0.0000       0.605119        16.4661 
 184   0.0000       0.609894        16.5961 
 185   0.0000       0.622417        16.9368 
 186   0.0000       0.629043        17.1171 
 187   0.0000       0.635915        17.3041 
 188   0.0000       0.642998        17.4969 
 189   0.0000       0.645899        17.5758 
 190   0.0000       0.647459        17.6183 
 191   0.0000       0.648460        17.6455 
 192   0.0000       0.657444        17.8900 
 193   0.0000       0.671310        18.2673 
 194   0.0000       0.676815        18.4171 
 195   0.0000       0.683018        18.5859 
 196   0.0000       0.685775        18.6609 
 197   0.0000       0.689092        18.7512 
 198   0.0000       0.691327        18.8120 
 199   0.0000       0.693459        18.8700 
 200   0.0000       0.710838        19.3429 
 201   0.0000       0.715652        19.4739 
 202   0.0000       0.719411        19.5762 
 203   0.0000       0.719450        19.5772 
 204   0.0000       0.723234        19.6802 
 205   0.0000       0.733848        19.9690 
 206   0.0000       0.735599        20.0167 
 207   0.0000       0.745053        20.2739 
 208   0.0000       0.746758        20.3203 
 209   0.0000       0.747942        20.3525 
 210   0.0000       0.749467        20.3940 
 211   0.0000       0.754977        20.5440 
 212   0.0000       0.770417        20.9641 
 213   0.0000       0.780202        21.2304 
 214   0.0000       0.781683        21.2707 
 215   0.0000       0.785060        21.3626 
 216   0.0000       0.792594        21.5676 
 217   0.0000       0.811792        22.0900 
 218   0.0000       0.813273        22.1303 
 219   0.0000       0.819104        22.2890 
 220   0.0000       0.820915        22.3382 
 221   0.0000       0.834698        22.7133 
 222   0.0000       0.836835        22.7714 
 223   0.0000       0.845319        23.0023 
 224   0.0000       0.856080        23.2951 
 225   0.0000       0.868579        23.6352 
 226   0.0000       0.870557        23.6891 
 227   0.0000       0.871274        23.7086 
 228   0.0000       0.875545        23.8248 
 229   0.0000       0.887014        24.1369 
 230   0.0000       0.889863        24.2144 
 231   0.0000       0.897580        24.4244 
 232   0.0000       0.902290        24.5526 
 233   0.0000       0.906282        24.6612 
 234   0.0000       0.908225        24.7141 
 235   0.0000       0.909380        24.7455 
 236   0.0000       0.920422        25.0460 
 237   0.0000       0.927931        25.2503 
 238   0.0000       0.935567        25.4581 
 239   0.0000       0.951590        25.8941 
 240   0.0000       0.958019        26.0690 
 241   0.0000       0.958496        26.0820 
 242   0.0000       0.981865        26.7179 
 243   0.0000       0.986463        26.8430 
 244   0.0000       0.987436        26.8695 
 245   0.0000       0.998708        27.1762 
 246   0.0000       1.009058        27.4579 
 247   0.0000       1.011654        27.5285 
 248   0.0000       1.021700        27.8019 
 249   0.0000       1.024900        27.8890 
 250   0.0000       1.049404        28.5557 
 251   0.0000       1.052810        28.6484 
 252   0.0000       1.080360        29.3981 
 253   0.0000       1.082133        29.4463 
 254   0.0000       1.088418        29.6174 
 255   0.0000       1.096807        29.8456 
 256   0.0000       1.120133        30.4804 
 257   0.0000       1.132046        30.8045 
 258   0.0000       1.161492        31.6058 
 259   0.0000       1.175931        31.9987 
 260   0.0000       1.192117        32.4391 
 261   0.0000       1.204316        32.7711 
 262   0.0000       1.205474        32.8026 
 263   0.0000       1.228944        33.4413 
 264   0.0000       1.229392        33.4535 
 265   0.0000       1.232955        33.5504 
 266   0.0000       1.247403        33.9436 
 267   0.0000       1.280769        34.8515 
 268   0.0000       1.294807        35.2335 
 269   0.0000       1.306005        35.5382 
 270   0.0000       1.306514        35.5520 
 271   0.0000       1.308098        35.5952 
 272   0.0000       1.325483        36.0682 
 273   0.0000       1.326287        36.0901 
 274   0.0000       1.332815        36.2678 
 275   0.0000       1.339145        36.4400 
 276   0.0000       1.347353        36.6633 
 277   0.0000       1.366343        37.1801 
 278   0.0000       1.372376        37.3443 
 279   0.0000       1.372637        37.3514 
 280   0.0000       1.375433        37.4274 
 281   0.0000       1.402848        38.1734 
 282   0.0000       1.410814        38.3902 
 283   0.0000       1.414611        38.4935 
 284   0.0000       1.464845        39.8605 
 285   0.0000       1.466754        39.9124 
 286   0.0000       1.527644        41.5693 
 287   0.0000       1.558337        42.4045 
 288   0.0000       1.610994        43.8374 
 289   0.0000       1.616367        43.9836 
 290   0.0000       1.621938        44.1352 
 291   0.0000       1.641680        44.6724 
 292   0.0000       1.648722        44.8640 
 293   0.0000       1.652290        44.9611 
 294   0.0000       1.652411        44.9644 
 295   0.0000       1.662876        45.2492 
 296   0.0000       1.686305        45.8867 
 297   0.0000       1.687589        45.9216 
 298   0.0000       1.706167        46.4272 
 299   0.0000       1.722253        46.8649 
 300   0.0000       1.725197        46.9450 
 301   0.0000       1.739510        47.3345 
 302   0.0000       1.752693        47.6932 
 303   0.0000       1.753779        47.7227 
 304   0.0000       1.758801        47.8594 
 305   0.0000       1.762285        47.9542 
 306   0.0000       1.763518        47.9878 
 307   0.0000       1.784807        48.5671 
 308   0.0000       1.787221        48.6327 
 309   0.0000       1.789568        48.6966 
 310   0.0000       1.791203        48.7411 
 311   0.0000       1.805430        49.1283 
 312   0.0000       1.808434        49.2100 
 313   0.0000       1.825190        49.6659 
 314   0.0000       1.838806        50.0365 
 315   0.0000       1.851434        50.3801 
 316   0.0000       1.866001        50.7765 
 317   0.0000       1.881054        51.1861 
 318   0.0000       1.911981        52.0276 
 319   0.0000       1.916383        52.1474 
 320   0.0000       1.924176        52.3595 
 321   0.0000       1.958183        53.2849 
 322   0.0000       1.963332        53.4250 
 323   0.0000       1.964914        53.4680 
 324   0.0000       1.975152        53.7466 
 325   0.0000       1.982749        53.9533 
 326   0.0000       1.988096        54.0988 
 327   0.0000       2.006718        54.6056 
 328   0.0000       2.006813        54.6082 
 329   0.0000       2.024035        55.0768 
 330   0.0000       2.054392        55.9028 
 331   0.0000       2.081641        56.6443 
 332   0.0000       2.089062        56.8463 
 333   0.0000       2.112913        57.4953 
 334   0.0000       2.138579        58.1937 
 335   0.0000       2.165427        58.9243 
 336   0.0000       2.184914        59.4545 
 337   0.0000       2.204248        59.9806 
 338   0.0000       2.205963        60.0273 
 339   0.0000       2.212797        60.2133 
 340   0.0000       2.218140        60.3587 
 341   0.0000       2.257163        61.4205 
 342   0.0000       2.290757        62.3347 
 343   0.0000       2.295281        62.4578 
 344   0.0000       2.315144        62.9983 
 345   0.0000       2.323045        63.2133 
 346   0.0000       2.325456        63.2789 
 347   0.0000       2.333492        63.4975 
 348   0.0000       2.348969        63.9187 
 349   0.0000       2.350945        63.9725 
 350   0.0000       2.353555        64.0435 
 351   0.0000       2.358230        64.1707 
 352   0.0000       2.368540        64.4512 
 353   0.0000       2.379015        64.7363 
 354   0.0000       2.411673        65.6250 
 355   0.0000       2.461533        66.9817 
 356   0.0000       2.519032        68.5464 
 357   0.0000       2.594812        70.6084 
 358   0.0000       2.618892        71.2637 
 359   0.0000       2.639479        71.8239 
 360   0.0000       2.645381        71.9845 
 361   0.0000       2.683008        73.0084 
 362   0.0000       2.684287        73.0432 
 363   0.0000       2.688827        73.1667 
 364   0.0000       2.697387        73.3996 
 365   0.0000       2.706670        73.6522 
 366   0.0000       2.725870        74.1747 
 367   0.0000       2.735064        74.4249 
 368   0.0000       2.739772        74.5530 
 369   0.0000       2.761171        75.1353 
 370   0.0000       2.765333        75.2485 
 371   0.0000       2.765883        75.2635 
 372   0.0000       2.775475        75.5245 
 373   0.0000       2.785290        75.7916 
 374   0.0000       2.815931        76.6254 
 375   0.0000       2.819003        76.7090 
 376   0.0000       2.821280        76.7709 
 377   0.0000       2.822647        76.8081 
 378   0.0000       2.852983        77.6336 
 379   0.0000       2.873108        78.1812 
 380   0.0000       2.895594        78.7931 
 381   0.0000       2.907697        79.1225 
 382   0.0000       2.929843        79.7251 
 383   0.0000       2.929857        79.7255 
 384   0.0000       2.930960        79.7555 
 385   0.0000       2.933195        79.8163 
 386   0.0000       2.985097        81.2286 
 387   0.0000       2.986185        81.2582 
 388   0.0000       3.006496        81.8109 
 389   0.0000       3.009015        81.8795 
 390   0.0000       3.014102        82.0179 
 391   0.0000       3.023866        82.2836 
 392   0.0000       3.049305        82.9758 
 393   0.0000       3.063018        83.3490 
 394   0.0000       3.077491        83.7428 
 395   0.0000       3.077879        83.7533 
 396   0.0000       3.083878        83.9166 
 397   0.0000       3.096899        84.2709 
 398   0.0000       3.104937        84.4896 
 399   0.0000       3.110726        84.6471 
 400   0.0000       3.111492        84.6680 
 401   0.0000       3.114825        84.7587 
 402   0.0000       3.122743        84.9742 
 403   0.0000       3.140241        85.4503 
 404   0.0000       3.157407        85.9174 
 405   0.0000       3.198959        87.0481 
 406   0.0000       3.200454        87.0888 
 407   0.0000       3.213378        87.4405 
 408   0.0000       3.215627        87.5017 
 409   0.0000       3.220739        87.6408 
 410   0.0000       3.229866        87.8891 
 411   0.0000       3.232169        87.9518 
 412   0.0000       3.238160        88.1148 
 413   0.0000       3.268720        88.9464 
 414   0.0000       3.269058        88.9556 
 415   0.0000       3.284269        89.3695 
 416   0.0000       3.300555        89.8127 
 417   0.0000       3.374388        91.8218 
 418   0.0000       3.380260        91.9816 
 419   0.0000       3.390902        92.2711 
 420   0.0000       3.394073        92.3574 
 421   0.0000       3.402398        92.5840 
 422   0.0000       3.404427        92.6392 
 423   0.0000       3.412622        92.8622 
 424   0.0000       3.421320        93.0989 
 425   0.0000       3.424484        93.1850 
 426   0.0000       3.429680        93.3263 
 427   0.0000       3.439834        93.6026 
 428   0.0000       3.456056        94.0441 
 429   0.0000       3.459525        94.1384 
 430   0.0000       3.459716        94.1437 
 431   0.0000       3.460929        94.1767 
 432   0.0000       3.461806        94.2005 
 433   0.0000       3.473987        94.5320 
 434   0.0000       3.483206        94.7828 
 435   0.0000       3.491924        95.0201 
 436   0.0000       3.509911        95.5095 
 437   0.0000       3.523934        95.8911 
 438   0.0000       3.563308        96.9625 
 439   0.0000       3.567928        97.0882 
 440   0.0000       3.581726        97.4637 
 441   0.0000       3.615059        98.3708 
 442   0.0000       3.621346        98.5418 
 443   0.0000       3.637288        98.9756 
 444   0.0000       3.640256        99.0564 
 445   0.0000       3.658386        99.5497 
 446   0.0000       3.666293        99.7649 
 447   0.0000       3.683996       100.2466 
 448   0.0000       3.692149       100.4685 
 449   0.0000       3.696684       100.5919 
 450   0.0000       3.742299       101.8331 
 451   0.0000       3.757743       102.2534 
 452   0.0000       3.790313       103.1397 
 453   0.0000       3.826509       104.1246 
 454   0.0000       3.835236       104.3621 
 455   0.0000       3.841911       104.5437 
 456   0.0000       3.848496       104.7229 
 457   0.0000       3.878141       105.5296 
 458   0.0000       3.892004       105.9068 
 459   0.0000       3.899020       106.0977 
 460   0.0000       3.905451       106.2727 
 461   0.0000       3.922877       106.7469 
 462   0.0000       3.928547       106.9012 
 463   0.0000       3.933676       107.0408 
 464   0.0000       3.939697       107.2046 
 465   0.0000       4.023341       109.4807 
 466   0.0000       4.046685       110.1159 
 467   0.0000       4.100887       111.5908 
 468   0.0000       4.132889       112.4616 
 469   0.0000       4.263506       116.0159 
 470   0.0000       4.264067       116.0312 
 471   0.0000       4.295539       116.8876 
 472   0.0000       4.353900       118.4757 
 473   0.0000       4.361284       118.6766 
 474   0.0000       4.381932       119.2384 
 475   0.0000       4.382969       119.2667 
 476   0.0000       4.422786       120.3501 
 477   0.0000       4.444890       120.9516 
 478   0.0000       4.457652       121.2989 
 479   0.0000       4.491474       122.2192 
 480   0.0000       4.496730       122.3623 
 481   0.0000       4.513825       122.8274 
 482   0.0000       4.529681       123.2589 
 483   0.0000       4.569262       124.3359 
 484   0.0000       4.683220       127.4369 
 485   0.0000       4.705616       128.0463 
 486   0.0000       4.734352       128.8283 
 487   0.0000       4.740963       129.0082 
 488   0.0000       4.745073       129.1200 
 489   0.0000       4.769849       129.7942 
 490   0.0000       4.805265       130.7579 
 491   0.0000       4.810703       130.9059 
 492   0.0000       4.870592       132.5356 
 493   0.0000       4.983748       135.6147 
 494   0.0000       5.065501       137.8393 
 495   0.0000       5.083250       138.3223 
 496   0.0000       5.083400       138.3263 
 497   0.0000       5.084961       138.3688 
 498   0.0000       5.086657       138.4150 
 499   0.0000       5.087295       138.4323 
 500   0.0000       5.087647       138.4419 
 501   0.0000       5.089663       138.4968 
 502   0.0000       5.090284       138.5137 
 503   0.0000       5.095673       138.6603 
 504   0.0000       5.098828       138.7462 
 505   0.0000       5.104919       138.9119 
 506   0.0000       5.261953       143.1850 
 507   0.0000       5.281732       143.7232 
 508   0.0000       5.334947       145.1713 
 509   0.0000       5.476628       149.0266 
 510   0.0000       5.484097       149.2299 
 511   0.0000       5.485996       149.2815 
 512   0.0000       5.489722       149.3829 
 513   0.0000       5.490947       149.4163 
 514   0.0000       5.494233       149.5057 
 515   0.0000       5.498760       149.6289 
 516   0.0000       5.505456       149.8111 
 517   0.0000       5.512004       149.9893 
 518   0.0000       5.552130       151.0811 
 519   0.0000       5.559498       151.2816 
 520   0.0000       5.602776       152.4593 
 521   0.0000       5.619121       152.9041 
 522   0.0000       5.623747       153.0299 
 523   0.0000       5.661794       154.0652 
 524   0.0000       5.688049       154.7797 
 525   0.0000       5.690545       154.8476 
 526   0.0000       5.700400       155.1158 
 527   0.0000       5.711946       155.4300 
 528   0.0000       5.781523       157.3232 
 529   0.0000       5.871216       159.7639 
 530   0.0000       5.871637       159.7754 
 531   0.0000       5.975524       162.6023 
 532   0.0000       6.122345       166.5975 
 533   0.0000       6.159813       167.6170 
 534   0.0000       6.176560       168.0727 
 535   0.0000       6.194913       168.5721 
 536   0.0000       6.286772       171.0718 
 537   0.0000       6.318209       171.9272 
 538   0.0000       6.331887       172.2994 
 539   0.0000       6.348349       172.7474 
 540   0.0000       6.354610       172.9177 
 541   0.0000       6.367679       173.2733 
 542   0.0000       6.388186       173.8314 
 543   0.0000       6.389388       173.8641 
 544   0.0000       6.391337       173.9171 
 545   0.0000       6.396755       174.0646 
 546   0.0000       6.397082       174.0734 
 547   0.0000       6.407472       174.3562 
 548   0.0000       6.407564       174.3587 
 549   0.0000       6.419138       174.6736 
 550   0.0000       6.426273       174.8678 
 551   0.0000       6.440124       175.2447 
 552   0.0000       6.443951       175.3488 
 553   0.0000       6.462781       175.8612 
 554   0.0000       6.463209       175.8729 
 555   0.0000       6.469848       176.0535 
 556   0.0000       6.617323       180.0665 
 557   0.0000       6.620525       180.1536 
 558   0.0000       6.653478       181.0503 
 559   0.0000       6.729880       183.1293 
 560   0.0000       6.743722       183.5060 
 561   0.0000       6.765366       184.0950 
 562   0.0000       6.778910       184.4635 
 563   0.0000       6.800596       185.0536 
 564   0.0000       6.826600       185.7612 
 565   0.0000       6.843219       186.2134 
 566   0.0000       6.905122       187.8979 
 567   0.0000       6.929390       188.5583 
 568   0.0000       6.935849       188.7340 
 569   0.0000       6.941037       188.8752 
 570   0.0000       6.941922       188.8993 
 571   0.0000       6.959863       189.3875 
 572   0.0000       6.992728       190.2818 
 573   0.0000       7.006090       190.6454 
 574   0.0000       7.078171       192.6068 
 575   0.0000       7.123646       193.8443 
 576   0.0000       7.135529       194.1676 
 577   0.0000       7.174138       195.2182 
 578   0.0000       7.205301       196.0662 
 579   0.0000       7.262041       197.6102 
 580   0.0000       7.390130       201.0957 
 581   0.0000       7.394073       201.2029 
 582   0.0000      23.427842       637.5040 
 583   0.0000      23.492727       639.2696 
 584   0.0000      23.509456       639.7248 
 585   0.0000      23.524257       640.1276 
 586   0.0000      23.651868       643.6001 
 587   0.0000      23.724679       645.5813 
 588   0.0000      23.790167       647.3634 
 589   0.0000      44.105143      1200.1620 
 590   0.0000      44.208933      1202.9862 
 591   0.0000      44.232033      1203.6148 
 592   0.0000      44.308049      1205.6833 
 593   0.0000      44.311493      1205.7770 

                    ********************************
                    * MULLIKEN POPULATION ANALYSIS *
                    ********************************

-----------------------
MULLIKEN ATOMIC CHARGES
-----------------------
   0 Cr:   -1.665699
   1 O :   -0.353622
   2 C :    0.616115
   3 C :    0.664118
   4 O :   -0.352924
   5 C :    0.616585
   6 O :   -0.353730
   7 C :    0.643497
   8 O :   -0.347155
   9 C :    0.643343
  10 O :   -0.347133
  11 C :   -0.124664
  12 H :    0.121481
  13 H :    0.121413
  14 C :   -0.124534
  15 H :    0.121424
  16 H :    0.121485
Sum of atomic charges:   -0.0000000

--------------------------------
MULLIKEN REDUCED ORBITAL CHARGES
--------------------------------
  0 Crs       :     7.446423  s :     7.446423
      pz      :     4.271274  p :    12.823663
      px      :     4.285713
      py      :     4.266676
      dz2     :     0.675544  d :     5.374833
      dxz     :     1.261150
      dyz     :     1.381303
      dx2y2   :     0.744063
      dxy     :     1.312774
      f0      :     0.004389  f :     0.020533
      f+1     :     0.002825
      f-1     :     0.003575
      f+2     :     0.001118
      f-2     :     0.000243
      f+3     :     0.004112
      f-3     :     0.004271
      g0      :     0.000052  g :     0.000248
      g+1     :     0.000013
      g-1     :     0.000014
      g+2     :     0.000052
      g-2     :     0.000011
      g+3     :     0.000012
      g-3     :     0.000009
      g+4     :     0.000069
      g-4     :     0.000017
  1 O s       :     4.036117  s :     4.036117
      pz      :     1.494916  p :     4.268190
      px      :     1.293898
      py      :     1.479375
      dz2     :     0.003064  d :     0.047593
      dxz     :     0.017727
      dyz     :     0.000075
      dx2y2   :     0.008401
      dxy     :     0.018327
      f0      :     0.000245  f :     0.001721
      f+1     :     0.000159
      f-1     :     0.000041
      f+2     :     0.000415
      f-2     :     0.000013
      f+3     :     0.000212
      f-3     :     0.000637
  2 C s       :     3.198729  s :     3.198729
      pz      :     0.636760  p :     2.067373
      px      :     0.800421
      py      :     0.630191
      dz2     :     0.009726  d :     0.101348
      dxz     :     0.045437
      dyz     :     0.005439
      dx2y2   :    -0.004481
      dxy     :     0.045226
      f0      :     0.002013  f :     0.016436
      f+1     :     0.002142
      f-1     :     0.000350
      f+2     :     0.003425
      f-2     :     0.000235
      f+3     :     0.003222
      f-3     :     0.005048
  3 C s       :     3.172765  s :     3.172765
      pz      :     0.787266  p :     2.043902
      px      :     0.608471
      py      :     0.648165
      dz2     :    -0.006444  d :     0.102379
      dxz     :     0.046975
      dyz     :     0.047097
      dx2y2   :     0.010386
      dxy     :     0.004364
      f0      :     0.005416  f :     0.016837
      f+1     :     0.005544
      f-1     :     0.005545
      f+2     :     0.000142
      f-2     :     0.000161
      f+3     :     0.000016
      f-3     :     0.000012
  4 O s       :     4.024776  s :     4.024776
      pz      :     1.292834  p :     4.274793
      px      :     1.480037
      py      :     1.501922
      dz2     :     0.012807  d :     0.051639
      dxz     :     0.019109
      dyz     :     0.020168
      dx2y2   :    -0.000391
      dxy     :    -0.000053
      f0      :     0.000345  f :     0.001715
      f+1     :     0.000685
      f-1     :     0.000685
      f+2     :     0.000000
      f-2     :     0.000001
      f+3     :     0.000000
      f-3     :     0.000000
  5 C s       :     3.198268  s :     3.198268
      pz      :     0.636699  p :     2.067358
      px      :     0.800483
      py      :     0.630177
      dz2     :     0.009682  d :     0.101352
      dxz     :     0.045520
      dyz     :     0.005438
      dx2y2   :    -0.004514
      dxy     :     0.045227
      f0      :     0.002015  f :     0.016436
      f+1     :     0.002138
      f-1     :     0.000351
      f+2     :     0.003427
      f-2     :     0.000232
      f+3     :     0.003223
      f-3     :     0.005051
  6 O s       :     4.036211  s :     4.036211
      pz      :     1.494965  p :     4.268208
      px      :     1.293870
      py      :     1.479374
      dz2     :     0.003052  d :     0.047590
      dxz     :     0.017739
      dyz     :     0.000071
      dx2y2   :     0.008397
      dxy     :     0.018332
      f0      :     0.000245  f :     0.001721
      f+1     :     0.000158
      f-1     :     0.000041
      f+2     :     0.000415
      f-2     :     0.000013
      f+3     :     0.000212
      f-3     :     0.000637
  7 C s       :     3.199389  s :     3.199389
      pz      :     0.632999  p :     2.044559
      px      :     0.615093
      py      :     0.796467
      dz2     :     0.004225  d :     0.096223
      dxz     :     0.006355
      dyz     :     0.041345
      dx2y2   :    -0.003556
      dxy     :     0.047854
      f0      :     0.002056  f :     0.016332
      f+1     :     0.000365
      f-1     :     0.001996
      f+2     :     0.003430
      f-2     :     0.000132
      f+3     :     0.005124
      f-3     :     0.003230
  8 O s       :     4.038841  s :     4.038841
      pz      :     1.483936  p :     4.259421
      px      :     1.483490
      py      :     1.291995
      dz2     :     0.002385  d :     0.047193
      dxz     :    -0.000090
      dyz     :     0.018661
      dx2y2   :     0.007936
      dxy     :     0.018301
      f0      :     0.000255  f :     0.001700
      f+1     :     0.000043
      f-1     :     0.000126
      f+2     :     0.000427
      f-2     :     0.000001
      f+3     :     0.000641
      f-3     :     0.000209
  9 C s       :     3.199592  s :     3.199592
      pz      :     0.632984  p :     2.044508
      px      :     0.615093
      py      :     0.796430
      dz2     :     0.004225  d :     0.096225
      dxz     :     0.006361
      dyz     :     0.041382
      dx2y2   :    -0.003586
      dxy     :     0.047843
      f0      :     0.002056  f :     0.016333
      f+1     :     0.000365
      f-1     :     0.001996
      f+2     :     0.003430
      f-2     :     0.000132
      f+3     :     0.005124
      f-3     :     0.003230
 10 O s       :     4.038792  s :     4.038792
      pz      :     1.483945  p :     4.259443
      px      :     1.483491
      py      :     1.292007
      dz2     :     0.002383  d :     0.047198
      dxz     :    -0.000091
      dyz     :     0.018663
      dx2y2   :     0.007940
      dxy     :     0.018302
      f0      :     0.000256  f :     0.001700
      f+1     :     0.000043
      f-1     :     0.000126
      f+2     :     0.000427
      f-2     :     0.000001
      f+3     :     0.000641
      f-3     :     0.000209
 11 C s       :     3.219004  s :     3.219004
      pz      :     0.861626  p :     2.797048
      px      :     0.827719
      py      :     1.107702
      dz2     :     0.011552  d :     0.103669
      dxz     :     0.039940
      dyz     :     0.000398
      dx2y2   :    -0.032342
      dxy     :     0.084121
      f0      :     0.000632  f :     0.004943
      f+1     :     0.000400
      f-1     :     0.000706
      f+2     :     0.000897
      f-2     :     0.000187
      f+3     :     0.000917
      f-3     :     0.001204
 12 H s       :     0.822600  s :     0.822600
      pz      :     0.023479  p :     0.054537
      px      :     0.013718
      py      :     0.017340
      dz2     :     0.000114  d :     0.001382
      dxz     :     0.000209
      dyz     :     0.000331
      dx2y2   :     0.000514
      dxy     :     0.000213
 13 H s       :     0.822663  s :     0.822663
      pz      :     0.023426  p :     0.054542
      px      :     0.013712
      py      :     0.017405
      dz2     :     0.000113  d :     0.001382
      dxz     :     0.000209
      dyz     :     0.000332
      dx2y2   :     0.000514
      dxy     :     0.000213
 14 C s       :     3.218853  s :     3.218853
      pz      :     0.861479  p :     2.797091
      px      :     0.827866
      py      :     1.107747
      dz2     :     0.011512  d :     0.103646
      dxz     :     0.039979
      dyz     :     0.000376
      dx2y2   :    -0.032381
      dxy     :     0.084160
      f0      :     0.000631  f :     0.004943
      f+1     :     0.000402
      f-1     :     0.000705
      f+2     :     0.000897
      f-2     :     0.000188
      f+3     :     0.000917
      f-3     :     0.001204
 15 H s       :     0.822649  s :     0.822649
      pz      :     0.023457  p :     0.054545
      px      :     0.013696
      py      :     0.017392
      dz2     :     0.000114  d :     0.001382
      dxz     :     0.000209
      dyz     :     0.000332
      dx2y2   :     0.000514
      dxy     :     0.000213
 16 H s       :     0.822568  s :     0.822568
      pz      :     0.023497  p :     0.054566
      px      :     0.013703
      py      :     0.017366
      dz2     :     0.000114  d :     0.001382
      dxz     :     0.000209
      dyz     :     0.000331
      dx2y2   :     0.000514
      dxy     :     0.000213


                     *******************************
                     * LOEWDIN POPULATION ANALYSIS *
                     *******************************

----------------------
LOEWDIN ATOMIC CHARGES
----------------------
   0 Cr:   -0.346331
   1 O :    0.163250
   2 C :   -0.121068
   3 C :   -0.133537
   4 O :    0.155604
   5 C :   -0.121079
   6 O :    0.163251
   7 C :   -0.092592
   8 O :    0.158615
   9 C :   -0.092629
  10 O :    0.158623
  11 C :    0.082564
  12 H :   -0.014315
  13 H :   -0.014292
  14 C :    0.082553
  15 H :   -0.014293
  16 H :   -0.014324

-------------------------------
LOEWDIN REDUCED ORBITAL CHARGES
-------------------------------
  0 Crs       :     5.938394  s :     5.938394
      pz      :     4.246051  p :    12.839353
      px      :     4.293471
      py      :     4.299831
      dz2     :     0.908788  d :     5.474725
      dxz     :     1.167936
      dyz     :     1.261940
      dx2y2   :     0.960563
      dxy     :     1.175498
      f0      :     0.019345  f :     0.092719
      f+1     :     0.013061
      f-1     :     0.014944
      f+2     :     0.003929
      f-2     :     0.000415
      f+3     :     0.020178
      f-3     :     0.020847
      g0      :     0.000338  g :     0.001141
      g+1     :     0.000038
      g-1     :     0.000031
      g+2     :     0.000245
      g-2     :     0.000018
      g+3     :     0.000021
      g-3     :     0.000015
      g+4     :     0.000397
      g-4     :     0.000038
  1 O s       :     3.380761  s :     3.380761
      pz      :     1.343247  p :     4.258637
      px      :     1.581618
      py      :     1.333772
      dz2     :     0.027304  d :     0.190952
      dxz     :     0.043522
      dyz     :     0.000332
      dx2y2   :     0.079106
      dxy     :     0.040688
      f0      :     0.000596  f :     0.006399
      f+1     :     0.001218
      f-1     :     0.000091
      f+2     :     0.001020
      f-2     :     0.000029
      f+3     :     0.002009
      f-3     :     0.001436
  2 C s       :     2.881496  s :     2.881496
      pz      :     0.628943  p :     2.296337
      px      :     1.040742
      py      :     0.626652
      dz2     :     0.116254  d :     0.858161
      dxz     :     0.255708
      dyz     :     0.025001
      dx2y2   :     0.203896
      dxy     :     0.257302
      f0      :     0.010250  f :     0.085073
      f+1     :     0.012000
      f-1     :     0.001603
      f+2     :     0.017010
      f-2     :     0.000961
      f+3     :     0.018353
      f-3     :     0.024896
  3 C s       :     2.874146  s :     2.874146
      pz      :     1.039796  p :     2.312656
      px      :     0.623451
      py      :     0.649409
      dz2     :     0.267627  d :     0.861878
      dxz     :     0.265618
      dyz     :     0.275636
      dx2y2   :     0.035889
      dxy     :     0.017107
      f0      :     0.030506  f :     0.084856
      f+1     :     0.026570
      f-1     :     0.026821
      f+2     :     0.000385
      f-2     :     0.000491
      f+3     :     0.000051
      f-3     :     0.000033
  4 O s       :     3.381631  s :     3.381631
      pz      :     1.579614  p :     4.263835
      px      :     1.331660
      py      :     1.352562
      dz2     :     0.105232  d :     0.192498
      dxz     :     0.040317
      dyz     :     0.046793
      dx2y2   :     0.000114
      dxy     :     0.000043
      f0      :     0.003248  f :     0.006431
      f+1     :     0.001515
      f-1     :     0.001667
      f+2     :     0.000000
      f-2     :     0.000001
      f+3     :     0.000000
      f-3     :     0.000000
  5 C s       :     2.881487  s :     2.881487
      pz      :     0.628850  p :     2.296337
      px      :     1.040827
      py      :     0.626659
      dz2     :     0.116176  d :     0.858182
      dxz     :     0.255813
      dyz     :     0.024956
      dx2y2   :     0.203897
      dxy     :     0.257340
      f0      :     0.010259  f :     0.085073
      f+1     :     0.011984
      f-1     :     0.001606
      f+2     :     0.017011
      f-2     :     0.000946
      f+3     :     0.018360
      f-3     :     0.024907
  6 O s       :     3.380760  s :     3.380760
      pz      :     1.343194  p :     4.258637
      px      :     1.581668
      py      :     1.333775
      dz2     :     0.027311  d :     0.190953
      dxz     :     0.043489
      dyz     :     0.000323
      dx2y2   :     0.079132
      dxy     :     0.040698
      f0      :     0.000595  f :     0.006399
      f+1     :     0.001218
      f-1     :     0.000092
      f+2     :     0.001019
      f-2     :     0.000028
      f+3     :     0.002010
      f-3     :     0.001437
  7 C s       :     2.895682  s :     2.895682
      pz      :     0.625831  p :     2.292266
      px      :     0.619780
      py      :     1.046655
      dz2     :     0.093299  d :     0.820248
      dxz     :     0.022114
      dyz     :     0.245909
      dx2y2   :     0.203491
      dxy     :     0.255434
      f0      :     0.010191  f :     0.084396
      f+1     :     0.001721
      f-1     :     0.011238
      f+2     :     0.016925
      f-2     :     0.000424
      f+3     :     0.025381
      f-3     :     0.018518
  8 O s       :     3.385795  s :     3.385795
      pz      :     1.335614  p :     4.259754
      px      :     1.336583
      py      :     1.587557
      dz2     :     0.027296  d :     0.189471
      dxz     :     0.000047
      dyz     :     0.041307
      dx2y2   :     0.080690
      dxy     :     0.040132
      f0      :     0.000594  f :     0.006364
      f+1     :     0.000096
      f-1     :     0.001221
      f+2     :     0.000992
      f-2     :     0.000001
      f+3     :     0.001425
      f-3     :     0.002035
  9 C s       :     2.895654  s :     2.895654
      pz      :     0.625810  p :     2.292272
      px      :     0.619789
      py      :     1.046674
      dz2     :     0.093328  d :     0.820307
      dxz     :     0.022125
      dyz     :     0.245939
      dx2y2   :     0.203474
      dxy     :     0.255441
      f0      :     0.010192  f :     0.084397
      f+1     :     0.001721
      f-1     :     0.011236
      f+2     :     0.016925
      f-2     :     0.000422
      f+3     :     0.025382
      f-3     :     0.018519
 10 O s       :     3.385789  s :     3.385789
      pz      :     1.335611  p :     4.259751
      px      :     1.336587
      py      :     1.587553
      dz2     :     0.027302  d :     0.189472
      dxz     :     0.000046
      dyz     :     0.041297
      dx2y2   :     0.080693
      dxy     :     0.040134
      f0      :     0.000594  f :     0.006364
      f+1     :     0.000096
      f-1     :     0.001221
      f+2     :     0.000992
      f-2     :     0.000001
      f+3     :     0.001426
      f-3     :     0.002035
 11 C s       :     2.667363  s :     2.667363
      pz      :     0.710949  p :     2.609126
      px      :     0.960344
      py      :     0.937833
      dz2     :     0.087893  d :     0.611061
      dxz     :     0.126182
      dyz     :     0.060671
      dx2y2   :     0.117419
      dxy     :     0.218895
      f0      :     0.002789  f :     0.029886
      f+1     :     0.003304
      f-1     :     0.002368
      f+2     :     0.005131
      f-2     :     0.000989
      f+3     :     0.007381
      f-3     :     0.007924
 12 H s       :     0.695186  s :     0.695186
      pz      :     0.087904  p :     0.289977
      px      :     0.081913
      py      :     0.120160
      dz2     :     0.003141  d :     0.029153
      dxz     :     0.002397
      dyz     :     0.006004
      dx2y2   :     0.008940
      dxy     :     0.008671
 13 H s       :     0.695193  s :     0.695193
      pz      :     0.087871  p :     0.289948
      px      :     0.081896
      py      :     0.120181
      dz2     :     0.003137  d :     0.029151
      dxz     :     0.002392
      dyz     :     0.006005
      dx2y2   :     0.008943
      dxy     :     0.008674
 14 C s       :     2.667359  s :     2.667359
      pz      :     0.710940  p :     2.609117
      px      :     0.960340
      py      :     0.937837
      dz2     :     0.087818  d :     0.611085
      dxz     :     0.126232
      dyz     :     0.060754
      dx2y2   :     0.117466
      dxy     :     0.218815
      f0      :     0.002790  f :     0.029886
      f+1     :     0.003307
      f-1     :     0.002364
      f+2     :     0.005128
      f-2     :     0.000992
      f+3     :     0.007380
      f-3     :     0.007925
 15 H s       :     0.695191  s :     0.695191
      pz      :     0.087880  p :     0.289951
      px      :     0.081902
      py      :     0.120168
      dz2     :     0.003139  d :     0.029152
      dxz     :     0.002392
      dyz     :     0.006005
      dx2y2   :     0.008943
      dxy     :     0.008672
 16 H s       :     0.695184  s :     0.695184
      pz      :     0.087915  p :     0.289986
      px      :     0.081898
      py      :     0.120173
      dz2     :     0.003143  d :     0.029154
      dxz     :     0.002395
      dyz     :     0.006007
      dx2y2   :     0.008939
      dxy     :     0.008670


                      *****************************
                      * MAYER POPULATION ANALYSIS *
                      *****************************

  NA   - Mulliken gross atomic population
  ZA   - Total nuclear charge
  QA   - Mulliken gross atomic charge
  VA   - Mayer's total valence
  BVA  - Mayer's bonded valence
  FA   - Mayer's free valence

  ATOM       NA         ZA         QA         VA         BVA        FA
  0 Cr    25.6657    24.0000    -1.6657     7.2246     7.2246    -0.0000
  1 O      8.3536     8.0000    -0.3536     2.1346     2.1346     0.0000
  2 C      5.3839     6.0000     0.6161     2.9624     2.9624     0.0000
  3 C      5.3359     6.0000     0.6641     3.0545     3.0545    -0.0000
  4 O      8.3529     8.0000    -0.3529     2.1569     2.1569    -0.0000
  5 C      5.3834     6.0000     0.6166     2.9622     2.9622     0.0000
  6 O      8.3537     8.0000    -0.3537     2.1348     2.1348     0.0000
  7 C      5.3565     6.0000     0.6435     2.8384     2.8384    -0.0000
  8 O      8.3472     8.0000    -0.3472     2.1337     2.1337     0.0000
  9 C      5.3567     6.0000     0.6433     2.8376     2.8376    -0.0000
 10 O      8.3471     8.0000    -0.3471     2.1334     2.1334    -0.0000
 11 C      6.1247     6.0000    -0.1247     3.5906     3.5906     0.0000
 12 H      0.8785     1.0000     0.1215     1.1288     1.1288     0.0000
 13 H      0.8786     1.0000     0.1214     1.1288     1.1288    -0.0000
 14 C      6.1245     6.0000    -0.1245     3.5905     3.5905     0.0000
 15 H      0.8786     1.0000     0.1214     1.1288     1.1288     0.0000
 16 H      0.8785     1.0000     0.1215     1.1289     1.1289     0.0000

  Mayer bond orders larger than 0.100000
B(  0-Cr,  1-O ) :   0.2314 B(  0-Cr,  2-C ) :   0.9730 B(  0-Cr,  3-C ) :   1.1688 
B(  0-Cr,  4-O ) :   0.2501 B(  0-Cr,  5-C ) :   0.9731 B(  0-Cr,  6-O ) :   0.2316 
B(  0-Cr,  7-C ) :   1.0075 B(  0-Cr,  8-O ) :   0.2919 B(  0-Cr,  9-C ) :   1.0068 
B(  0-Cr, 10-O ) :   0.2923 B(  0-Cr, 11-C ) :   0.2867 B(  0-Cr, 14-C ) :   0.2869 
B(  1-O ,  2-C ) :   1.8278 B(  3-C ,  4-O ) :   1.8638 B(  5-C ,  6-O ) :   1.8277 
B(  7-C ,  8-O ) :   1.7989 B(  9-C , 10-O ) :   1.7982 B( 11-C , 12-H ) :   1.0688 
B( 11-C , 13-H ) :   1.0691 B( 11-C , 14-C ) :   1.1502 B( 14-C , 15-H ) :   1.0689 
B( 14-C , 16-H ) :   1.0689 

-------
TIMINGS
-------

Total SCF time: 0 days 0 hours 0 min 16 sec 

Total time                  ....      16.381 sec
Sum of individual times     ....      15.711 sec  ( 95.9%)

Fock matrix formation       ....      12.346 sec  ( 75.4%)
  Split-RI-J                ....       4.696 sec  ( 38.0% of F)
  XC integration            ....       7.150 sec  ( 57.9% of F)
    Basis function eval.    ....       0.691 sec  (  9.7% of XC)
    Density eval.           ....       2.089 sec  ( 29.2% of XC)
    XC-Functional eval.     ....       0.118 sec  (  1.7% of XC)
    XC-Potential eval.      ....       3.489 sec  ( 48.8% of XC)
Diagonalization             ....       1.388 sec  (  8.5%)
Density matrix formation    ....       0.080 sec  (  0.5%)
Population analysis         ....       0.065 sec  (  0.4%)
Initial guess               ....       0.424 sec  (  2.6%)
Orbital Transformation      ....       0.000 sec  (  0.0%)
Orbital Orthonormalization  ....       0.000 sec  (  0.0%)
DIIS solution               ....       0.893 sec  (  5.5%)
Grid generation             ....       0.515 sec  (  3.1%)


-------------------------------------------------------------------------------
                          DFT DISPERSION CORRECTION                            
                                                                               
                              DFTD3 V3.1  Rev 1                                
                          USING Becke-Johnson damping                          
-------------------------------------------------------------------------------
The TPSS functional is recognized
Active option DFTDOPT                   ...         4   

molecular C6(AA) [au] = 5269.876588 


            DFT-D V3
 parameters
 s6 scaling factor         :     1.0000 
 a1 scaling factor         :     0.4535 
 s8 scaling factor         :     1.9435 
 a2 scaling factor         :     4.4752 
 ad hoc parameters k1-k3   :    16.0000     1.3333    -4.0000 

 Edisp/kcal,au: -18.830212361979  -0.030007850290 
 E6   /kcal   :  -8.618601217 
 E8   /kcal   : -10.211611145 
 % E8         :  54.229930864 

-------------------------   ----------------
Dispersion correction           -0.030007850
-------------------------   ----------------


-------------------------   --------------------
FINAL SINGLE POINT ENERGY     -1690.319014474290
-------------------------   --------------------


                            ***************************************
                            *     ORCA property calculations      *
                            ***************************************

                                    ---------------------
                                    Active property flags
                                    ---------------------
   (+) Dipole Moment


------------------------------------------------------------------------------
                       ORCA ELECTRIC PROPERTIES CALCULATION
------------------------------------------------------------------------------

Dipole Moment Calculation                       ... on
Quadrupole Moment Calculation                   ... off
Polarizability Calculation                      ... off
GBWName                                         ... MOR30_pr12.gbw
Electron density file                           ... MOR30_pr12.scfp
The origin for moment calculation is the CENTER OF MASS  = ( 0.000055, -0.000072  0.080640)

-------------
DIPOLE MOMENT
-------------
                                X             Y             Z
Electronic contribution:      0.00524      -0.00679       7.75193
Nuclear contribution   :     -0.00600       0.00791      -8.87043
                        -----------------------------------------
Total Dipole Moment    :     -0.00076       0.00112      -1.11850
                        -----------------------------------------
Magnitude (a.u.)       :      1.11850
Magnitude (Debye)      :      2.84301



--------------------
Rotational spectrum 
--------------------
 
Rotational constants in cm-1:     0.023439     0.023057     0.021301 
Rotational constants in MHz :   702.695821   691.231713   638.589543 

 Dipole components along the rotational axes: 
x,y,z [a.u.] :    -0.000573     0.000775    -1.118504 
x,y,z [Debye]:    -0.001457     0.001969    -2.843011 

 

Timings for individual modules:

Sum of individual times         ...       17.607 sec (=   0.293 min)
GTO integral calculation        ...        0.867 sec (=   0.014 min)   4.9 %
SCF iterations                  ...       16.740 sec (=   0.279 min)  95.1 %
                             ****ORCA TERMINATED NORMALLY****
TOTAL RUN TIME: 0 days 0 hours 0 minutes 18 seconds 177 msec
