
                                 *****************
                                 * O   R   C   A *
                                 *****************

           --- An Ab Initio, DFT and Semiempirical electronic structure package ---

                  #######################################################
                  #                        -***-                        #
                  #          Department of theory and spectroscopy      #
                  #               Directorship: Frank Neese             #
                  #        Max Planck Institute fuer Kohlenforschung    #
                  #                Kaiser Wilhelm Platz 1               #
                  #                 D-45470 Muelheim/Ruhr               #
                  #                      Germany                        #
                  #                                                     #
                  #                  All rights reserved                #
                  #                        -***-                        #
                  #######################################################


                         Program Version 4.2.0 -  RELEASE  -


 With contributions from (in alphabetic order):
   Daniel Aravena         : Magnetic Suceptibility
   Michael Atanasov       : Ab Initio Ligand Field Theory (pilot matlab implementation)
   Alexander A. Auer      : GIAO ZORA, VPT2
   Ute Becker             : Parallelization
   Giovanni Bistoni       : ED, misc. LED, open-shell LED, HFLED
   Martin Brehm           : Molecular dynamics
   Dmytro Bykov           : SCF Hessian
   Vijay G. Chilkuri      : MRCI spin determinant printing, contributions to CSF-ICE
   Dipayan Datta          : RHF DLPNO-CCSD density
   Achintya Kumar Dutta   : EOM-CC, STEOM-CC
   Dmitry Ganyushin       : Spin-Orbit,Spin-Spin,Magnetic field MRCI
   Miquel Garcia          : C-PCM Hessian, Gaussian charge scheme
   Yang Guo               : DLPNO-NEVPT2, CIM, IAO-localization
   Andreas Hansen         : Spin unrestricted coupled pair/coupled cluster methods
   Benjamin Helmich-Paris : CASSCF linear response (MC-RPA)
   Lee Huntington         : MR-EOM, pCC
   Robert Izsak           : Overlap fitted RIJCOSX, COSX-SCS-MP3, EOM
   Christian Kollmar      : KDIIS, OOCD, Brueckner-CCSD(T), CCSD density
   Simone Kossmann        : Meta GGA functionals, TD-DFT gradient, OOMP2, MP2 Hessian
   Martin Krupicka        : AUTO-CI
   Lucas Lang             : DCDCAS
   Dagmar Lenk            : GEPOL surface, SMD
   Dimitrios Liakos       : Extrapolation schemes; Compound Job, initial MDCI parallelization
   Dimitrios Manganas     : Further ROCIS development; embedding schemes
   Dimitrios Pantazis     : SARC Basis sets
   Taras Petrenko         : DFT Hessian,TD-DFT gradient, ASA, ECA, R-Raman, ABS, FL, XAS/XES, NRVS
   Peter Pinski           : DLPNO-MP2, DLPNO-MP2 Gradient
   Christoph Reimann      : Effective Core Potentials
   Marius Retegan         : Local ZFS, SOC
   Christoph Riplinger    : Optimizer, TS searches, QM/MM, DLPNO-CCSD(T), (RO)-DLPNO pert. Triples
   Tobias Risthaus        : Range-separated hybrids, TD-DFT gradient, RPA, STAB
   Michael Roemelt        : Original ROCIS implementation
   Masaaki Saitow         : Open-shell DLPNO-CCSD energy and density
   Barbara Sandhoefer     : DKH picture change effects
   Avijit Sen             : IP-ROCIS
   Kantharuban Sivalingam : CASSCF convergence, NEVPT2, FIC-MRCI
   Bernardo de Souza      : ESD, SOC TD-DFT
   Georgi Stoychev        : AutoAux, RI-MP2 NMR
   Willem Van den Heuvel  : Paramagnetic NMR
   Boris Wezisla          : Elementary symmetry handling
   Frank Wennmohs         : Technical directorship


 We gratefully acknowledge several colleagues who have allowed us to
 interface, adapt or use parts of their codes:
   Stefan Grimme, W. Hujo, H. Kruse,             : VdW corrections, initial TS optimization,
                  C. Bannwarth                     DFT functionals, gCP, sTDA/sTD-DF
   Ed Valeev, F. Pavosevic, A. Kumar             : LibInt (2-el integral package), F12 methods
   Garnet Chan, S. Sharma, J. Yang, R. Olivares  : DMRG
   Ulf Ekstrom                                   : XCFun DFT Library
   Mihaly Kallay                                 : mrcc  (arbitrary order and MRCC methods)
   Andreas Klamt, Michael Diedenhofen            : otool_cosmo (COSMO solvation model)
   Jiri Pittner, Ondrej Demel                    : Mk-CCSD
   Frank Weinhold                                : gennbo (NPA and NBO analysis)
   Christopher J. Cramer and Donald G. Truhlar   : smd solvation model
   Lars Goerigk                                  : TD-DFT with DH, B97 family of functionals
   V. Asgeirsson, H. Jonsson                     : NEB implementation
   FAccTs GmbH                                   : IRC, NEB, NEB-TS, Multilevel, MM, QM/MM, CI optimization
   S Lehtola, MJT Oliveira, MAL Marques          : LibXC Library


 Your calculation uses the libint2 library for the computation of 2-el integrals
 For citations please refer to: http://libint.valeyev.net

 Your ORCA version has been built with support for libXC version: 4.2.3
 For citations please refer to: https://tddft.org/programs/libxc/

 This ORCA versions uses:
   CBLAS   interface :  Fast vector & matrix operations
   LAPACKE interface :  Fast linear algebra routines
   SCALAPACK package :  Parallel linear algebra routines


Your calculation utilizes the atom-pairwise dispersion correction
with the Becke-Johnson damping scheme (D3BJ)
Cite in your paper:
S.Grimme, S.Ehrlich, L.Goerigk, J Comput Chem, (2011), 32, 1456–1465 
S.Grimme, J.Antony, S.Ehrlich and H.Krieg, J.Chem.Phys., 132, (2010), 154104 
   

----- Orbital basis set information -----
Your calculation utilizes the basis: def2-TZVPPD
   F. Weigend and R. Ahlrichs, Phys. Chem. Chem. Phys. 7, 3297 (2005).
   D. Rappoport and F. Furche, J. Chem. Phys. 133 134105 (2010).

----- AuxJ basis set information -----
Your calculation utilizes the auxiliary basis: def2/J
   F. Weigend, Phys. Chem. Chem. Phys. 8, 1057 (2006).

cite the ECPs for Ru [Def2-ECP] as follows:
Ce-Yb(ecp-28): M. Dolg, H. Stoll, H.Preuss, J. Chem. Phys., 1989, 90, 1730-1734.
Y-Cd(ecp-28), Hf-Hg(ecp-46): D. Andrae,U. Haeussermann, M. Dolg, H. Stoll, H. Preuss, Theor. Chim. Acta, 1990, 77, 123-141.
In-Sb(ecp-28), Tl-Bi(ecp-46): B. Metz, H. Stoll, M. Dolg, J. Chem. Phys., 2000, 113, 2563-2569.
Te-Xe(ecp-28), Po-Rn(ecp-46): K. A. Peterson, D. Figgen, E. Goll, H. Stoll, M. Dolg, J. Chem. Phys., 2003, 119, 11113-11123.
Rb(ecp-28), Cs(ecp-46): T. Leininger, A. Nicklass, W. Kuechle, H. Stoll, M. Dolg, A. Bergner, Chem. Phys. Lett., 1996, 255, 274-280.
Sr(ecp-28), Ba(ecp-46): M. Kaupp, P. V. Schleyer, H. Stoll and H. Preuss, J. Chem. Phys., 1991, 94, 1360-1366.
La(ecp-46): M. Dolg, H. Stoll, A. Savin, H. Preuss, Theor. Chim. Acta, 1989, 75, 173-194.
Lu(ecp-28): X. Cao, M. Dolg, J. Chem. Phys., 2001, 115, 7348-7355.

ECP parameters for Ru [Def2-ECP] have been obtained from:
TURBOMOLE (7.0.2)

================================================================================
                                        WARNINGS
                       Please study these warnings very carefully!
================================================================================


INFO   : the flag for use of LIBINT has been found!

================================================================================
                                       INPUT FILE
================================================================================
NAME = MOR33_pr28.in
|  1> #
|  2> # MOR33_pr28 TPSS-D3BJ/Def2-TZVPPD
|  3> #
|  4> ! tpss d3bj def2-tzvppd def2/j grid4 nofinalgrid
|  5> 
|  6> *xyz 0 1
|  7> C        1.962238    1.228976    0.498763 
|  8> C        1.599117    0.285883    1.541183 
|  9> C        2.190996   -0.926462   -0.368778 
| 10> C        2.300550    0.493131   -0.671789 
| 11> C        2.081248    2.713946    0.664976 
| 12> H        1.434728    3.080045    1.466376 
| 13> H        1.821015    3.245065   -0.254703 
| 14> H        3.112287    2.986784    0.927647 
| 15> C        2.741378    1.051608   -1.988266 
| 16> H        2.535990    2.123448   -2.051886 
| 17> H        2.213045    0.558789   -2.809947 
| 18> H        3.820515    0.902993   -2.128525 
| 19> C        2.527241   -2.035347   -1.317221 
| 20> H        3.613873   -2.134320   -1.446849 
| 21> H        2.080344   -1.846887   -2.298459 
| 22> H        2.144835   -2.993343   -0.953257 
| 23> C        1.716574   -2.315630    1.788054 
| 24> H        2.711935   -2.577282    2.171299 
| 25> H        1.368788   -3.152284    1.175589 
| 26> H        1.050088   -2.217418    2.648594 
| 27> C        1.340513    0.619038    2.979845 
| 28> H        2.276059    0.647386    3.557074 
| 29> H        0.683714   -0.121696    3.445256 
| 30> H        0.861589    1.596880    3.080055 
| 31> Ru       0.207249   -0.005545   -0.119227 
| 32> Cl      -0.429544   -0.245973   -2.480800 
| 33> P       -1.456891    1.528216    0.068580 
| 34> C       -1.650760    2.737817   -1.304822 
| 35> H       -1.703179    2.179367   -2.242601 
| 36> H       -0.763254    3.377318   -1.338338 
| 37> H       -2.542801    3.360896   -1.175052 
| 38> C       -1.549065    2.651656    1.528190 
| 39> H       -2.472379    3.241595    1.506577 
| 40> H       -0.697323    3.336564    1.527717 
| 41> H       -1.520496    2.059136    2.446687 
| 42> C       -3.144680    0.720288    0.161598 
| 43> H       -3.432756    0.709722    1.219807 
| 44> H       -3.887248    1.321720   -0.374189 
| 45> C        1.787636   -1.042026    1.001372 
| 46> P       -1.484414   -1.469966    0.216463 
| 47> H       -2.382409   -3.625079   -0.568542 
| 48> H       -0.624918   -3.689033   -0.270965 
| 49> H       -1.236340   -2.863867   -1.723131 
| 50> C       -3.065590   -0.710530   -0.380679 
| 51> C       -1.439182   -3.076884   -0.670420 
| 52> C       -1.931261   -2.000447    1.926464 
| 53> H       -2.988264   -0.701756   -1.472521 
| 54> H       -3.935017   -1.311110   -0.088429 
| 55> H       -1.104361   -2.563780    2.366010 
| 56> H       -2.827619   -2.630913    1.925421 
| 57> H       -2.109292   -1.117280    2.546403 
| 58> *
| 59> 
| 60> %maxcore 5000
| 61> 
| 62> %pal
| 63> nprocs = 24
| 64> end
| 65> 
| 66> 
| 67>                          ****END OF INPUT****
================================================================================

                       ****************************
                       * Single Point Calculation *
                       ****************************

---------------------------------
CARTESIAN COORDINATES (ANGSTROEM)
---------------------------------
  C      1.962238    1.228976    0.498763
  C      1.599117    0.285883    1.541183
  C      2.190996   -0.926462   -0.368778
  C      2.300550    0.493131   -0.671789
  C      2.081248    2.713946    0.664976
  H      1.434728    3.080045    1.466376
  H      1.821015    3.245065   -0.254703
  H      3.112287    2.986784    0.927647
  C      2.741378    1.051608   -1.988266
  H      2.535990    2.123448   -2.051886
  H      2.213045    0.558789   -2.809947
  H      3.820515    0.902993   -2.128525
  C      2.527241   -2.035347   -1.317221
  H      3.613873   -2.134320   -1.446849
  H      2.080344   -1.846887   -2.298459
  H      2.144835   -2.993343   -0.953257
  C      1.716574   -2.315630    1.788054
  H      2.711935   -2.577282    2.171299
  H      1.368788   -3.152284    1.175589
  H      1.050088   -2.217418    2.648594
  C      1.340513    0.619038    2.979845
  H      2.276059    0.647386    3.557074
  H      0.683714   -0.121696    3.445256
  H      0.861589    1.596880    3.080055
  Ru     0.207249   -0.005545   -0.119227
  Cl    -0.429544   -0.245973   -2.480800
  P     -1.456891    1.528216    0.068580
  C     -1.650760    2.737817   -1.304822
  H     -1.703179    2.179367   -2.242601
  H     -0.763254    3.377318   -1.338338
  H     -2.542801    3.360896   -1.175052
  C     -1.549065    2.651656    1.528190
  H     -2.472379    3.241595    1.506577
  H     -0.697323    3.336564    1.527717
  H     -1.520496    2.059136    2.446687
  C     -3.144680    0.720288    0.161598
  H     -3.432756    0.709722    1.219807
  H     -3.887248    1.321720   -0.374189
  C      1.787636   -1.042026    1.001372
  P     -1.484414   -1.469966    0.216463
  H     -2.382409   -3.625079   -0.568542
  H     -0.624918   -3.689033   -0.270965
  H     -1.236340   -2.863867   -1.723131
  C     -3.065590   -0.710530   -0.380679
  C     -1.439182   -3.076884   -0.670420
  C     -1.931261   -2.000447    1.926464
  H     -2.988264   -0.701756   -1.472521
  H     -3.935017   -1.311110   -0.088429
  H     -1.104361   -2.563780    2.366010
  H     -2.827619   -2.630913    1.925421
  H     -2.109292   -1.117280    2.546403

----------------------------
CARTESIAN COORDINATES (A.U.)
----------------------------
  NO LB      ZA    FRAG     MASS         X           Y           Z
   0 C     6.0000    0    12.011    3.708092    2.322428    0.942525
   1 C     6.0000    0    12.011    3.021893    0.540241    2.912414
   2 C     6.0000    0    12.011    4.140382   -1.750759   -0.696889
   3 C     6.0000    0    12.011    4.347409    0.931883   -1.269497
   4 C     6.0000    0    12.011    3.932989    5.128615    1.256623
   5 H     1.0000    0     1.008    2.711243    5.820442    2.771049
   6 H     1.0000    0     1.008    3.441220    6.132284   -0.481319
   7 H     1.0000    0     1.008    5.881370    5.644204    1.752999
   8 C     6.0000    0    12.011    5.180454    1.987251   -3.757278
   9 H     1.0000    0     1.008    4.792327    4.012735   -3.877503
  10 H     1.0000    0     1.008    4.182049    1.055958   -5.310030
  11 H     1.0000    0     1.008    7.219727    1.706409   -4.022329
  12 C     6.0000    0    12.011    4.775793   -3.846248   -2.489187
  13 H     1.0000    0     1.008    6.829230   -4.033280   -2.734148
  14 H     1.0000    0     1.008    3.931280   -3.490111   -4.343458
  15 H     1.0000    0     1.008    4.053151   -5.656598   -1.801395
  16 C     6.0000    0    12.011    3.243855   -4.375907    3.378932
  17 H     1.0000    0     1.008    5.124814   -4.870357    4.103160
  18 H     1.0000    0     1.008    2.586634   -5.956953    2.221541
  19 H     1.0000    0     1.008    1.984379   -4.190313    5.005117
  20 C     6.0000    0    12.011    2.533202    1.169812    5.631091
  21 H     1.0000    0     1.008    4.301128    1.223382    6.721896
  22 H     1.0000    0     1.008    1.292032   -0.229972    6.510590
  23 H     1.0000    0     1.008    1.628167    3.017666    5.820460
  24 Ru   16.0000*   0   101.070    0.391644   -0.010479   -0.225306
  25 Cl   17.0000    0    35.453   -0.811721   -0.464822   -4.688033
  26 P    15.0000    0    30.974   -2.753125    2.887910    0.129597
  27 C     6.0000    0    12.011   -3.119484    5.173724   -2.465756
  28 H     1.0000    0     1.008   -3.218542    4.118407   -4.237902
  29 H     1.0000    0     1.008   -1.442341    6.382206   -2.529092
  30 H     1.0000    0     1.008   -4.805198    6.351173   -2.220526
  31 C     6.0000    0    12.011   -2.927309    5.010904    2.887861
  32 H     1.0000    0     1.008   -4.672119    6.125727    2.847018
  33 H     1.0000    0     1.008   -1.317749    6.305192    2.886967
  34 H     1.0000    0     1.008   -2.873321    3.891203    4.623568
  35 C     6.0000    0    12.011   -5.942584    1.361147    0.305376
  36 H     1.0000    0     1.008   -6.486969    1.341180    2.305101
  37 H     1.0000    0     1.008   -7.345834    2.497689   -0.707115
  38 C     6.0000    0    12.011    3.378142   -1.969144    1.892319
  39 P    15.0000    0    30.974   -2.805136   -2.777833    0.409056
  40 H     1.0000    0     1.008   -4.502101   -6.850407   -1.074389
  41 H     1.0000    0     1.008   -1.180924   -6.971262   -0.512050
  42 H     1.0000    0     1.008   -2.336344   -5.411924   -3.256246
  43 C     6.0000    0    12.011   -5.793126   -1.342707   -0.719379
  44 C     6.0000    0    12.011   -2.719660   -5.814468   -1.266910
  45 C     6.0000    0    12.011   -3.649554   -3.780297    3.640489
  46 H     1.0000    0     1.008   -5.647001   -1.326127   -2.782661
  47 H     1.0000    0     1.008   -7.436104   -2.477639   -0.167107
  48 H     1.0000    0     1.008   -2.086940   -4.844842    4.471111
  49 H     1.0000    0     1.008   -5.343426   -4.971705    3.638518
  50 H     1.0000    0     1.008   -3.985984   -2.111353    4.812004
* core charge reduced due to ECP

--------------------------------
INTERNAL COORDINATES (ANGSTROEM)
--------------------------------
 C      0   0   0     0.000000000000     0.00000000     0.00000000
 C      1   0   0     1.451868011801     0.00000000     0.00000000
 C      1   2   0     2.334709956523    72.03736279     0.00000000
 C      1   2   3     1.423416614373   108.30536822     0.99186863
 C      1   2   3     1.498974997246   125.71450130   186.10012122
 H      5   1   2     1.092821370674   111.48258670   332.58094546
 H      5   1   2     1.093443217314   111.65604889   211.34949665
 H      5   1   2     1.098397946104   110.31113232    91.63995104
 C      4   1   2     1.496441638235   126.90870027   180.30660317
 H      9   4   1     1.093193816550   111.20862433   345.26169298
 H      9   4   1     1.094150808349   110.50695045   225.46399737
 H      9   4   1     1.098314922996   110.56608239   105.29897135
 C      3   1   2     1.497408016373   160.22580427   185.92263169
 H     13   3   1     1.098803065402   111.31462369    67.98044898
 H     13   3   1     1.094560237197   110.40336559   307.70245955
 H     13   3   1     1.093828358632   111.05819004   188.13377531
 C      3   1   2     2.608982223499    99.58829371   354.42630464
 H     17   3   1     1.098217655772   104.50942137   261.72676816
 H     17   3   1     1.093644546339    90.12582841   153.55385774
 H     17   3   1     1.092876148857   135.56069201    36.60110030
 C      2   1   3     1.499205333864   125.99989216   170.90422616
 H     21   2   1     1.099655966956   111.26591449   275.00922079
 H     21   2   1     1.093928326755   111.18381507   154.89277572
 H     21   2   1     1.093428195557   111.23717134    34.89837035
 Ru     2   1   3     2.186135443358    72.57285429   298.65886170
 Cl    25   2   1     2.457709906063   155.20490977    43.61862651
 P     25   2   1     2.270915281108   108.28324077   276.47132528
 C     27  25   2     1.840367577949   117.34763191   118.47708974
 H     28  27  25     1.092723023873   108.03509549    51.72126822
 H     28  27  25     1.094418453469   108.75271875   294.57753028
 H     28  27  25     1.095812410416   111.78326537   173.73350828
 C     27  25   2     1.844200323169   120.89810995   354.95778148
 H     32  27  25     1.095903229344   110.75833146   186.42516683
 H     32  27  25     1.092960944754   110.02617034    66.32527867
 H     32  27  25     1.093404260633   109.47728610   307.00366933
 C     27  25   2     1.873507862281   111.90163552   237.27065555
 H     36  27  25     1.096770582124   106.77890217   100.25074135
 H     36  27  25     1.095534296413   110.46271035   216.73657598
 C      3   1   2     1.432956855665    72.03576268   358.16785475
 P     25   2   1     2.262507535216   116.72027651   185.25356619
 H     40  25   2     2.463156493774   142.33635759   244.51048388
 H     41  40  25     1.783652656805    67.60297736    46.74138329
 H     42  41  40     1.778629214085    60.55642386   284.94816856
 C     36  27  25     1.532174834003   109.79380307   340.73630087
 C     43  42  41     1.093033196556    35.61449590    35.11756263
 C     40  25   2     1.845314540335   120.30588536    16.80375395
 H     44  36  27     1.094611915848   110.43789331   285.44929129
 H     44  36  27     1.096362032920   112.10327020   163.63392148
 H     46  40  25     1.092844163184   109.73511792   294.95209917
 H     46  40  25     1.095876876829   111.25807992   174.45767310
 H     46  40  25     1.093619381033   109.42470283    53.46592860

---------------------------
INTERNAL COORDINATES (A.U.)
---------------------------
 C      0   0   0     0.000000000000     0.00000000     0.00000000
 C      1   0   0     2.743632924904     0.00000000     0.00000000
 C      1   2   0     4.411962419968    72.03736279     0.00000000
 C      1   2   3     2.689867575638   108.30536822     0.99186863
 C      1   2   3     2.832652226391   125.71450130   186.10012122
 H      5   1   2     2.065133103870   111.48258670   332.58094546
 H      5   1   2     2.066308223718   111.65604889   211.34949665
 H      5   1   2     2.075671304199   110.31113232    91.63995104
 C      4   1   2     2.827864871660   126.90870027   180.30660317
 H      9   4   1     2.065836924576   111.20862433   345.26169298
 H      9   4   1     2.067645376988   110.50695045   225.46399737
 H      9   4   1     2.075514413261   110.56608239   105.29897135
 C      3   1   2     2.829691061684   160.22580427   185.92263169
 H     13   3   1     2.076436868723   111.31462369    67.98044898
 H     13   3   1     2.068419085382   110.40336559   307.70245955
 H     13   3   1     2.067036035331   111.05819004   188.13377531
 C      3   1   2     4.930261890681    99.58829371   354.42630464
 H     17   3   1     2.075330604847   104.50942137   261.72676816
 H     17   3   1     2.066688680437    90.12582841   153.55385774
 H     17   3   1     2.065236619634   135.56069201    36.60110030
 C      2   1   3     2.833087499516   125.99989216   170.90422616
 H     21   2   1     2.078048619078   111.26591449   275.00922079
 H     21   2   1     2.067224947707   111.18381507   154.89277572
 H     21   2   1     2.066279836711   111.23717134    34.89837035
 Ru     2   1   3     4.131197279606    72.57285429   298.65886170
 Cl    25   2   1     4.644398639085   155.20490977    43.61862651
 P     25   2   1     4.291407954631   108.28324077   276.47132528
 C     27  25   2     3.477790708072   117.34763191   118.47708974
 H     28  27  25     2.064947255350   108.03509549    51.72126822
 H     28  27  25     2.068151152966   108.75271875   294.57753028
 H     28  27  25     2.070785349839   111.78326537   173.73350828
 C     27  25   2     3.485033546878   120.89810995   354.95778148
 H     32  27  25     2.070956972740   110.75833146   186.42516683
 H     32  27  25     2.065396860656   110.02617034    66.32527867
 H     32  27  25     2.066234606259   109.47728610   307.00366933
 C     27  25   2     3.540416769459   111.90163552   237.27065555
 H     36  27  25     2.072596031956   106.77890217   100.25074135
 H     36  27  25     2.070259790539   110.46271035   216.73657598
 C      3   1   2     2.707896018931    72.03576268   358.16785475
 P     25   2   1     4.275519617492   116.72027651   185.25356619
 H     40  25   2     4.654691198222   142.33635759   244.51048388
 H     41  40  25     3.370615039402    67.60297736    46.74138329
 H     42  41  40     3.361122108412    60.55642386   284.94816856
 C     36  27  25     2.895390825552   109.79380307   340.73630087
 C     43  42  41     2.065533396776    35.61449590    35.11756263
 C     40  25   2     3.487139112176   120.30588536    16.80375395
 H     44  36  27     2.068516743879   110.43789331   285.44929129
 H     44  36  27     2.071823985848   112.10327020   163.63392148
 H     46  40  25     2.065176175472   109.73511792   294.95209917
 H     46  40  25     2.070907173704   111.25807992   174.45767310
 H     46  40  25     2.066641124901   109.42470283    53.46592860

---------------------
BASIS SET INFORMATION
---------------------
There are 5 groups of distinct atoms

 Group   1 Type C   : 12s6p3d1f contracted to 6s3p3d1f pattern {621111/411/111/1}
 Group   2 Type H   : 5s3p1d contracted to 3s3p1d pattern {311/111/1}
 Group   3 Type Ru  : 7s7p5d2f1g contracted to 6s4p3d2f1g pattern {211111/4111/311/11/1}
 Group   4 Type Cl  : 15s10p4d1f contracted to 6s6p4d1f pattern {732111/511111/1111/1}
 Group   5 Type P   : 15s9p4d1f contracted to 6s5p4d1f pattern {732111/51111/1111/1}

Atom   0C    basis set group =>   1
Atom   1C    basis set group =>   1
Atom   2C    basis set group =>   1
Atom   3C    basis set group =>   1
Atom   4C    basis set group =>   1
Atom   5H    basis set group =>   2
Atom   6H    basis set group =>   2
Atom   7H    basis set group =>   2
Atom   8C    basis set group =>   1
Atom   9H    basis set group =>   2
Atom  10H    basis set group =>   2
Atom  11H    basis set group =>   2
Atom  12C    basis set group =>   1
Atom  13H    basis set group =>   2
Atom  14H    basis set group =>   2
Atom  15H    basis set group =>   2
Atom  16C    basis set group =>   1
Atom  17H    basis set group =>   2
Atom  18H    basis set group =>   2
Atom  19H    basis set group =>   2
Atom  20C    basis set group =>   1
Atom  21H    basis set group =>   2
Atom  22H    basis set group =>   2
Atom  23H    basis set group =>   2
Atom  24Ru   basis set group =>   3
Atom  25Cl   basis set group =>   4
Atom  26P    basis set group =>   5
Atom  27C    basis set group =>   1
Atom  28H    basis set group =>   2
Atom  29H    basis set group =>   2
Atom  30H    basis set group =>   2
Atom  31C    basis set group =>   1
Atom  32H    basis set group =>   2
Atom  33H    basis set group =>   2
Atom  34H    basis set group =>   2
Atom  35C    basis set group =>   1
Atom  36H    basis set group =>   2
Atom  37H    basis set group =>   2
Atom  38C    basis set group =>   1
Atom  39P    basis set group =>   5
Atom  40H    basis set group =>   2
Atom  41H    basis set group =>   2
Atom  42H    basis set group =>   2
Atom  43C    basis set group =>   1
Atom  44C    basis set group =>   1
Atom  45C    basis set group =>   1
Atom  46H    basis set group =>   2
Atom  47H    basis set group =>   2
Atom  48H    basis set group =>   2
Atom  49H    basis set group =>   2
Atom  50H    basis set group =>   2
---------------------------------
AUXILIARY/J BASIS SET INFORMATION
---------------------------------
There are 5 groups of distinct atoms

 Group   1 Type C   : 12s5p4d2f1g contracted to 6s4p3d1f1g pattern {711111/2111/211/2/1}
 Group   2 Type H   : 5s2p1d contracted to 3s1p1d pattern {311/2/1}
 Group   3 Type Ru  : 11s5p5d3f3g contracted to 8s5p5d2f3g pattern {41111111/11111/11111/21/111}
 Group   4 Type Cl  : 14s5p5d2f1g contracted to 8s4p3d1f1g pattern {71111111/2111/311/2/1}
 Group   5 Type P   : 14s5p5d2f1g contracted to 8s4p3d1f1g pattern {71111111/2111/311/2/1}

Atom   0C    basis set group =>   1
Atom   1C    basis set group =>   1
Atom   2C    basis set group =>   1
Atom   3C    basis set group =>   1
Atom   4C    basis set group =>   1
Atom   5H    basis set group =>   2
Atom   6H    basis set group =>   2
Atom   7H    basis set group =>   2
Atom   8C    basis set group =>   1
Atom   9H    basis set group =>   2
Atom  10H    basis set group =>   2
Atom  11H    basis set group =>   2
Atom  12C    basis set group =>   1
Atom  13H    basis set group =>   2
Atom  14H    basis set group =>   2
Atom  15H    basis set group =>   2
Atom  16C    basis set group =>   1
Atom  17H    basis set group =>   2
Atom  18H    basis set group =>   2
Atom  19H    basis set group =>   2
Atom  20C    basis set group =>   1
Atom  21H    basis set group =>   2
Atom  22H    basis set group =>   2
Atom  23H    basis set group =>   2
Atom  24Ru   basis set group =>   3
Atom  25Cl   basis set group =>   4
Atom  26P    basis set group =>   5
Atom  27C    basis set group =>   1
Atom  28H    basis set group =>   2
Atom  29H    basis set group =>   2
Atom  30H    basis set group =>   2
Atom  31C    basis set group =>   1
Atom  32H    basis set group =>   2
Atom  33H    basis set group =>   2
Atom  34H    basis set group =>   2
Atom  35C    basis set group =>   1
Atom  36H    basis set group =>   2
Atom  37H    basis set group =>   2
Atom  38C    basis set group =>   1
Atom  39P    basis set group =>   5
Atom  40H    basis set group =>   2
Atom  41H    basis set group =>   2
Atom  42H    basis set group =>   2
Atom  43C    basis set group =>   1
Atom  44C    basis set group =>   1
Atom  45C    basis set group =>   1
Atom  46H    basis set group =>   2
Atom  47H    basis set group =>   2
Atom  48H    basis set group =>   2
Atom  49H    basis set group =>   2
Atom  50H    basis set group =>   2
-------------------------
ECP PARAMETER INFORMATION
-------------------------

 Group 1, Type Ru ECP Def2-ECP (replacing 28 core electrons, lmax=3)

Atom  24Ru   ECP group =>   1



           ************************************************************
           *        Program running with 24 parallel MPI-processes    *
           *              working on a common directory               *
           ************************************************************
------------------------------------------------------------------------------
                           ORCA GTO INTEGRAL CALCULATION
                           -- RI-GTO INTEGRALS CHOSEN --
------------------------------------------------------------------------------

                         BASIS SET STATISTICS AND STARTUP INFO

Gaussian basis set:
 # of primitive gaussian shells          ...  741
 # of primitive gaussian functions       ... 1707
 # of contracted shells                  ...  490
 # of contracted basis functions         ... 1322
 Highest angular momentum                ...    4
 Maximum contraction depth               ...    7
Auxiliary gaussian basis set:
 # of primitive gaussian shells          ...  740
 # of primitive gaussian functions       ... 1946
 # of contracted shells                  ...  469
 # of contracted aux-basis functions     ... 1367
 Highest angular momentum                ...    4
 Maximum contraction depth               ...    7
Ratio of auxiliary to basis functions    ...  1.03
Integral package used                  ... LIBINT
 One Electron integrals                  
   ECP integrals                         ... done
 Ordering auxiliary basis shells         ... done
 Integral threshhold             Thresh  ...  1.000e-10
 Primitive cut-off               TCut    ...  1.000e-11
 Pre-screening matrix                    ... done
 Shell pair data                         ... 
 Ordering of the shell pairs             ... done (   0.019 sec) 96986 of 120295 pairs
 Determination of significant pairs      ... done (   0.000 sec)
 Creation of shell pair data             ... done (   0.010 sec)
 Storage of shell pair data              ... done (   0.024 sec)
 Shell pair data done in (   0.053 sec)
 Computing two index integrals           ... done
 Cholesky decomposition of the V-matrix  ... done


Timings:
 Total evaluation time                   ...   7.500 sec (  0.125 min)
 One electron matrix time                ...   6.648 sec (  0.111 min) = 88.6%
 Schwartz matrix evaluation time         ...   0.647 sec (  0.011 min) =  8.6%
 Two index repulsion integral time       ...   0.042 sec (  0.001 min) =  0.6%
 Cholesky decomposition of V             ...   0.083 sec (  0.001 min) =  1.1%
 Three index repulsion integral time     ...   0.000 sec (  0.000 min) =  0.0%



           ************************************************************
           *        Program running with 24 parallel MPI-processes    *
           *              working on a common directory               *
           ************************************************************
-------------------------------------------------------------------------------
                                 ORCA SCF
-------------------------------------------------------------------------------

------------
SCF SETTINGS
------------
Hamiltonian:
 Density Functional     Method          .... DFT(GTOs)
 Exchange Functional    Exchange        .... TPSS
 Correlation Functional Correlation     .... TPSS
 LDA part of GGA corr.  LDAOpt          .... PW91-LDA
 Gradients option       PostSCFGGA      .... off
   Density functional embedding theory  .... OFF
   NL short-range parameter             ....  5.000000
 RI-approximation to the Coulomb term is turned on
   Number of auxiliary basis functions  .... 1367


General Settings:
 Integral files         IntName         .... MOR33_pr28
 Hartree-Fock type      HFTyp           .... RHF
 Total Charge           Charge          ....    0
 Multiplicity           Mult            ....    1
 Number of Electrons    NEL             ....  190
 Basis Dimension        Dim             .... 1322
 Nuclear Repulsion      ENuc            ....   2632.2381876203 Eh

Convergence Acceleration:
 DIIS                   CNVDIIS         .... on
   Start iteration      DIISMaxIt       ....    12
   Startup error        DIISStart       ....  0.200000
   # of expansion vecs  DIISMaxEq       ....     5
   Bias factor          DIISBfac        ....   1.050
   Max. coefficient     DIISMaxC        ....  10.000
 Newton-Raphson         CNVNR           .... off
 SOSCF                  CNVSOSCF        .... off
 Level Shifting         CNVShift        .... on
   Level shift para.    LevelShift      ....    0.2500
   Turn off err/grad.   ShiftErr        ....    0.0010
 Zerner damping         CNVZerner       .... off
 Static damping         CNVDamp         .... on
   Fraction old density DampFac         ....    0.7000
   Max. Damping (<1)    DampMax         ....    0.9800
   Min. Damping (>=0)   DampMin         ....    0.0000
   Turn off err/grad.   DampErr         ....    0.1000
 Fernandez-Rico         CNVRico         .... off

SCF Procedure:
 Maximum # iterations   MaxIter         ....   125
 SCF integral mode      SCFMode         .... Direct
   Integral package                     .... LIBINT
 Reset frequency        DirectResetFreq ....    20
 Integral Threshold     Thresh          ....  1.000e-10 Eh
 Primitive CutOff       TCut            ....  1.000e-11 Eh

Convergence Tolerance:
 Convergence Check Mode ConvCheckMode   .... Total+1el-Energy
 Convergence forced     ConvForced      .... 0
 Energy Change          TolE            ....  1.000e-06 Eh
 1-El. energy change                    ....  1.000e-03 Eh
 DIIS Error             TolErr          ....  1.000e-06


Diagonalization of the overlap matrix:
Smallest eigenvalue                        ... 1.665e-07
Time for diagonalization                   ...    0.252 sec
Threshold for overlap eigenvalues          ... 1.000e-08
Number of eigenvalues below threshold      ... 0
Time for construction of square roots      ...    0.230 sec
Total time needed                          ...    0.487 sec

-------------------
DFT GRID GENERATION
-------------------

General Integration Accuracy     IntAcc      ...  4.670
Radial Grid Type                 RadialGrid  ... Gauss-Chebyshev
Angular Grid (max. acc.)         AngularGrid ... Lebedev-302
Angular grid pruning method      GridPruning ... 3 (G Style)
Weight generation scheme         WeightScheme... Becke
Basis function cutoff            BFCut       ...    1.0000e-10
Integration weight cutoff        WCut        ...    1.0000e-14
Grids for H and He will be reduced by one unit

# of grid points (after initial pruning)     ... 235550 (   0.0 sec)
# of grid points (after weights+screening)   ... 198938 (   0.3 sec)
nearest neighbour list constructed           ...    0.0 sec
Grid point re-assignment to atoms done       ...    0.0 sec
Grid point division into batches done        ...    0.5 sec
Reduced shell lists constructed in    0.9 sec

Total number of grid points                  ...   198938
Total number of batches                      ...     3133
Average number of points per batch           ...       63
Average number of grid points per atom       ...     3901
Average number of shells per batch           ...   291.39 (59.47%)
Average number of basis functions per batch  ...   781.57 (59.12%)
Average number of large shells per batch     ...   217.43 (74.62%)
Average number of large basis fcns per batch ...   586.87 (75.09%)
Maximum spatial batch extension              ...   5.52,  3.39,  3.31 au
Average spatial batch extension              ...   0.05,  0.05,  0.05 au

Time for grid setup =    1.295 sec

------------------------------
INITIAL GUESS: MODEL POTENTIAL
------------------------------
Loading Hartree-Fock densities                     ... done
  calling /sw/apps/orca/orca_4_2_0_linux_x86-64_openmpi314/orca MOR33_pr28_atom44.inp > MOR33_pr28_atom44.out in order to generate an atomic fitting density for atom 24 (Ru with ECP) on-the-fly... 
    atom 24 (Ru), assumed electronic state with S=5: 1s2 2s2 2p6 3s2 3p6 4s2 3d10 4p6 5s2 4d6           ... done
Calculating cut-offs                               ... done
Setting up the integral package                    ... done
Initializing the effective Hamiltonian             ... done
Starting the Coulomb interaction                   ... done (   0.3 sec)
Reading the grid                                   ... done
Mapping shells                                     ... done
Starting the XC term evaluation                    ... done (   1.2 sec)
  promolecular density results
     # of electrons  =    217.983829442
     EX              =   -292.337545535
     EC              =     -8.362061904
     EX+EC           =   -300.699607439
Transforming the Hamiltonian                       ... done (   0.1 sec)
Diagonalizing the Hamiltonian                      ... done (   0.2 sec)
Back transforming the eigenvectors                 ... done (   0.1 sec)
Now organizing SCF variables                       ... done
                      ------------------
                      INITIAL GUESS DONE (   4.5 sec)
                      ------------------
--------------
SCF ITERATIONS
--------------
ITER       Energy         Delta-E        Max-DP      RMS-DP      [F,P]     Damp
               ***  Starting incremental Fock matrix formation  ***
  0  -1866.1824989147   0.000000000000 0.81589795  0.00355534  0.4306340 0.7000
  1  -1866.5029943508  -0.320495436064 0.62372618  0.00245591  0.3127397 0.7000
  2  -1866.6184510156  -0.115456664813 0.48702400  0.00171326  0.2196930 0.7000
                               ***Turning on DIIS***
  3  -1866.6824175490  -0.063966533468 0.28879775  0.00121006  0.1499938 0.7000
  4  -1866.7286020470  -0.046184497936 0.19687886  0.00082620  0.1031663 0.7000
  5  -1866.7618477948  -0.033245747823 0.75060342  0.00263162  0.0734922 0.0000
  6  -1866.8387763419  -0.076928547082 0.17756214  0.00041549  0.0090752 0.0000
  7  -1866.8389273797  -0.000151037794 0.39912006  0.00115317  0.0091920 0.0000
  8  -1866.8391336554  -0.000206275676 0.50294734  0.00105885  0.0012244 0.0000
  9  -1866.8391409251  -0.000007269766 0.15306733  0.00072064  0.0004161 0.0000
 10  -1866.8391411984  -0.000000273316 0.43255481  0.00116584  0.0005876 0.0000
 11  -1866.8391424024  -0.000001204015 0.12882899  0.00046694  0.0000746 0.0000
 12  -1866.8391424155  -0.000000013048 0.34585906  0.00076477  0.0000397 0.0000
 13  -1866.8391424558  -0.000000040312 0.22218671  0.00066247  0.0000212 0.0000
                 **** Energy Check signals convergence ****

               *****************************************************
               *                     SUCCESS                       *
               *           SCF CONVERGED AFTER  14 CYCLES          *
               *****************************************************


----------------
TOTAL SCF ENERGY
----------------

Total Energy       :        -1866.83914255 Eh          -50799.27565 eV

Components:
Nuclear Repulsion  :         2632.23818762 Eh           71626.84252 eV
Electronic Energy  :        -4499.07733017 Eh         -122426.11818 eV
One Electron Energy:        -7838.45015438 Eh         -213295.07241 eV
Two Electron Energy:         3339.37282421 Eh           90868.95424 eV

Virial components:
Potential Energy   :        -3667.16700194 Eh          -99788.68728 eV
Kinetic Energy     :         1800.32785939 Eh           48989.41163 eV
Virial Ratio       :            2.03694398


DFT components:
N(Alpha)           :       94.999705187519 electrons
N(Beta)            :       94.999705187519 electrons
N(Total)           :      189.999410375038 electrons
E(X)               :     -177.241149780166 Eh       
E(C)               :       -6.729776783139 Eh       
E(XC)              :     -183.970926563306 Eh       
DFET-embed. en.    :        0.000000000000 Eh       

---------------
SCF CONVERGENCE
---------------

  Last Energy change         ...   -9.6420e-08  Tolerance :   1.0000e-06
  Last MAX-Density change    ...    3.4620e-01  Tolerance :   1.0000e-05
  Last RMS-Density change    ...    6.9012e-04  Tolerance :   1.0000e-06
  Last DIIS Error            ...    7.9195e-06  Tolerance :   1.0000e-06

             **** THE GBW FILE WAS UPDATED (MOR33_pr28.gbw) ****
             **** DENSITY FILE WAS UPDATED (MOR33_pr28.scfp) ****
             **** ENERGY FILE WAS UPDATED (MOR33_pr28.en.tmp) ****
             **** THE GBW FILE WAS UPDATED (MOR33_pr28.gbw) ****
             **** DENSITY FILE WAS UPDATED (MOR33_pr28.scfp) ****
----------------
ORBITAL ENERGIES
----------------

  NO   OCC          E(Eh)            E(eV) 
   0   2.0000    -100.896791     -2745.5413 
   1   2.0000     -76.596392     -2084.2938 
   2   2.0000     -76.596319     -2084.2918 
   3   2.0000     -10.000635      -272.1311 
   4   2.0000      -9.997726      -272.0519 
   5   2.0000      -9.994427      -271.9622 
   6   2.0000      -9.993647      -271.9410 
   7   2.0000      -9.992109      -271.8991 
   8   2.0000      -9.989196      -271.8198 
   9   2.0000      -9.988468      -271.8000 
  10   2.0000      -9.988426      -271.7989 
  11   2.0000      -9.987611      -271.7767 
  12   2.0000      -9.987407      -271.7712 
  13   2.0000      -9.987221      -271.7661 
  14   2.0000      -9.986556      -271.7480 
  15   2.0000      -9.979081      -271.5446 
  16   2.0000      -9.975401      -271.4445 
  17   2.0000      -9.973570      -271.3946 
  18   2.0000      -9.971428      -271.3363 
  19   2.0000      -9.146121      -248.8786 
  20   2.0000      -6.922083      -188.3595 
  21   2.0000      -6.917023      -188.2218 
  22   2.0000      -6.916995      -188.2210 
  23   2.0000      -6.369062      -173.3110 
  24   2.0000      -6.368841      -173.3050 
  25   2.0000      -4.546772      -123.7240 
  26   2.0000      -4.546658      -123.7209 
  27   2.0000      -4.546441      -123.7149 
  28   2.0000      -4.546132      -123.7065 
  29   2.0000      -4.543980      -123.6480 
  30   2.0000      -4.543791      -123.6428 
  31   2.0000      -2.868144       -78.0462 
  32   2.0000      -1.758070       -47.8395 
  33   2.0000      -1.734315       -47.1931 
  34   2.0000      -1.733001       -47.1574 
  35   2.0000      -0.819505       -22.2999 
  36   2.0000      -0.738750       -20.1024 
  37   2.0000      -0.719519       -19.5791 
  38   2.0000      -0.713889       -19.4259 
  39   2.0000      -0.699821       -19.0431 
  40   2.0000      -0.673255       -18.3202 
  41   2.0000      -0.665816       -18.1178 
  42   2.0000      -0.658668       -17.9233 
  43   2.0000      -0.656486       -17.8639 
  44   2.0000      -0.652659       -17.7598 
  45   2.0000      -0.641954       -17.4685 
  46   2.0000      -0.638940       -17.3864 
  47   2.0000      -0.580893       -15.8069 
  48   2.0000      -0.570996       -15.5376 
  49   2.0000      -0.564281       -15.3549 
  50   2.0000      -0.512683       -13.9508 
  51   2.0000      -0.477971       -13.0063 
  52   2.0000      -0.466410       -12.6917 
  53   2.0000      -0.465528       -12.6677 
  54   2.0000      -0.423993       -11.5374 
  55   2.0000      -0.420512       -11.4427 
  56   2.0000      -0.413148       -11.2423 
  57   2.0000      -0.408197       -11.1076 
  58   2.0000      -0.396221       -10.7817 
  59   2.0000      -0.391709       -10.6589 
  60   2.0000      -0.390104       -10.6153 
  61   2.0000      -0.386235       -10.5100 
  62   2.0000      -0.384459       -10.4617 
  63   2.0000      -0.380913       -10.3652 
  64   2.0000      -0.376915       -10.2564 
  65   2.0000      -0.374085       -10.1794 
  66   2.0000      -0.371891       -10.1197 
  67   2.0000      -0.366950        -9.9852 
  68   2.0000      -0.365907        -9.9568 
  69   2.0000      -0.362583        -9.8664 
  70   2.0000      -0.359027        -9.7696 
  71   2.0000      -0.355179        -9.6649 
  72   2.0000      -0.352993        -9.6054 
  73   2.0000      -0.351171        -9.5558 
  74   2.0000      -0.338627        -9.2145 
  75   2.0000      -0.335574        -9.1314 
  76   2.0000      -0.333303        -9.0696 
  77   2.0000      -0.332362        -9.0440 
  78   2.0000      -0.309783        -8.4296 
  79   2.0000      -0.303637        -8.2624 
  80   2.0000      -0.299075        -8.1383 
  81   2.0000      -0.295470        -8.0402 
  82   2.0000      -0.293447        -7.9851 
  83   2.0000      -0.289414        -7.8753 
  84   2.0000      -0.280497        -7.6327 
  85   2.0000      -0.263581        -7.1724 
  86   2.0000      -0.263200        -7.1620 
  87   2.0000      -0.257079        -6.9955 
  88   2.0000      -0.227834        -6.1997 
  89   2.0000      -0.220979        -6.0131 
  90   2.0000      -0.208901        -5.6845 
  91   2.0000      -0.206448        -5.6177 
  92   2.0000      -0.172915        -4.7053 
  93   2.0000      -0.154501        -4.2042 
  94   2.0000      -0.140849        -3.8327 
  95   0.0000      -0.034951        -0.9511 
  96   0.0000      -0.018232        -0.4961 
  97   0.0000      -0.015378        -0.4185 
  98   0.0000      -0.000833        -0.0227 
  99   0.0000       0.000627         0.0171 
 100   0.0000       0.004312         0.1173 
 101   0.0000       0.016037         0.4364 
 102   0.0000       0.017685         0.4812 
 103   0.0000       0.019700         0.5361 
 104   0.0000       0.023290         0.6338 
 105   0.0000       0.024324         0.6619 
 106   0.0000       0.028250         0.7687 
 107   0.0000       0.029022         0.7897 
 108   0.0000       0.030621         0.8332 
 109   0.0000       0.035930         0.9777 
 110   0.0000       0.043028         1.1709 
 111   0.0000       0.043929         1.1954 
 112   0.0000       0.049472         1.3462 
 113   0.0000       0.050801         1.3824 
 114   0.0000       0.054987         1.4963 
 115   0.0000       0.058286         1.5860 
 116   0.0000       0.059543         1.6202 
 117   0.0000       0.060450         1.6449 
 118   0.0000       0.064943         1.7672 
 119   0.0000       0.069602         1.8940 
 120   0.0000       0.072180         1.9641 
 121   0.0000       0.074202         2.0191 
 122   0.0000       0.078372         2.1326 
 123   0.0000       0.081409         2.2153 
 124   0.0000       0.084862         2.3092 
 125   0.0000       0.087002         2.3674 
 126   0.0000       0.088938         2.4201 
 127   0.0000       0.092206         2.5090 
 128   0.0000       0.094033         2.5588 
 129   0.0000       0.096903         2.6369 
 130   0.0000       0.100019         2.7217 
 131   0.0000       0.101008         2.7486 
 132   0.0000       0.105706         2.8764 
 133   0.0000       0.106637         2.9018 
 134   0.0000       0.108311         2.9473 
 135   0.0000       0.114350         3.1116 
 136   0.0000       0.116490         3.1699 
 137   0.0000       0.118930         3.2362 
 138   0.0000       0.122448         3.3320 
 139   0.0000       0.126335         3.4378 
 140   0.0000       0.129061         3.5119 
 141   0.0000       0.130872         3.5612 
 142   0.0000       0.133454         3.6315 
 143   0.0000       0.134173         3.6510 
 144   0.0000       0.139503         3.7961 
 145   0.0000       0.141276         3.8443 
 146   0.0000       0.141712         3.8562 
 147   0.0000       0.146377         3.9831 
 148   0.0000       0.149598         4.0708 
 149   0.0000       0.153111         4.1664 
 150   0.0000       0.158426         4.3110 
 151   0.0000       0.160945         4.3795 
 152   0.0000       0.163725         4.4552 
 153   0.0000       0.168464         4.5841 
 154   0.0000       0.172042         4.6815 
 155   0.0000       0.173927         4.7328 
 156   0.0000       0.175240         4.7685 
 157   0.0000       0.182057         4.9540 
 158   0.0000       0.183619         4.9965 
 159   0.0000       0.188436         5.1276 
 160   0.0000       0.188650         5.1334 
 161   0.0000       0.191673         5.2157 
 162   0.0000       0.194690         5.2978 
 163   0.0000       0.197221         5.3667 
 164   0.0000       0.198440         5.3998 
 165   0.0000       0.199751         5.4355 
 166   0.0000       0.205417         5.5897 
 167   0.0000       0.208548         5.6749 
 168   0.0000       0.210589         5.7304 
 169   0.0000       0.210772         5.7354 
 170   0.0000       0.214480         5.8363 
 171   0.0000       0.218242         5.9387 
 172   0.0000       0.220651         6.0042 
 173   0.0000       0.221909         6.0385 
 174   0.0000       0.222088         6.0433 
 175   0.0000       0.224092         6.0979 
 176   0.0000       0.227194         6.1823 
 177   0.0000       0.231114         6.2889 
 178   0.0000       0.232659         6.3310 
 179   0.0000       0.233567         6.3557 
 180   0.0000       0.237538         6.4637 
 181   0.0000       0.239100         6.5062 
 182   0.0000       0.240932         6.5561 
 183   0.0000       0.242558         6.6003 
 184   0.0000       0.243905         6.6370 
 185   0.0000       0.246132         6.6976 
 186   0.0000       0.247015         6.7216 
 187   0.0000       0.248483         6.7616 
 188   0.0000       0.249009         6.7759 
 189   0.0000       0.251603         6.8465 
 190   0.0000       0.254752         6.9322 
 191   0.0000       0.255623         6.9559 
 192   0.0000       0.259869         7.0714 
 193   0.0000       0.263234         7.1630 
 194   0.0000       0.266197         7.2436 
 195   0.0000       0.267869         7.2891 
 196   0.0000       0.269336         7.3290 
 197   0.0000       0.272016         7.4019 
 198   0.0000       0.274816         7.4781 
 199   0.0000       0.275727         7.5029 
 200   0.0000       0.277848         7.5606 
 201   0.0000       0.281477         7.6594 
 202   0.0000       0.283970         7.7272 
 203   0.0000       0.285812         7.7773 
 204   0.0000       0.288446         7.8490 
 205   0.0000       0.289759         7.8847 
 206   0.0000       0.291324         7.9273 
 207   0.0000       0.294489         8.0134 
 208   0.0000       0.295521         8.0415 
 209   0.0000       0.298794         8.1306 
 210   0.0000       0.300325         8.1722 
 211   0.0000       0.304223         8.2783 
 212   0.0000       0.306884         8.3507 
 213   0.0000       0.307167         8.3584 
 214   0.0000       0.308858         8.4045 
 215   0.0000       0.309473         8.4212 
 216   0.0000       0.311837         8.4855 
 217   0.0000       0.315718         8.5911 
 218   0.0000       0.317231         8.6323 
 219   0.0000       0.319575         8.6961 
 220   0.0000       0.322831         8.7847 
 221   0.0000       0.325084         8.8460 
 222   0.0000       0.326495         8.8844 
 223   0.0000       0.329811         8.9746 
 224   0.0000       0.330511         8.9937 
 225   0.0000       0.332471         9.0470 
 226   0.0000       0.335730         9.1357 
 227   0.0000       0.338053         9.1989 
 228   0.0000       0.340939         9.2774 
 229   0.0000       0.344573         9.3763 
 230   0.0000       0.347275         9.4498 
 231   0.0000       0.349427         9.5084 
 232   0.0000       0.350810         9.5460 
 233   0.0000       0.353484         9.6188 
 234   0.0000       0.354624         9.6498 
 235   0.0000       0.355449         9.6723 
 236   0.0000       0.359854         9.7921 
 237   0.0000       0.362564         9.8659 
 238   0.0000       0.363161         9.8821 
 239   0.0000       0.364418         9.9163 
 240   0.0000       0.368191        10.0190 
 241   0.0000       0.370364        10.0781 
 242   0.0000       0.374255        10.1840 
 243   0.0000       0.376335        10.2406 
 244   0.0000       0.378887        10.3100 
 245   0.0000       0.379237        10.3196 
 246   0.0000       0.381532        10.3820 
 247   0.0000       0.381784        10.3889 
 248   0.0000       0.384215        10.4550 
 249   0.0000       0.388670        10.5762 
 250   0.0000       0.391356        10.6494 
 251   0.0000       0.394357        10.7310 
 252   0.0000       0.396721        10.7953 
 253   0.0000       0.399989        10.8843 
 254   0.0000       0.401078        10.9139 
 255   0.0000       0.403532        10.9807 
 256   0.0000       0.408263        11.1094 
 257   0.0000       0.409962        11.1556 
 258   0.0000       0.412692        11.2299 
 259   0.0000       0.415345        11.3021 
 260   0.0000       0.418942        11.4000 
 261   0.0000       0.420222        11.4348 
 262   0.0000       0.424390        11.5483 
 263   0.0000       0.426594        11.6082 
 264   0.0000       0.427929        11.6445 
 265   0.0000       0.428334        11.6556 
 266   0.0000       0.430951        11.7268 
 267   0.0000       0.434981        11.8364 
 268   0.0000       0.436288        11.8720 
 269   0.0000       0.439346        11.9552 
 270   0.0000       0.441361        12.0101 
 271   0.0000       0.443453        12.0670 
 272   0.0000       0.446950        12.1621 
 273   0.0000       0.449194        12.2232 
 274   0.0000       0.452972        12.3260 
 275   0.0000       0.453704        12.3459 
 276   0.0000       0.455029        12.3820 
 277   0.0000       0.460938        12.5428 
 278   0.0000       0.461597        12.5607 
 279   0.0000       0.463865        12.6224 
 280   0.0000       0.466523        12.6947 
 281   0.0000       0.468735        12.7549 
 282   0.0000       0.469367        12.7721 
 283   0.0000       0.472785        12.8651 
 284   0.0000       0.476795        12.9742 
 285   0.0000       0.479588        13.0502 
 286   0.0000       0.482375        13.1261 
 287   0.0000       0.485170        13.2021 
 288   0.0000       0.488631        13.2963 
 289   0.0000       0.489772        13.3274 
 290   0.0000       0.492395        13.3987 
 291   0.0000       0.494291        13.4504 
 292   0.0000       0.497848        13.5471 
 293   0.0000       0.504060        13.7162 
 294   0.0000       0.506508        13.7828 
 295   0.0000       0.508031        13.8242 
 296   0.0000       0.510940        13.9034 
 297   0.0000       0.514986        14.0135 
 298   0.0000       0.516427        14.0527 
 299   0.0000       0.519429        14.1344 
 300   0.0000       0.521000        14.1771 
 301   0.0000       0.521517        14.1912 
 302   0.0000       0.523637        14.2489 
 303   0.0000       0.529575        14.4105 
 304   0.0000       0.532128        14.4799 
 305   0.0000       0.534348        14.5403 
 306   0.0000       0.537574        14.6281 
 307   0.0000       0.538674        14.6581 
 308   0.0000       0.541502        14.7350 
 309   0.0000       0.544798        14.8247 
 310   0.0000       0.546721        14.8770 
 311   0.0000       0.549428        14.9507 
 312   0.0000       0.553933        15.0733 
 313   0.0000       0.554646        15.0927 
 314   0.0000       0.558593        15.2001 
 315   0.0000       0.562611        15.3094 
 316   0.0000       0.563030        15.3208 
 317   0.0000       0.567679        15.4473 
 318   0.0000       0.569967        15.5096 
 319   0.0000       0.573517        15.6062 
 320   0.0000       0.577852        15.7241 
 321   0.0000       0.579068        15.7572 
 322   0.0000       0.581210        15.8155 
 323   0.0000       0.582255        15.8440 
 324   0.0000       0.583967        15.8906 
 325   0.0000       0.588731        16.0202 
 326   0.0000       0.594624        16.1805 
 327   0.0000       0.595658        16.2087 
 328   0.0000       0.600368        16.3368 
 329   0.0000       0.601250        16.3609 
 330   0.0000       0.605011        16.4632 
 331   0.0000       0.606642        16.5076 
 332   0.0000       0.607739        16.5374 
 333   0.0000       0.610501        16.6126 
 334   0.0000       0.611258        16.6332 
 335   0.0000       0.612917        16.6783 
 336   0.0000       0.615164        16.7395 
 337   0.0000       0.619246        16.8505 
 338   0.0000       0.623693        16.9715 
 339   0.0000       0.626039        17.0354 
 340   0.0000       0.629452        17.1283 
 341   0.0000       0.630076        17.1452 
 342   0.0000       0.633529        17.2392 
 343   0.0000       0.634078        17.2541 
 344   0.0000       0.638652        17.3786 
 345   0.0000       0.641689        17.4612 
 346   0.0000       0.642261        17.4768 
 347   0.0000       0.643955        17.5229 
 348   0.0000       0.644388        17.5347 
 349   0.0000       0.646042        17.5797 
 350   0.0000       0.650073        17.6894 
 351   0.0000       0.650857        17.7107 
 352   0.0000       0.652050        17.7432 
 353   0.0000       0.654788        17.8177 
 354   0.0000       0.656669        17.8689 
 355   0.0000       0.658358        17.9148 
 356   0.0000       0.659969        17.9587 
 357   0.0000       0.664782        18.0896 
 358   0.0000       0.666089        18.1252 
 359   0.0000       0.668312        18.1857 
 360   0.0000       0.671163        18.2633 
 361   0.0000       0.673520        18.3274 
 362   0.0000       0.675403        18.3787 
 363   0.0000       0.678200        18.4548 
 364   0.0000       0.678938        18.4748 
 365   0.0000       0.681372        18.5411 
 366   0.0000       0.683432        18.5971 
 367   0.0000       0.685475        18.6527 
 368   0.0000       0.688395        18.7322 
 369   0.0000       0.691124        18.8065 
 370   0.0000       0.692545        18.8451 
 371   0.0000       0.696044        18.9403 
 372   0.0000       0.697061        18.9680 
 373   0.0000       0.698446        19.0057 
 374   0.0000       0.701182        19.0801 
 375   0.0000       0.703213        19.1354 
 376   0.0000       0.706192        19.2165 
 377   0.0000       0.707319        19.2471 
 378   0.0000       0.707528        19.2528 
 379   0.0000       0.711041        19.3484 
 380   0.0000       0.715366        19.4661 
 381   0.0000       0.715934        19.4816 
 382   0.0000       0.718724        19.5575 
 383   0.0000       0.721823        19.6418 
 384   0.0000       0.723949        19.6996 
 385   0.0000       0.726185        19.7605 
 386   0.0000       0.726924        19.7806 
 387   0.0000       0.728026        19.8106 
 388   0.0000       0.730233        19.8707 
 389   0.0000       0.734892        19.9974 
 390   0.0000       0.736027        20.0283 
 391   0.0000       0.739349        20.1187 
 392   0.0000       0.742622        20.2078 
 393   0.0000       0.745014        20.2729 
 394   0.0000       0.745989        20.2994 
 395   0.0000       0.747319        20.3356 
 396   0.0000       0.748927        20.3793 
 397   0.0000       0.751128        20.4392 
 398   0.0000       0.755506        20.5584 
 399   0.0000       0.758064        20.6280 
 400   0.0000       0.759804        20.6753 
 401   0.0000       0.762033        20.7360 
 402   0.0000       0.768767        20.9192 
 403   0.0000       0.768964        20.9246 
 404   0.0000       0.770379        20.9631 
 405   0.0000       0.776020        21.1166 
 406   0.0000       0.779113        21.2007 
 407   0.0000       0.780829        21.2474 
 408   0.0000       0.782851        21.3025 
 409   0.0000       0.786695        21.4071 
 410   0.0000       0.788898        21.4670 
 411   0.0000       0.791728        21.5440 
 412   0.0000       0.793267        21.5859 
 413   0.0000       0.796034        21.6612 
 414   0.0000       0.799077        21.7440 
 415   0.0000       0.801419        21.8077 
 416   0.0000       0.803409        21.8619 
 417   0.0000       0.806452        21.9447 
 418   0.0000       0.808404        21.9978 
 419   0.0000       0.812068        22.0975 
 420   0.0000       0.813376        22.1331 
 421   0.0000       0.819037        22.2871 
 422   0.0000       0.820829        22.3359 
 423   0.0000       0.824853        22.4454 
 424   0.0000       0.829258        22.5653 
 425   0.0000       0.830989        22.6124 
 426   0.0000       0.831992        22.6397 
 427   0.0000       0.835292        22.7295 
 428   0.0000       0.837618        22.7927 
 429   0.0000       0.837978        22.8025 
 430   0.0000       0.841959        22.9109 
 431   0.0000       0.844462        22.9790 
 432   0.0000       0.846497        23.0343 
 433   0.0000       0.850416        23.1410 
 434   0.0000       0.854665        23.2566 
 435   0.0000       0.856720        23.3125 
 436   0.0000       0.860652        23.4195 
 437   0.0000       0.865836        23.5606 
 438   0.0000       0.868544        23.6343 
 439   0.0000       0.871305        23.7094 
 440   0.0000       0.874500        23.7964 
 441   0.0000       0.877889        23.8886 
 442   0.0000       0.883629        24.0448 
 443   0.0000       0.889297        24.1990 
 444   0.0000       0.890865        24.2417 
 445   0.0000       0.894496        24.3405 
 446   0.0000       0.897656        24.4265 
 447   0.0000       0.902882        24.5687 
 448   0.0000       0.906053        24.6550 
 449   0.0000       0.908583        24.7238 
 450   0.0000       0.909739        24.7553 
 451   0.0000       0.915391        24.9091 
 452   0.0000       0.918140        24.9838 
 453   0.0000       0.921291        25.0696 
 454   0.0000       0.925396        25.1813 
 455   0.0000       0.927695        25.2439 
 456   0.0000       0.930379        25.3169 
 457   0.0000       0.935501        25.4563 
 458   0.0000       0.936734        25.4898 
 459   0.0000       0.948559        25.8116 
 460   0.0000       0.950893        25.8751 
 461   0.0000       0.961251        26.1570 
 462   0.0000       0.962712        26.1967 
 463   0.0000       0.963140        26.2084 
 464   0.0000       0.967166        26.3179 
 465   0.0000       0.969203        26.3734 
 466   0.0000       0.976379        26.5686 
 467   0.0000       0.980008        26.6674 
 468   0.0000       0.981136        26.6981 
 469   0.0000       0.987802        26.8795 
 470   0.0000       0.992172        26.9984 
 471   0.0000       0.998683        27.1755 
 472   0.0000       1.001236        27.2450 
 473   0.0000       1.004015        27.3206 
 474   0.0000       1.009612        27.4729 
 475   0.0000       1.011283        27.5184 
 476   0.0000       1.013621        27.5820 
 477   0.0000       1.016349        27.6563 
 478   0.0000       1.019406        27.7395 
 479   0.0000       1.025318        27.9003 
 480   0.0000       1.032886        28.1062 
 481   0.0000       1.038019        28.2459 
 482   0.0000       1.040697        28.3188 
 483   0.0000       1.043813        28.4036 
 484   0.0000       1.047675        28.5087 
 485   0.0000       1.048510        28.5314 
 486   0.0000       1.060828        28.8666 
 487   0.0000       1.062851        28.9216 
 488   0.0000       1.066799        29.0291 
 489   0.0000       1.071329        29.1523 
 490   0.0000       1.075324        29.2611 
 491   0.0000       1.080343        29.3976 
 492   0.0000       1.089817        29.6554 
 493   0.0000       1.095193        29.8017 
 494   0.0000       1.098181        29.8830 
 495   0.0000       1.102868        30.0106 
 496   0.0000       1.103885        30.0382 
 497   0.0000       1.107329        30.1319 
 498   0.0000       1.108323        30.1590 
 499   0.0000       1.112538        30.2737 
 500   0.0000       1.118200        30.4278 
 501   0.0000       1.127240        30.6738 
 502   0.0000       1.135750        30.9053 
 503   0.0000       1.137533        30.9538 
 504   0.0000       1.140921        31.0460 
 505   0.0000       1.147033        31.2124 
 506   0.0000       1.151125        31.3237 
 507   0.0000       1.152981        31.3742 
 508   0.0000       1.160851        31.5884 
 509   0.0000       1.164535        31.6886 
 510   0.0000       1.170159        31.8417 
 511   0.0000       1.174213        31.9520 
 512   0.0000       1.178768        32.0759 
 513   0.0000       1.185378        32.2558 
 514   0.0000       1.189969        32.3807 
 515   0.0000       1.195119        32.5209 
 516   0.0000       1.198470        32.6120 
 517   0.0000       1.205828        32.8122 
 518   0.0000       1.209872        32.9223 
 519   0.0000       1.213854        33.0306 
 520   0.0000       1.218914        33.1683 
 521   0.0000       1.225479        33.3470 
 522   0.0000       1.233248        33.5584 
 523   0.0000       1.237592        33.6766 
 524   0.0000       1.243855        33.8470 
 525   0.0000       1.247032        33.9335 
 526   0.0000       1.248086        33.9622 
 527   0.0000       1.252735        34.0886 
 528   0.0000       1.256606        34.1940 
 529   0.0000       1.258441        34.2439 
 530   0.0000       1.264631        34.4124 
 531   0.0000       1.267632        34.4940 
 532   0.0000       1.274261        34.6744 
 533   0.0000       1.275367        34.7045 
 534   0.0000       1.280218        34.8365 
 535   0.0000       1.285113        34.9697 
 536   0.0000       1.288662        35.0663 
 537   0.0000       1.290190        35.1079 
 538   0.0000       1.295475        35.2517 
 539   0.0000       1.297887        35.3173 
 540   0.0000       1.302476        35.4422 
 541   0.0000       1.309708        35.6390 
 542   0.0000       1.316403        35.8211 
 543   0.0000       1.317213        35.8432 
 544   0.0000       1.324717        36.0474 
 545   0.0000       1.328073        36.1387 
 546   0.0000       1.331071        36.2203 
 547   0.0000       1.334592        36.3161 
 548   0.0000       1.341429        36.5021 
 549   0.0000       1.343049        36.5462 
 550   0.0000       1.349615        36.7249 
 551   0.0000       1.352015        36.7902 
 552   0.0000       1.353898        36.8414 
 553   0.0000       1.358907        36.9777 
 554   0.0000       1.360217        37.0134 
 555   0.0000       1.361263        37.0418 
 556   0.0000       1.366904        37.1954 
 557   0.0000       1.369515        37.2664 
 558   0.0000       1.375532        37.4301 
 559   0.0000       1.378501        37.5109 
 560   0.0000       1.383153        37.6375 
 561   0.0000       1.384454        37.6729 
 562   0.0000       1.387385        37.7527 
 563   0.0000       1.391128        37.8545 
 564   0.0000       1.395796        37.9815 
 565   0.0000       1.398707        38.0608 
 566   0.0000       1.403257        38.1846 
 567   0.0000       1.409369        38.3509 
 568   0.0000       1.420227        38.6463 
 569   0.0000       1.420920        38.6652 
 570   0.0000       1.423606        38.7383 
 571   0.0000       1.424273        38.7564 
 572   0.0000       1.428315        38.8664 
 573   0.0000       1.433370        39.0040 
 574   0.0000       1.439228        39.1634 
 575   0.0000       1.440039        39.1854 
 576   0.0000       1.442272        39.2462 
 577   0.0000       1.450791        39.4780 
 578   0.0000       1.455368        39.6026 
 579   0.0000       1.456713        39.6392 
 580   0.0000       1.459776        39.7225 
 581   0.0000       1.462925        39.8082 
 582   0.0000       1.467273        39.9265 
 583   0.0000       1.474891        40.1338 
 584   0.0000       1.475368        40.1468 
 585   0.0000       1.480251        40.2797 
 586   0.0000       1.482545        40.3421 
 587   0.0000       1.489608        40.5343 
 588   0.0000       1.491488        40.5855 
 589   0.0000       1.495312        40.6895 
 590   0.0000       1.497323        40.7442 
 591   0.0000       1.501830        40.8669 
 592   0.0000       1.509140        41.0658 
 593   0.0000       1.511371        41.1265 
 594   0.0000       1.515287        41.2330 
 595   0.0000       1.518529        41.3213 
 596   0.0000       1.522837        41.4385 
 597   0.0000       1.527499        41.5654 
 598   0.0000       1.533366        41.7250 
 599   0.0000       1.538891        41.8753 
 600   0.0000       1.541950        41.9586 
 601   0.0000       1.546274        42.0762 
 602   0.0000       1.554799        42.3082 
 603   0.0000       1.558246        42.4020 
 604   0.0000       1.560307        42.4581 
 605   0.0000       1.566398        42.6239 
 606   0.0000       1.570947        42.7476 
 607   0.0000       1.575745        42.8782 
 608   0.0000       1.577454        42.9247 
 609   0.0000       1.580817        43.0162 
 610   0.0000       1.586903        43.1818 
 611   0.0000       1.593969        43.3741 
 612   0.0000       1.598202        43.4893 
 613   0.0000       1.600607        43.5547 
 614   0.0000       1.603595        43.6361 
 615   0.0000       1.611763        43.8583 
 616   0.0000       1.619861        44.0787 
 617   0.0000       1.628126        44.3036 
 618   0.0000       1.628784        44.3215 
 619   0.0000       1.633053        44.4376 
 620   0.0000       1.637157        44.5493 
 621   0.0000       1.644008        44.7357 
 622   0.0000       1.652189        44.9583 
 623   0.0000       1.655301        45.0430 
 624   0.0000       1.663112        45.2556 
 625   0.0000       1.667546        45.3762 
 626   0.0000       1.672070        45.4993 
 627   0.0000       1.672413        45.5087 
 628   0.0000       1.677498        45.6470 
 629   0.0000       1.680603        45.7315 
 630   0.0000       1.687790        45.9271 
 631   0.0000       1.691090        46.0169 
 632   0.0000       1.699319        46.2408 
 633   0.0000       1.701501        46.3002 
 634   0.0000       1.707133        46.4534 
 635   0.0000       1.708828        46.4996 
 636   0.0000       1.716723        46.7144 
 637   0.0000       1.723967        46.9115 
 638   0.0000       1.727681        47.0126 
 639   0.0000       1.731425        47.1145 
 640   0.0000       1.733890        47.1815 
 641   0.0000       1.741413        47.3863 
 642   0.0000       1.743617        47.4462 
 643   0.0000       1.749512        47.6066 
 644   0.0000       1.755043        47.7571 
 645   0.0000       1.759566        47.8802 
 646   0.0000       1.760862        47.9155 
 647   0.0000       1.765908        48.0528 
 648   0.0000       1.769968        48.1633 
 649   0.0000       1.775146        48.3042 
 650   0.0000       1.779047        48.4103 
 651   0.0000       1.785645        48.5899 
 652   0.0000       1.794000        48.8172 
 653   0.0000       1.796899        48.8961 
 654   0.0000       1.799282        48.9610 
 655   0.0000       1.806541        49.1585 
 656   0.0000       1.813958        49.3603 
 657   0.0000       1.816552        49.4309 
 658   0.0000       1.822506        49.5929 
 659   0.0000       1.824385        49.6440 
 660   0.0000       1.828208        49.7481 
 661   0.0000       1.835448        49.9451 
 662   0.0000       1.836508        49.9739 
 663   0.0000       1.840678        50.0874 
 664   0.0000       1.846620        50.2491 
 665   0.0000       1.854210        50.4556 
 666   0.0000       1.857582        50.5474 
 667   0.0000       1.865494        50.7627 
 668   0.0000       1.870491        50.8987 
 669   0.0000       1.875961        51.0475 
 670   0.0000       1.879042        51.1313 
 671   0.0000       1.888114        51.3782 
 672   0.0000       1.894407        51.5494 
 673   0.0000       1.896224        51.5989 
 674   0.0000       1.903119        51.7865 
 675   0.0000       1.907867        51.9157 
 676   0.0000       1.910812        51.9958 
 677   0.0000       1.920652        52.2636 
 678   0.0000       1.922172        52.3050 
 679   0.0000       1.933700        52.6187 
 680   0.0000       1.945761        52.9468 
 681   0.0000       1.946491        52.9667 
 682   0.0000       1.950352        53.0718 
 683   0.0000       1.953056        53.1454 
 684   0.0000       1.956392        53.2361 
 685   0.0000       1.961870        53.3852 
 686   0.0000       1.966641        53.5150 
 687   0.0000       1.984047        53.9887 
 688   0.0000       1.986419        54.0532 
 689   0.0000       1.992145        54.2090 
 690   0.0000       1.994768        54.2804 
 691   0.0000       2.001206        54.4556 
 692   0.0000       2.011295        54.7301 
 693   0.0000       2.021160        54.9986 
 694   0.0000       2.027874        55.1813 
 695   0.0000       2.030160        55.2435 
 696   0.0000       2.037264        55.4368 
 697   0.0000       2.050504        55.7971 
 698   0.0000       2.061115        56.0858 
 699   0.0000       2.070636        56.3449 
 700   0.0000       2.071345        56.3642 
 701   0.0000       2.074681        56.4549 
 702   0.0000       2.083760        56.7020 
 703   0.0000       2.085410        56.7469 
 704   0.0000       2.092492        56.9396 
 705   0.0000       2.107990        57.3613 
 706   0.0000       2.119534        57.6755 
 707   0.0000       2.124140        57.8008 
 708   0.0000       2.138107        58.1809 
 709   0.0000       2.154491        58.6267 
 710   0.0000       2.159517        58.7635 
 711   0.0000       2.172911        59.1279 
 712   0.0000       2.175261        59.1919 
 713   0.0000       2.188912        59.5633 
 714   0.0000       2.192656        59.6652 
 715   0.0000       2.196235        59.7626 
 716   0.0000       2.202938        59.9450 
 717   0.0000       2.208168        60.0873 
 718   0.0000       2.217490        60.3410 
 719   0.0000       2.224255        60.5250 
 720   0.0000       2.230704        60.7005 
 721   0.0000       2.239489        60.9396 
 722   0.0000       2.245916        61.1145 
 723   0.0000       2.247155        61.1482 
 724   0.0000       2.256606        61.4054 
 725   0.0000       2.262348        61.5616 
 726   0.0000       2.268474        61.7283 
 727   0.0000       2.278616        62.0043 
 728   0.0000       2.282610        62.1130 
 729   0.0000       2.296814        62.4995 
 730   0.0000       2.301183        62.6184 
 731   0.0000       2.315373        63.0045 
 732   0.0000       2.328639        63.3655 
 733   0.0000       2.332297        63.4650 
 734   0.0000       2.342443        63.7411 
 735   0.0000       2.348849        63.9154 
 736   0.0000       2.357232        64.1435 
 737   0.0000       2.360887        64.2430 
 738   0.0000       2.363424        64.3120 
 739   0.0000       2.378332        64.7177 
 740   0.0000       2.386617        64.9431 
 741   0.0000       2.399632        65.2973 
 742   0.0000       2.404676        65.4346 
 743   0.0000       2.416306        65.7510 
 744   0.0000       2.419761        65.8450 
 745   0.0000       2.425172        65.9923 
 746   0.0000       2.434474        66.2454 
 747   0.0000       2.440220        66.4018 
 748   0.0000       2.445493        66.5453 
 749   0.0000       2.451814        66.7172 
 750   0.0000       2.458759        66.9062 
 751   0.0000       2.461402        66.9782 
 752   0.0000       2.467464        67.1431 
 753   0.0000       2.486945        67.6732 
 754   0.0000       2.492571        67.8263 
 755   0.0000       2.499432        68.0130 
 756   0.0000       2.512452        68.3673 
 757   0.0000       2.518199        68.5237 
 758   0.0000       2.560823        69.6835 
 759   0.0000       2.578281        70.1586 
 760   0.0000       2.592547        70.5468 
 761   0.0000       2.594370        70.5964 
 762   0.0000       2.601675        70.7952 
 763   0.0000       2.604685        70.8771 
 764   0.0000       2.609721        71.0141 
 765   0.0000       2.616762        71.2057 
 766   0.0000       2.632129        71.6239 
 767   0.0000       2.636730        71.7491 
 768   0.0000       2.638639        71.8010 
 769   0.0000       2.643591        71.9358 
 770   0.0000       2.664063        72.4928 
 771   0.0000       2.671306        72.6899 
 772   0.0000       2.678199        72.8775 
 773   0.0000       2.694621        73.3244 
 774   0.0000       2.699371        73.4536 
 775   0.0000       2.704449        73.5918 
 776   0.0000       2.728528        74.2470 
 777   0.0000       2.728969        74.2590 
 778   0.0000       2.743372        74.6509 
 779   0.0000       2.748727        74.7967 
 780   0.0000       2.761148        75.1347 
 781   0.0000       2.769799        75.3701 
 782   0.0000       2.784497        75.7700 
 783   0.0000       2.800559        76.2071 
 784   0.0000       2.807359        76.3921 
 785   0.0000       2.819553        76.7239 
 786   0.0000       2.830500        77.0218 
 787   0.0000       2.841456        77.3199 
 788   0.0000       2.859017        77.7978 
 789   0.0000       2.868285        78.0500 
 790   0.0000       2.874110        78.2085 
 791   0.0000       2.886817        78.5543 
 792   0.0000       2.888610        78.6031 
 793   0.0000       2.892025        78.6960 
 794   0.0000       2.896186        78.8092 
 795   0.0000       2.901976        78.9668 
 796   0.0000       2.905500        79.0627 
 797   0.0000       2.909967        79.1842 
 798   0.0000       2.918313        79.4113 
 799   0.0000       2.922121        79.5150 
 800   0.0000       2.925710        79.6126 
 801   0.0000       2.928233        79.6813 
 802   0.0000       2.931026        79.7573 
 803   0.0000       2.941769        80.0496 
 804   0.0000       2.943896        80.1075 
 805   0.0000       2.949153        80.2505 
 806   0.0000       2.952966        80.3543 
 807   0.0000       2.954744        80.4027 
 808   0.0000       2.960492        80.5591 
 809   0.0000       2.963940        80.6529 
 810   0.0000       2.968571        80.7789 
 811   0.0000       2.971815        80.8672 
 812   0.0000       2.980563        81.1052 
 813   0.0000       2.982104        81.1472 
 814   0.0000       2.987664        81.2985 
 815   0.0000       2.994838        81.4937 
 816   0.0000       3.004289        81.7509 
 817   0.0000       3.005471        81.7830 
 818   0.0000       3.008962        81.8780 
 819   0.0000       3.011762        81.9542 
 820   0.0000       3.019103        82.1540 
 821   0.0000       3.024689        82.3060 
 822   0.0000       3.029629        82.4404 
 823   0.0000       3.030824        82.4729 
 824   0.0000       3.035103        82.5894 
 825   0.0000       3.046543        82.9006 
 826   0.0000       3.046881        82.9099 
 827   0.0000       3.053385        83.0868 
 828   0.0000       3.055454        83.1431 
 829   0.0000       3.062423        83.3328 
 830   0.0000       3.068212        83.4903 
 831   0.0000       3.071373        83.5763 
 832   0.0000       3.077888        83.7536 
 833   0.0000       3.083852        83.9159 
 834   0.0000       3.086650        83.9920 
 835   0.0000       3.093680        84.1833 
 836   0.0000       3.096557        84.2616 
 837   0.0000       3.098643        84.3184 
 838   0.0000       3.102970        84.4361 
 839   0.0000       3.109407        84.6113 
 840   0.0000       3.118048        84.8464 
 841   0.0000       3.125935        85.0610 
 842   0.0000       3.130479        85.1847 
 843   0.0000       3.134155        85.2847 
 844   0.0000       3.137448        85.3743 
 845   0.0000       3.141292        85.4789 
 846   0.0000       3.147808        85.6562 
 847   0.0000       3.152870        85.7939 
 848   0.0000       3.155713        85.8713 
 849   0.0000       3.161278        86.0227 
 850   0.0000       3.165748        86.1444 
 851   0.0000       3.175379        86.4064 
 852   0.0000       3.176937        86.4488 
 853   0.0000       3.183623        86.6308 
 854   0.0000       3.187248        86.7294 
 855   0.0000       3.199097        87.0518 
 856   0.0000       3.205798        87.2342 
 857   0.0000       3.208507        87.3079 
 858   0.0000       3.211792        87.3973 
 859   0.0000       3.212920        87.4280 
 860   0.0000       3.215620        87.5015 
 861   0.0000       3.224024        87.7301 
 862   0.0000       3.231714        87.9394 
[...]
      px      :     0.124248
      py      :     0.105484
      dz2     :     0.002614  d :     0.029999
      dxz     :     0.006276
      dyz     :     0.003817
      dx2y2   :     0.008926
      dxy     :     0.008367
 30 H s       :     0.713655  s :     0.713655
      pz      :     0.086917  p :     0.311292
      px      :     0.120975
      py      :     0.103400
      dz2     :     0.002940  d :     0.029794
      dxz     :     0.006106
      dyz     :     0.003498
      dx2y2   :     0.008810
      dxy     :     0.008440
 31 C s       :     2.690627  s :     2.690627
      pz      :     0.935599  p :     2.808649
      px      :     0.932140
      py      :     0.940910
      dz2     :     0.129449  d :     0.487613
      dxz     :     0.049507
      dyz     :     0.129046
      dx2y2   :     0.048089
      dxy     :     0.131522
      f0      :     0.001906  f :     0.021748
      f+1     :     0.003442
      f-1     :     0.004973
      f+2     :     0.003722
      f-2     :     0.001164
      f+3     :     0.001480
      f-3     :     0.005061
 32 H s       :     0.709793  s :     0.709793
      pz      :     0.086764  p :     0.309813
      px      :     0.122252
      py      :     0.100797
      dz2     :     0.002689  d :     0.029879
      dxz     :     0.006547
      dyz     :     0.003125
      dx2y2   :     0.008856
      dxy     :     0.008662
 33 H s       :     0.703637  s :     0.703637
      pz      :     0.088219  p :     0.338943
      px      :     0.141129
      py      :     0.109596
      dz2     :     0.002642  d :     0.030113
      dxz     :     0.005631
      dyz     :     0.004245
      dx2y2   :     0.009294
      dxy     :     0.008300
 34 H s       :     0.710357  s :     0.710357
      pz      :     0.129553  p :     0.320784
      px      :     0.088138
      py      :     0.103092
      dz2     :     0.010228  d :     0.030108
      dxz     :     0.006326
      dyz     :     0.008024
      dx2y2   :     0.002390
      dxy     :     0.003140
 35 C s       :     2.671657  s :     2.671657
      pz      :     0.916638  p :     2.730612
      px      :     0.925475
      py      :     0.888499
      dz2     :     0.149326  d :     0.760542
      dxz     :     0.088912
      dyz     :     0.137892
      dx2y2   :     0.169927
      dxy     :     0.214485
      f0      :     0.004738  f :     0.032903
      f+1     :     0.003266
      f-1     :     0.004536
      f+2     :     0.004378
      f-2     :     0.004627
      f+3     :     0.005931
      f-3     :     0.005427
 36 H s       :     0.691437  s :     0.691437
      pz      :     0.134491  p :     0.311367
      px      :     0.093366
      py      :     0.083509
      dz2     :     0.010344  d :     0.030574
      dxz     :     0.009880
      dyz     :     0.008880
      dx2y2   :     0.000792
      dxy     :     0.000678
 37 H s       :     0.697373  s :     0.697373
      pz      :     0.089544  p :     0.295801
      px      :     0.110944
      py      :     0.095313
      dz2     :     0.005848  d :     0.030411
      dxz     :     0.005784
      dyz     :     0.004514
      dx2y2   :     0.007683
      dxy     :     0.006581
 38 C s       :     2.610903  s :     2.610903
      pz      :     0.881459  p :     2.520683
      px      :     0.752937
      py      :     0.886288
      dz2     :     0.228438  d :     1.065879
      dxz     :     0.180955
      dyz     :     0.289111
      dx2y2   :     0.183666
      dxy     :     0.183710
      f0      :     0.008783  f :     0.061767
      f+1     :     0.007277
      f-1     :     0.016643
      f+2     :     0.006403
      f-2     :     0.007662
      f+3     :     0.007950
      f-3     :     0.007048
 39 P s       :     4.634592  s :     4.634592
      pz      :     2.672358  p :     8.176948
      px      :     2.772953
      py      :     2.731637
      dz2     :     0.277336  d :     1.274558
      dxz     :     0.220096
      dyz     :     0.273476
      dx2y2   :     0.280785
      dxy     :     0.222864
      f0      :     0.017637  f :     0.129347
      f+1     :     0.016770
      f-1     :     0.020347
      f+2     :     0.018240
      f-2     :     0.017699
      f+3     :     0.020200
      f-3     :     0.018455
 40 H s       :     0.712942  s :     0.712942
      pz      :     0.083890  p :     0.308453
      px      :     0.124706
      py      :     0.099856
      dz2     :     0.002908  d :     0.029783
      dxz     :     0.006968
      dyz     :     0.002467
      dx2y2   :     0.008707
      dxy     :     0.008734
 41 H s       :     0.711228  s :     0.711228
      pz      :     0.095643  p :     0.323689
      px      :     0.121688
      py      :     0.106358
      dz2     :     0.004711  d :     0.030020
      dxz     :     0.005682
      dyz     :     0.003983
      dx2y2   :     0.008075
      dxy     :     0.007568
 42 H s       :     0.700785  s :     0.700785
      pz      :     0.149435  p :     0.354157
      px      :     0.085938
      py      :     0.118784
      dz2     :     0.011032  d :     0.030281
      dxz     :     0.008704
      dyz     :     0.009068
      dx2y2   :     0.000643
      dxy     :     0.000834
 43 C s       :     2.670617  s :     2.670617
      pz      :     0.931970  p :     2.738473
      px      :     0.923336
      py      :     0.883168
      dz2     :     0.173851  d :     0.782201
      dxz     :     0.095556
      dyz     :     0.123060
      dx2y2   :     0.171108
      dxy     :     0.218626
      f0      :     0.005473  f :     0.032610
      f+1     :     0.002075
      f-1     :     0.004488
      f+2     :     0.005120
      f-2     :     0.004188
      f+3     :     0.005572
      f-3     :     0.005693
 44 C s       :     2.690813  s :     2.690813
      pz      :     0.945981  p :     2.815409
      px      :     0.933542
      py      :     0.935886
      dz2     :     0.117295  d :     0.481712
      dxz     :     0.044562
      dyz     :     0.103071
      dx2y2   :     0.080743
      dxy     :     0.136041
      f0      :     0.004122  f :     0.021621
      f+1     :     0.002651
      f-1     :     0.002100
      f+2     :     0.003572
      f-2     :     0.002586
      f+3     :     0.001752
      f-3     :     0.004837
 45 C s       :     2.691188  s :     2.691188
      pz      :     0.938211  p :     2.806888
      px      :     0.933857
      py      :     0.934820
      dz2     :     0.111032  d :     0.473218
      dxz     :     0.094630
      dyz     :     0.124419
      dx2y2   :     0.044712
      dxy     :     0.098424
      f0      :     0.002996  f :     0.021675
      f+1     :     0.003268
      f-1     :     0.002939
      f+2     :     0.003448
      f-2     :     0.003284
      f+3     :     0.000866
      f-3     :     0.004874
 46 H s       :     0.683686  s :     0.683686
      pz      :     0.150882  p :     0.342163
      px      :     0.114062
      py      :     0.077219
      dz2     :     0.011481  d :     0.030812
      dxz     :     0.009724
      dyz     :     0.009343
      dx2y2   :     0.000144
      dxy     :     0.000120
 47 H s       :     0.700130  s :     0.700130
      pz      :     0.082715  p :     0.291983
      px      :     0.117498
      py      :     0.091771
      dz2     :     0.004110  d :     0.030242
      dxz     :     0.006055
      dyz     :     0.003222
      dx2y2   :     0.009087
      dxy     :     0.007769
 48 H s       :     0.703799  s :     0.703799
      pz      :     0.100479  p :     0.340173
      px      :     0.139446
      py      :     0.100248
      dz2     :     0.004707  d :     0.030144
      dxz     :     0.006542
      dyz     :     0.004192
      dx2y2   :     0.007634
      dxy     :     0.007069
 49 H s       :     0.711549  s :     0.711549
      pz      :     0.088640  p :     0.309514
      px      :     0.120934
      py      :     0.099940
      dz2     :     0.002660  d :     0.029821
      dxz     :     0.006496
      dyz     :     0.003365
      dx2y2   :     0.009094
      dxy     :     0.008206
 50 H s       :     0.711505  s :     0.711505
      pz      :     0.107911  p :     0.318217
      px      :     0.085118
      py      :     0.125188
      dz2     :     0.006758  d :     0.030093
      dxz     :     0.003071
      dyz     :     0.008234
      dx2y2   :     0.005359
      dxy     :     0.006671


                      *****************************
                      * MAYER POPULATION ANALYSIS *
                      *****************************

  NA   - Mulliken gross atomic population
  ZA   - Total nuclear charge
  QA   - Mulliken gross atomic charge
  VA   - Mayer's total valence
  BVA  - Mayer's bonded valence
  FA   - Mayer's free valence

  ATOM       NA         ZA         QA         VA         BVA        FA
  0 C      5.7330     6.0000     0.2670     1.9468     1.9468     0.0000
  1 C      5.3850     6.0000     0.6150     0.7889     0.7889    -0.0000
  2 C      5.5739     6.0000     0.4261     1.6129     1.6129     0.0000
  3 C      5.3014     6.0000     0.6986     1.8796     1.8796    -0.0000
  4 C      6.3565     6.0000    -0.3565     4.1919     4.1919     0.0000
  5 H      0.9784     1.0000     0.0216     1.0263     1.0263     0.0000
  6 H      0.8316     1.0000     0.1684     0.8394     0.8394     0.0000
  7 H      0.9759     1.0000     0.0241     0.9544     0.9544     0.0000
  8 C      6.5917     6.0000    -0.5917     4.6845     4.6845     0.0000
  9 H      0.9387     1.0000     0.0613     0.9153     0.9153     0.0000
 10 H      0.9123     1.0000     0.0877     1.0100     1.0100     0.0000
 11 H      0.9114     1.0000     0.0886     0.9213     0.9213     0.0000
 12 C      6.7766     6.0000    -0.7766     4.7241     4.7241     0.0000
 13 H      0.9180     1.0000     0.0820     0.9151     0.9151    -0.0000
 14 H      0.8922     1.0000     0.1078     0.9562     0.9562    -0.0000
 15 H      0.9254     1.0000     0.0746     0.9227     0.9227     0.0000
 16 C      6.3589     6.0000    -0.3589     4.2559     4.2559    -0.0000
 17 H      0.9881     1.0000     0.0119     0.9450     0.9450     0.0000
 18 H      0.8387     1.0000     0.1613     0.8650     0.8650    -0.0000
 19 H      0.9171     1.0000     0.0829     0.9472     0.9472     0.0000
 20 C      6.6602     6.0000    -0.6602     4.2930     4.2930    -0.0000
 21 H      0.9818     1.0000     0.0182     0.9356     0.9356     0.0000
 22 H      0.8792     1.0000     0.1208     0.8552     0.8552     0.0000
 23 H      0.8816     1.0000     0.1184     0.9081     0.9081    -0.0000
 24 Ru    17.9993    16.0000    -1.9993     6.9265     6.9265     0.0000
 25 Cl    17.6253    17.0000    -0.6253     0.7580     0.7580    -0.0000
 26 P     13.6296    15.0000     1.3704     3.1180     3.1180     0.0000
 27 C      6.7655     6.0000    -0.7655     4.3309     4.3309    -0.0000
 28 H      0.8869     1.0000     0.1131     1.0985     1.0985    -0.0000
 29 H      0.8671     1.0000     0.1329     1.0518     1.0518    -0.0000
 30 H      0.8116     1.0000     0.1884     0.9957     0.9957    -0.0000
 31 C      6.7502     6.0000    -0.7502     4.3694     4.3694     0.0000
 32 H      0.8664     1.0000     0.1336     1.0617     1.0617     0.0000
 33 H      0.8600     1.0000     0.1400     1.0518     1.0518    -0.0000
 34 H      0.8636     1.0000     0.1364     1.0268     1.0268     0.0000
 35 C      6.2691     6.0000    -0.2691     4.3745     4.3745     0.0000
 36 H      0.8340     1.0000     0.1660     0.9200     0.9200    -0.0000
 37 H      0.8248     1.0000     0.1752     0.8400     0.8400     0.0000
 38 C      5.6340     6.0000     0.3660     2.0353     2.0353     0.0000
 39 P     13.8193    15.0000     1.1807     3.3837     3.3837     0.0000
 40 H      0.8376     1.0000     0.1624     1.0258     1.0258     0.0000
 41 H      0.8595     1.0000     0.1405     1.0436     1.0436    -0.0000
 42 H      0.8787     1.0000     0.1213     1.1366     1.1366     0.0000
 43 C      6.0022     6.0000    -0.0022     3.7518     3.7518     0.0000
 44 C      6.6584     6.0000    -0.6584     4.2619     4.2619    -0.0000
 45 C      6.7446     6.0000    -0.7446     4.3087     4.3087     0.0000
 46 H      0.7915     1.0000     0.2085     0.8495     0.8495    -0.0000
 47 H      0.8501     1.0000     0.1499     0.9542     0.9542     0.0000
 48 H      0.8389     1.0000     0.1611     1.0449     1.0449    -0.0000
 49 H      0.8521     1.0000     0.1479     1.0253     1.0253     0.0000
 50 H      0.8720     1.0000     0.1280     1.0286     1.0286    -0.0000

  Mayer bond orders larger than 0.100000
B(  0-C ,  1-C ) :  -0.3080 B(  0-C ,  2-C ) :  -0.2951 B(  0-C ,  3-C ) :   0.2899 
B(  0-C ,  4-C ) :   1.0992 B(  0-C ,  8-C ) :  -0.1605 B(  0-C , 12-C ) :   0.1203 
B(  0-C , 24-Ru) :   0.9328 B(  0-C , 38-C ) :   0.1628 B(  1-C ,  2-C ) :  -0.2071 
B(  1-C ,  3-C ) :  -0.1076 B(  1-C ,  4-C ) :  -0.1487 B(  1-C , 20-C ) :   1.0717 
B(  1-C , 22-H ) :  -0.1160 B(  1-C , 23-H ) :  -0.1074 B(  1-C , 24-Ru) :   0.1223 
B(  1-C , 26-P ) :   0.3278 B(  1-C , 39-P ) :   0.1745 B(  2-C ,  3-C ) :   0.5274 
B(  2-C ,  8-C ) :  -0.1234 B(  2-C , 12-C ) :   1.3773 B(  2-C , 24-Ru) :   0.2172 
B(  2-C , 25-Cl) :  -0.2174 B(  2-C , 38-C ) :   0.2047 B(  2-C , 39-P ) :   0.1226 
B(  3-C ,  8-C ) :   1.2789 B(  3-C , 12-C ) :  -0.2173 B(  3-C , 14-H ) :   0.1205 
B(  3-C , 38-C ) :  -0.2705 B(  4-C ,  5-H ) :   1.0112 B(  4-C ,  6-H ) :   0.8999 
B(  4-C ,  7-H ) :   0.9326 B(  4-C , 20-C ) :   0.1286 B(  8-C ,  9-H ) :   0.9475 
B(  8-C , 10-H ) :   0.8699 B(  8-C , 11-H ) :   0.9119 B(  8-C , 12-C ) :   0.3322 
B(  8-C , 24-Ru) :   0.2877 B(  8-C , 38-C ) :   0.1380 B( 12-C , 13-H ) :   0.8900 
B( 12-C , 14-H ) :   0.8655 B( 12-C , 15-H ) :   0.9952 B( 12-C , 24-Ru) :   0.4452 
B( 12-C , 38-C ) :  -0.3396 B( 16-C , 17-H ) :   0.9370 B( 16-C , 18-H ) :   0.9363 
B( 16-C , 19-H ) :   0.9577 B( 16-C , 20-C ) :   0.1094 B( 16-C , 38-C ) :   1.0451 
B( 20-C , 21-H ) :   0.8860 B( 20-C , 22-H ) :   0.9807 B( 20-C , 23-H ) :   0.9765 
B( 20-C , 24-Ru) :   0.1235 B( 20-C , 38-C ) :  -0.1417 B( 24-Ru, 25-Cl) :   0.8827 
B( 24-Ru, 26-P ) :   0.8751 B( 24-Ru, 27-C ) :   0.2365 B( 24-Ru, 31-C ) :   0.1971 
B( 24-Ru, 38-C ) :   1.0569 B( 24-Ru, 39-P ) :   0.8542 B( 24-Ru, 43-C ) :   0.1252 
B( 24-Ru, 44-C ) :   0.1634 B( 24-Ru, 45-C ) :   0.2387 B( 25-Cl, 26-P ) :  -0.2818 
B( 26-P , 27-C ) :   0.8900 B( 26-P , 31-C ) :   0.7706 B( 26-P , 35-C ) :   0.6015 
B( 26-P , 39-P ) :  -0.2382 B( 26-P , 43-C ) :   0.1948 B( 27-C , 28-H ) :   0.9811 
B( 27-C , 29-H ) :   0.9904 B( 27-C , 30-H ) :   0.9415 B( 27-C , 31-C ) :   0.1796 
B( 27-C , 35-C ) :   0.1370 B( 31-C , 32-H ) :   1.0115 B( 31-C , 33-H ) :   0.9643 
B( 31-C , 34-H ) :   0.9943 B( 31-C , 35-C ) :   0.1872 B( 35-C , 36-H ) :   0.9128 
B( 35-C , 37-H ) :   0.8644 B( 35-C , 39-P ) :   0.5189 B( 35-C , 43-C ) :   1.0201 
B( 38-C , 45-C ) :   0.1169 B( 39-P , 43-C ) :   0.3167 B( 39-P , 44-C ) :   0.9457 
B( 39-P , 45-C ) :   0.7478 B( 40-H , 44-C ) :   0.9453 B( 41-H , 44-C ) :   0.9819 
B( 42-H , 44-C ) :   0.9291 B( 43-C , 45-C ) :   0.1713 B( 43-C , 46-H ) :   0.9175 
B( 43-C , 47-H ) :   0.9062 B( 44-C , 45-C ) :   0.1484 B( 45-C , 48-H ) :   0.9979 
B( 45-C , 49-H ) :   0.9707 B( 45-C , 50-H ) :   0.9951 

-------
TIMINGS
-------

Total SCF time: 0 days 0 hours 1 min 8 sec 

Total time                  ....      68.752 sec
Sum of individual times     ....      66.543 sec  ( 96.8%)

Fock matrix formation       ....      52.132 sec  ( 75.8%)
  Split-RI-J                ....      17.210 sec  ( 33.0% of F)
  XC integration            ....      33.503 sec  ( 64.3% of F)
    Basis function eval.    ....       2.914 sec  (  8.7% of XC)
    Density eval.           ....      13.484 sec  ( 40.2% of XC)
    XC-Functional eval.     ....       0.204 sec  (  0.6% of XC)
    XC-Potential eval.      ....      15.374 sec  ( 45.9% of XC)
Diagonalization             ....       4.560 sec  (  6.6%)
Density matrix formation    ....       0.265 sec  (  0.4%)
Population analysis         ....       0.421 sec  (  0.6%)
Initial guess               ....       3.156 sec  (  4.6%)
Orbital Transformation      ....       0.000 sec  (  0.0%)
Orbital Orthonormalization  ....       0.000 sec  (  0.0%)
DIIS solution               ....       4.713 sec  (  6.9%)
Grid generation             ....       1.295 sec  (  1.9%)


-------------------------------------------------------------------------------
                          DFT DISPERSION CORRECTION                            
                                                                               
                              DFTD3 V3.1  Rev 1                                
                          USING Becke-Johnson damping                          
-------------------------------------------------------------------------------
The TPSS functional is recognized
Active option DFTDOPT                   ...         4   

molecular C6(AA) [au] = 29519.965825 


            DFT-D V3
 parameters
 s6 scaling factor         :     1.0000 
 a1 scaling factor         :     0.4535 
 s8 scaling factor         :     1.9435 
 a2 scaling factor         :     4.4752 
 ad hoc parameters k1-k3   :    16.0000     1.3333    -4.0000 

 Edisp/kcal,au: -68.838612207728  -0.109701299677 
 E6   /kcal   : -32.545012962 
 E8   /kcal   : -36.293599245 
 % E8         :  52.722735223 

-------------------------   ----------------
Dispersion correction           -0.109701300
-------------------------   ----------------


-------------------------   --------------------
FINAL SINGLE POINT ENERGY     -1866.948843851906
-------------------------   --------------------


                            ***************************************
                            *     ORCA property calculations      *
                            ***************************************

                                    ---------------------
                                    Active property flags
                                    ---------------------
   (+) Dipole Moment


------------------------------------------------------------------------------
                       ORCA ELECTRIC PROPERTIES CALCULATION
------------------------------------------------------------------------------

Dipole Moment Calculation                       ... on
Quadrupole Moment Calculation                   ... off
Polarizability Calculation                      ... off
GBWName                                         ... MOR33_pr28.gbw
Electron density file                           ... MOR33_pr28.scfp
The origin for moment calculation is the CENTER OF MASS  = ( 0.007976, -0.006902 -0.069662)

-------------
DIPOLE MOMENT
-------------
                                X             Y             Z
Electronic contribution:     12.12114      -1.44877     -17.78739
Nuclear contribution   :    -12.48154       1.60484      19.54441
                        -----------------------------------------
Total Dipole Moment    :     -0.36040       0.15608       1.75702
                        -----------------------------------------
Magnitude (a.u.)       :      1.80038
Magnitude (Debye)      :      4.57619



--------------------
Rotational spectrum 
--------------------
 
Rotational constants in cm-1:     0.010225     0.008868     0.007900 
Rotational constants in MHz :   306.523373   265.843264   236.824033 

 Dipole components along the rotational axes: 
x,y,z [a.u.] :    -0.312899    -0.179506     1.763867 
x,y,z [Debye]:    -0.795327    -0.456268     4.483393 

 

Timings for individual modules:

Sum of individual times         ...       77.039 sec (=   1.284 min)
GTO integral calculation        ...        7.883 sec (=   0.131 min)  10.2 %
SCF iterations                  ...       69.156 sec (=   1.153 min)  89.8 %
                             ****ORCA TERMINATED NORMALLY****
TOTAL RUN TIME: 0 days 0 hours 1 minutes 17 seconds 831 msec
