
                                 *****************
                                 * O   R   C   A *
                                 *****************

           --- An Ab Initio, DFT and Semiempirical electronic structure package ---

                  #######################################################
                  #                        -***-                        #
                  #          Department of theory and spectroscopy      #
                  #               Directorship: Frank Neese             #
                  #        Max Planck Institute fuer Kohlenforschung    #
                  #                Kaiser Wilhelm Platz 1               #
                  #                 D-45470 Muelheim/Ruhr               #
                  #                      Germany                        #
                  #                                                     #
                  #                  All rights reserved                #
                  #                        -***-                        #
                  #######################################################


                         Program Version 4.2.0 -  RELEASE  -


 With contributions from (in alphabetic order):
   Daniel Aravena         : Magnetic Suceptibility
   Michael Atanasov       : Ab Initio Ligand Field Theory (pilot matlab implementation)
   Alexander A. Auer      : GIAO ZORA, VPT2
   Ute Becker             : Parallelization
   Giovanni Bistoni       : ED, misc. LED, open-shell LED, HFLED
   Martin Brehm           : Molecular dynamics
   Dmytro Bykov           : SCF Hessian
   Vijay G. Chilkuri      : MRCI spin determinant printing, contributions to CSF-ICE
   Dipayan Datta          : RHF DLPNO-CCSD density
   Achintya Kumar Dutta   : EOM-CC, STEOM-CC
   Dmitry Ganyushin       : Spin-Orbit,Spin-Spin,Magnetic field MRCI
   Miquel Garcia          : C-PCM Hessian, Gaussian charge scheme
   Yang Guo               : DLPNO-NEVPT2, CIM, IAO-localization
   Andreas Hansen         : Spin unrestricted coupled pair/coupled cluster methods
   Benjamin Helmich-Paris : CASSCF linear response (MC-RPA)
   Lee Huntington         : MR-EOM, pCC
   Robert Izsak           : Overlap fitted RIJCOSX, COSX-SCS-MP3, EOM
   Christian Kollmar      : KDIIS, OOCD, Brueckner-CCSD(T), CCSD density
   Simone Kossmann        : Meta GGA functionals, TD-DFT gradient, OOMP2, MP2 Hessian
   Martin Krupicka        : AUTO-CI
   Lucas Lang             : DCDCAS
   Dagmar Lenk            : GEPOL surface, SMD
   Dimitrios Liakos       : Extrapolation schemes; Compound Job, initial MDCI parallelization
   Dimitrios Manganas     : Further ROCIS development; embedding schemes
   Dimitrios Pantazis     : SARC Basis sets
   Taras Petrenko         : DFT Hessian,TD-DFT gradient, ASA, ECA, R-Raman, ABS, FL, XAS/XES, NRVS
   Peter Pinski           : DLPNO-MP2, DLPNO-MP2 Gradient
   Christoph Reimann      : Effective Core Potentials
   Marius Retegan         : Local ZFS, SOC
   Christoph Riplinger    : Optimizer, TS searches, QM/MM, DLPNO-CCSD(T), (RO)-DLPNO pert. Triples
   Tobias Risthaus        : Range-separated hybrids, TD-DFT gradient, RPA, STAB
   Michael Roemelt        : Original ROCIS implementation
   Masaaki Saitow         : Open-shell DLPNO-CCSD energy and density
   Barbara Sandhoefer     : DKH picture change effects
   Avijit Sen             : IP-ROCIS
   Kantharuban Sivalingam : CASSCF convergence, NEVPT2, FIC-MRCI
   Bernardo de Souza      : ESD, SOC TD-DFT
   Georgi Stoychev        : AutoAux, RI-MP2 NMR
   Willem Van den Heuvel  : Paramagnetic NMR
   Boris Wezisla          : Elementary symmetry handling
   Frank Wennmohs         : Technical directorship


 We gratefully acknowledge several colleagues who have allowed us to
 interface, adapt or use parts of their codes:
   Stefan Grimme, W. Hujo, H. Kruse,             : VdW corrections, initial TS optimization,
                  C. Bannwarth                     DFT functionals, gCP, sTDA/sTD-DF
   Ed Valeev, F. Pavosevic, A. Kumar             : LibInt (2-el integral package), F12 methods
   Garnet Chan, S. Sharma, J. Yang, R. Olivares  : DMRG
   Ulf Ekstrom                                   : XCFun DFT Library
   Mihaly Kallay                                 : mrcc  (arbitrary order and MRCC methods)
   Andreas Klamt, Michael Diedenhofen            : otool_cosmo (COSMO solvation model)
   Jiri Pittner, Ondrej Demel                    : Mk-CCSD
   Frank Weinhold                                : gennbo (NPA and NBO analysis)
   Christopher J. Cramer and Donald G. Truhlar   : smd solvation model
   Lars Goerigk                                  : TD-DFT with DH, B97 family of functionals
   V. Asgeirsson, H. Jonsson                     : NEB implementation
   FAccTs GmbH                                   : IRC, NEB, NEB-TS, Multilevel, MM, QM/MM, CI optimization
   S Lehtola, MJT Oliveira, MAL Marques          : LibXC Library


 Your calculation uses the libint2 library for the computation of 2-el integrals
 For citations please refer to: http://libint.valeyev.net

 Your ORCA version has been built with support for libXC version: 4.2.3
 For citations please refer to: https://tddft.org/programs/libxc/

 This ORCA versions uses:
   CBLAS   interface :  Fast vector & matrix operations
   LAPACKE interface :  Fast linear algebra routines
   SCALAPACK package :  Parallel linear algebra routines


Your calculation utilizes the atom-pairwise dispersion correction
with the Becke-Johnson damping scheme (D3BJ)
Cite in your paper:
S.Grimme, S.Ehrlich, L.Goerigk, J Comput Chem, (2011), 32, 1456–1465 
S.Grimme, J.Antony, S.Ehrlich and H.Krieg, J.Chem.Phys., 132, (2010), 154104 
   

----- Orbital basis set information -----
Your calculation utilizes the basis: def2-TZVPPD
   F. Weigend and R. Ahlrichs, Phys. Chem. Chem. Phys. 7, 3297 (2005).
   D. Rappoport and F. Furche, J. Chem. Phys. 133 134105 (2010).

----- AuxJ basis set information -----
Your calculation utilizes the auxiliary basis: def2/J
   F. Weigend, Phys. Chem. Chem. Phys. 8, 1057 (2006).

cite the ECPs for Ir [Def2-ECP] as follows:
Ce-Yb(ecp-28): M. Dolg, H. Stoll, H.Preuss, J. Chem. Phys., 1989, 90, 1730-1734.
Y-Cd(ecp-28), Hf-Hg(ecp-46): D. Andrae,U. Haeussermann, M. Dolg, H. Stoll, H. Preuss, Theor. Chim. Acta, 1990, 77, 123-141.
In-Sb(ecp-28), Tl-Bi(ecp-46): B. Metz, H. Stoll, M. Dolg, J. Chem. Phys., 2000, 113, 2563-2569.
Te-Xe(ecp-28), Po-Rn(ecp-46): K. A. Peterson, D. Figgen, E. Goll, H. Stoll, M. Dolg, J. Chem. Phys., 2003, 119, 11113-11123.
Rb(ecp-28), Cs(ecp-46): T. Leininger, A. Nicklass, W. Kuechle, H. Stoll, M. Dolg, A. Bergner, Chem. Phys. Lett., 1996, 255, 274-280.
Sr(ecp-28), Ba(ecp-46): M. Kaupp, P. V. Schleyer, H. Stoll and H. Preuss, J. Chem. Phys., 1991, 94, 1360-1366.
La(ecp-46): M. Dolg, H. Stoll, A. Savin, H. Preuss, Theor. Chim. Acta, 1989, 75, 173-194.
Lu(ecp-28): X. Cao, M. Dolg, J. Chem. Phys., 2001, 115, 7348-7355.

ECP parameters for Ir [Def2-ECP] have been obtained from:
TURBOMOLE (7.0.2)

================================================================================
                                        WARNINGS
                       Please study these warnings very carefully!
================================================================================


INFO   : the flag for use of LIBINT has been found!

================================================================================
                                       INPUT FILE
================================================================================
NAME = MOR31_pr20.in
|  1> #
|  2> # MOR31_pr20 TPSS-D3BJ/Def2-TZVPPD
|  3> #
|  4> ! tpss d3bj def2-tzvppd def2/j grid4 nofinalgrid
|  5> 
|  6> *xyz 0 1
|  7> Ir       0.002477   -0.015286    0.083430 
|  8> P       -2.348177   -0.226580   -0.058132 
|  9> C       -2.872702   -1.550327   -1.188803 
| 10> C       -3.160695   -0.601199    1.533451 
| 11> H       -2.768983   -1.545856    1.920385 
| 12> H       -3.035053    2.092169    0.038161 
| 13> H       -4.244853   -0.682241    1.406776 
| 14> H       -2.786362    1.529395   -1.637172 
| 15> H       -3.965660   -1.602102   -1.229325 
| 16> H       -2.934726    0.195116    2.248250 
| 17> C       -3.202684    1.268779   -0.660861 
| 18> H       -2.461852   -1.335119   -2.177902 
| 19> H       -4.277134    1.082313   -0.755690 
| 20> H       -2.448990   -2.494963   -0.841403 
| 21> P        2.371733   -0.033051   -0.048079 
| 22> C        3.118147   -1.146577    1.190097 
| 23> C        2.988864   -0.646513   -1.645491 
| 24> H        2.993037    2.252530   -0.586719 
| 25> H        4.326367    1.397945    0.228668 
| 26> H        2.927925    1.991387    1.168046 
| 27> C        3.242996    1.555288    0.216058 
| 28> H        4.081131   -0.719105   -1.623165 
| 29> H        2.539412   -1.627874   -1.816909 
| 30> H        4.198017   -1.226939    1.030710 
| 31> H        2.645385   -2.126625    1.084325 
| 32> H        2.665924    0.027013   -2.441495 
| 33> H        2.928294   -0.762471    2.196181 
| 34> C        0.041875   -0.376924    1.901008 
| 35> O        0.060916   -0.624538    3.028225 
| 36> Cl       0.274891   -2.517433   -0.343637 
| 37> C       -0.190594    2.003978    0.494123 
| 38> O       -0.529496    2.399253    1.599170 
| 39> Cl      -0.136178    0.364638   -2.291447 
| 40> C        0.062980    3.028488   -0.607541 
| 41> H        0.210382    4.010245   -0.149220 
| 42> H       -0.815546    3.056386   -1.260585 
| 43> H        0.900599    2.750150   -1.247819 
| 44> *
| 45> 
| 46> %maxcore 5000
| 47> 
| 48> %pal
| 49> nprocs = 24
| 50> end
| 51> 
| 52> 
| 53>                          ****END OF INPUT****
================================================================================

                       ****************************
                       * Single Point Calculation *
                       ****************************

---------------------------------
CARTESIAN COORDINATES (ANGSTROEM)
---------------------------------
  Ir     0.002477   -0.015286    0.083430
  P     -2.348177   -0.226580   -0.058132
  C     -2.872702   -1.550327   -1.188803
  C     -3.160695   -0.601199    1.533451
  H     -2.768983   -1.545856    1.920385
  H     -3.035053    2.092169    0.038161
  H     -4.244853   -0.682241    1.406776
  H     -2.786362    1.529395   -1.637172
  H     -3.965660   -1.602102   -1.229325
  H     -2.934726    0.195116    2.248250
  C     -3.202684    1.268779   -0.660861
  H     -2.461852   -1.335119   -2.177902
  H     -4.277134    1.082313   -0.755690
  H     -2.448990   -2.494963   -0.841403
  P      2.371733   -0.033051   -0.048079
  C      3.118147   -1.146577    1.190097
  C      2.988864   -0.646513   -1.645491
  H      2.993037    2.252530   -0.586719
  H      4.326367    1.397945    0.228668
  H      2.927925    1.991387    1.168046
  C      3.242996    1.555288    0.216058
  H      4.081131   -0.719105   -1.623165
  H      2.539412   -1.627874   -1.816909
  H      4.198017   -1.226939    1.030710
  H      2.645385   -2.126625    1.084325
  H      2.665924    0.027013   -2.441495
  H      2.928294   -0.762471    2.196181
  C      0.041875   -0.376924    1.901008
  O      0.060916   -0.624538    3.028225
  Cl     0.274891   -2.517433   -0.343637
  C     -0.190594    2.003978    0.494123
  O     -0.529496    2.399253    1.599170
  Cl    -0.136178    0.364638   -2.291447
  C      0.062980    3.028488   -0.607541
  H      0.210382    4.010245   -0.149220
  H     -0.815546    3.056386   -1.260585
  H      0.900599    2.750150   -1.247819

----------------------------
CARTESIAN COORDINATES (A.U.)
----------------------------
  NO LB      ZA    FRAG     MASS         X           Y           Z
   0 Ir   17.0000*   0   192.220    0.004681   -0.028886    0.157660
   1 P    15.0000    0    30.974   -4.437411   -0.428174   -0.109854
   2 C     6.0000    0    12.011   -5.428620   -2.929693   -2.246512
   3 C     6.0000    0    12.011   -5.972848   -1.136101    2.897802
   4 H     1.0000    0     1.008   -5.232620   -2.921244    3.629002
   5 H     1.0000    0     1.008   -5.735419    3.953626    0.072114
   6 H     1.0000    0     1.008   -8.021610   -1.289249    2.658421
   7 H     1.0000    0     1.008   -5.265461    2.890138   -3.093807
   8 H     1.0000    0     1.008   -7.494011   -3.027534   -2.323088
   9 H     1.0000    0     1.008   -5.545828    0.368716    4.248577
  10 C     6.0000    0    12.011   -6.052196    2.397645   -1.248846
  11 H     1.0000    0     1.008   -4.652226   -2.523009   -4.115638
  12 H     1.0000    0     1.008   -8.082612    2.045275   -1.428047
  13 H     1.0000    0     1.008   -4.627920   -4.714797   -1.590021
  14 P    15.0000    0    30.974    4.481926   -0.062457   -0.090856
  15 C     6.0000    0    12.011    5.892444   -2.166717    2.248957
  16 C     6.0000    0    12.011    5.648134   -1.221733   -3.109527
  17 H     1.0000    0     1.008    5.656020    4.256665   -1.108738
  18 H     1.0000    0     1.008    8.175649    2.641733    0.432120
  19 H     1.0000    0     1.008    5.532976    3.763176    2.207287
  20 C     6.0000    0    12.011    6.128374    2.939068    0.408290
  21 H     1.0000    0     1.008    7.712220   -1.358912   -3.067337
  22 H     1.0000    0     1.008    4.798793   -3.076236   -3.433460
  23 H     1.0000    0     1.008    7.933102   -2.318579    1.947760
  24 H     1.0000    0     1.008    4.999053   -4.018739    2.049077
  25 H     1.0000    0     1.008    5.037866    0.051047   -4.613757
  26 H     1.0000    0     1.008    5.533674   -1.440861    4.150181
  27 C     6.0000    0    12.011    0.079132   -0.712283    3.592384
  28 O     8.0000    0    15.999    0.115115   -1.180206    5.722516
  29 Cl   17.0000    0    35.453    0.519469   -4.757259   -0.649380
  30 C     6.0000    0    12.011   -0.360170    3.786970    0.933757
  31 O     8.0000    0    15.999   -1.000602    4.533931    3.021993
  32 Cl   17.0000    0    35.453   -0.257339    0.689066   -4.330207
  33 C     6.0000    0    12.011    0.119015    5.723013   -1.148086
  34 H     1.0000    0     1.008    0.397564    7.578265   -0.281985
  35 H     1.0000    0     1.008   -1.541159    5.775732   -2.382160
  36 H     1.0000    0     1.008    1.701885    5.197030   -2.358036
* core charge reduced due to ECP

--------------------------------
INTERNAL COORDINATES (ANGSTROEM)
--------------------------------
 Ir     0   0   0     0.000000000000     0.00000000     0.00000000
 P      1   0   0     2.364372894024     0.00000000     0.00000000
 C      2   1   0     1.818199523120   112.89900223     0.00000000
 C      2   1   3     1.825831684842   114.11533775   120.22862626
 H      4   2   1     1.093404343758   109.04540746   300.16074091
 H      2   1   3     2.420261949919   101.19542370   217.60303487
 H      4   2   1     1.094537770181   110.79949120   179.71910316
 H      6   2   1     1.784741563769    67.72870579    91.22650876
 H      3   2   1     1.094933729900   110.20660672   180.62146784
 H      4   2   1     1.093671421674   109.17091689    59.01795514
 C      8   6   2     1.092898840635    35.26933471    42.45613674
 H      3   2   1     1.092441777655   108.12652670   301.57072454
 H     11   8   6     1.094625466037   109.70297694   120.20880048
 H      3   2   1     1.092042028239   108.66415339    58.80706591
 P      1   2   3     2.372969491132   171.36111377     9.24195166
 C     15   1   2     1.824870904762   112.04586960   261.05280406
 C     15   1   2     1.819041339373   112.94969910    18.82016911
 H     15   1   2     2.428998192172   105.10750477   117.71386421
 H     18  15   1     1.781274928498    68.80888987   155.60514391
 H     18  15   1     1.775284609356    68.47013061    90.34136478
 C     18  15   1     1.092280559185    45.16310623   123.34346216
 H     17  15   1     1.094904218655   110.05349506   185.02616987
 H     17  15   1     1.092913831621   107.52001457   305.71125652
 H     16  15   1     1.094523404827   110.45941233   173.30120396
 H     16  15   1     1.093245492528   107.72751814    52.78400007
 H     17  15   1     1.091581368608   109.38524909    63.39491688
 H     16  15   1     1.093520276859   109.80992706   293.96268213
 C      1   2   3     1.853624565960    93.57785782   240.72564542
 O     28   1   2     1.154250153895   178.83165238    70.80309522
 Cl     1   2   3     2.552907209339    90.48606828   329.06490533
 C      1   2   3     2.069630946083    90.36243508   150.83193825
 O     31   1   2     1.221566929578   121.40581580    76.72091926
 Cl     1   2   3     2.409067915176    84.13694011    58.77303726
 C     31   1   2     1.525642186908   119.76130766   258.10819006
 H     34  31   1     1.093449722527   108.82444089   196.83980871
 H     34  31   1     1.095012646966   108.32494452    77.76004486
 H     34  31   1     1.090428149256   112.35007945   321.22965901

---------------------------
INTERNAL COORDINATES (A.U.)
---------------------------
 Ir     0   0   0     0.000000000000     0.00000000     0.00000000
 P      1   0   0     4.468017248172     0.00000000     0.00000000
 C      2   1   0     3.435899155524   112.89900223     0.00000000
 C      2   1   3     3.450321850988   114.11533775   120.22862626
 H      4   2   1     2.066234763343   109.04540746   300.16074091
 H      2   1   3     4.573632257697   101.19542370   217.60303487
 H      4   2   1     2.068376628875   110.79949120   179.71910316
 H      6   2   1     3.372672775350    67.72870579    91.22650876
 H      3   2   1     2.069124884304   110.20660672   180.62146784
 H      4   2   1     2.066739467461   109.17091689    59.01795514
 C      8   6   2     2.065279500880    35.26933471    42.45613674
 H      3   2   1     2.064415777021   108.12652670   301.57072454
 H     11   8   6     2.068542350026   109.70297694   120.20880048
 H      3   2   1     2.063660360103   108.66415339    58.80706591
 P      1   2   3     4.484262462389   171.36111377     9.24195166
 C     15   1   2     3.448506239762   112.04586960   261.05280406
 C     15   1   2     3.437489957697   112.94969910    18.82016911
 H     15   1   2     4.590141362996   105.10750477   117.71386421
 H     18  15   1     3.366121784081    68.80888987   155.60514391
 H     18  15   1     3.354801721449    68.47013061    90.34136478
 C     18  15   1     2.064111118266    45.16310623   123.34346216
 H     17  15   1     2.069069116133   110.05349506   185.02616987
 H     17  15   1     2.065307829739   107.52001457   305.71125652
 H     16  15   1     2.068349482289   110.45941233   173.30120396
 H     16  15   1     2.065934578021   107.72751814    52.78400007
 H     17  15   1     2.062789839560   109.38524909    63.39491688
 H     16  15   1     2.066453845153   109.80992706   293.96268213
 C      1   2   3     3.502842784774    93.57785782   240.72564542
 O     28   1   2     2.181216680897   178.83165238    70.80309522
 Cl     1   2   3     4.824295470963    90.48606828   329.06490533
 C      1   2   3     3.911035686386    90.36243508   150.83193825
 O     31   1   2     2.308426951157   121.40581580    76.72091926
 Cl     1   2   3     4.552478597699    84.13694011    58.77303726
 C     31   1   2     2.883045911612   119.76130766   258.10819006
 H     34  31   1     2.066320516788   108.82444089   196.83980871
 H     34  31   1     2.069274015946   108.32494452    77.76004486
 H     34  31   1     2.060610570812   112.35007945   321.22965901

---------------------
BASIS SET INFORMATION
---------------------
There are 6 groups of distinct atoms

 Group   1 Type Ir  : 8s8p6d2f1g contracted to 6s5p3d2f1g pattern {311111/41111/411/11/1}
 Group   2 Type P   : 15s9p4d1f contracted to 6s5p4d1f pattern {732111/51111/1111/1}
 Group   3 Type C   : 12s6p3d1f contracted to 6s3p3d1f pattern {621111/411/111/1}
 Group   4 Type H   : 5s3p1d contracted to 3s3p1d pattern {311/111/1}
 Group   5 Type O   : 12s7p3d1f contracted to 6s4p3d1f pattern {621111/4111/111/1}
 Group   6 Type Cl  : 15s10p4d1f contracted to 6s6p4d1f pattern {732111/511111/1111/1}

Atom   0Ir   basis set group =>   1
Atom   1P    basis set group =>   2
Atom   2C    basis set group =>   3
Atom   3C    basis set group =>   3
Atom   4H    basis set group =>   4
Atom   5H    basis set group =>   4
Atom   6H    basis set group =>   4
Atom   7H    basis set group =>   4
Atom   8H    basis set group =>   4
Atom   9H    basis set group =>   4
Atom  10C    basis set group =>   3
Atom  11H    basis set group =>   4
Atom  12H    basis set group =>   4
Atom  13H    basis set group =>   4
Atom  14P    basis set group =>   2
Atom  15C    basis set group =>   3
Atom  16C    basis set group =>   3
Atom  17H    basis set group =>   4
Atom  18H    basis set group =>   4
Atom  19H    basis set group =>   4
Atom  20C    basis set group =>   3
Atom  21H    basis set group =>   4
Atom  22H    basis set group =>   4
Atom  23H    basis set group =>   4
Atom  24H    basis set group =>   4
Atom  25H    basis set group =>   4
Atom  26H    basis set group =>   4
Atom  27C    basis set group =>   3
Atom  28O    basis set group =>   5
Atom  29Cl   basis set group =>   6
Atom  30C    basis set group =>   3
Atom  31O    basis set group =>   5
Atom  32Cl   basis set group =>   6
Atom  33C    basis set group =>   3
Atom  34H    basis set group =>   4
Atom  35H    basis set group =>   4
Atom  36H    basis set group =>   4
---------------------------------
AUXILIARY/J BASIS SET INFORMATION
---------------------------------
There are 6 groups of distinct atoms

 Group   1 Type Ir  : 11s5p5d3f3g contracted to 8s5p5d2f3g pattern {41111111/11111/11111/21/111}
 Group   2 Type P   : 14s5p5d2f1g contracted to 8s4p3d1f1g pattern {71111111/2111/311/2/1}
 Group   3 Type C   : 12s5p4d2f1g contracted to 6s4p3d1f1g pattern {711111/2111/211/2/1}
 Group   4 Type H   : 5s2p1d contracted to 3s1p1d pattern {311/2/1}
 Group   5 Type O   : 12s5p4d2f1g contracted to 6s4p3d1f1g pattern {711111/2111/211/2/1}
 Group   6 Type Cl  : 14s5p5d2f1g contracted to 8s4p3d1f1g pattern {71111111/2111/311/2/1}

Atom   0Ir   basis set group =>   1
Atom   1P    basis set group =>   2
Atom   2C    basis set group =>   3
Atom   3C    basis set group =>   3
Atom   4H    basis set group =>   4
Atom   5H    basis set group =>   4
Atom   6H    basis set group =>   4
Atom   7H    basis set group =>   4
Atom   8H    basis set group =>   4
Atom   9H    basis set group =>   4
Atom  10C    basis set group =>   3
Atom  11H    basis set group =>   4
Atom  12H    basis set group =>   4
Atom  13H    basis set group =>   4
Atom  14P    basis set group =>   2
Atom  15C    basis set group =>   3
Atom  16C    basis set group =>   3
Atom  17H    basis set group =>   4
Atom  18H    basis set group =>   4
Atom  19H    basis set group =>   4
Atom  20C    basis set group =>   3
Atom  21H    basis set group =>   4
Atom  22H    basis set group =>   4
Atom  23H    basis set group =>   4
Atom  24H    basis set group =>   4
Atom  25H    basis set group =>   4
Atom  26H    basis set group =>   4
Atom  27C    basis set group =>   3
Atom  28O    basis set group =>   5
Atom  29Cl   basis set group =>   6
Atom  30C    basis set group =>   3
Atom  31O    basis set group =>   5
Atom  32Cl   basis set group =>   6
Atom  33C    basis set group =>   3
Atom  34H    basis set group =>   4
Atom  35H    basis set group =>   4
Atom  36H    basis set group =>   4
-------------------------
ECP PARAMETER INFORMATION
-------------------------

 Group 1, Type Ir ECP Def2-ECP (replacing 60 core electrons, lmax=3)

Atom   0Ir   ECP group =>   1



           ************************************************************
           *        Program running with 24 parallel MPI-processes    *
           *              working on a common directory               *
           ************************************************************
------------------------------------------------------------------------------
                           ORCA GTO INTEGRAL CALCULATION
                           -- RI-GTO INTEGRALS CHOSEN --
------------------------------------------------------------------------------

                         BASIS SET STATISTICS AND STARTUP INFO

Gaussian basis set:
 # of primitive gaussian shells          ...  576
 # of primitive gaussian functions       ... 1344
 # of contracted shells                  ...  375
 # of contracted basis functions         ... 1027
 Highest angular momentum                ...    4
 Maximum contraction depth               ...    7
Auxiliary gaussian basis set:
 # of primitive gaussian shells          ...  567
 # of primitive gaussian functions       ... 1513
 # of contracted shells                  ...  361
 # of contracted aux-basis functions     ... 1063
 Highest angular momentum                ...    4
 Maximum contraction depth               ...    7
Ratio of auxiliary to basis functions    ...  1.04
Integral package used                  ... LIBINT
 One Electron integrals                  
   ECP integrals                         ... done
 Ordering auxiliary basis shells         ... done
 Integral threshhold             Thresh  ...  1.000e-10
 Primitive cut-off               TCut    ...  1.000e-11
 Pre-screening matrix                    ... done
 Shell pair data                         ... 
 Ordering of the shell pairs             ... done (   0.011 sec) 56784 of 70500 pairs
 Determination of significant pairs      ... done (   0.000 sec)
 Creation of shell pair data             ... done (   0.005 sec)
 Storage of shell pair data              ... done (   0.005 sec)
 Shell pair data done in (   0.021 sec)
 Computing two index integrals           ... done
 Cholesky decomposition of the V-matrix  ... done


Timings:
 Total evaluation time                   ...   5.438 sec (  0.091 min)
 One electron matrix time                ...   4.816 sec (  0.080 min) = 88.6%
 Schwartz matrix evaluation time         ...   0.496 sec (  0.008 min) =  9.1%
 Two index repulsion integral time       ...   0.026 sec (  0.000 min) =  0.5%
 Cholesky decomposition of V             ...   0.053 sec (  0.001 min) =  1.0%
 Three index repulsion integral time     ...   0.000 sec (  0.000 min) =  0.0%



           ************************************************************
           *        Program running with 24 parallel MPI-processes    *
           *              working on a common directory               *
           ************************************************************
-------------------------------------------------------------------------------
                                 ORCA SCF
-------------------------------------------------------------------------------

------------
SCF SETTINGS
------------
Hamiltonian:
 Density Functional     Method          .... DFT(GTOs)
 Exchange Functional    Exchange        .... TPSS
 Correlation Functional Correlation     .... TPSS
 LDA part of GGA corr.  LDAOpt          .... PW91-LDA
 Gradients option       PostSCFGGA      .... off
   Density functional embedding theory  .... OFF
   NL short-range parameter             ....  5.000000
 RI-approximation to the Coulomb term is turned on
   Number of auxiliary basis functions  .... 1063


General Settings:
 Integral files         IntName         .... MOR31_pr20
 Hartree-Fock type      HFTyp           .... RHF
 Total Charge           Charge          ....    0
 Multiplicity           Mult            ....    1
 Number of Electrons    NEL             ....  172
 Basis Dimension        Dim             .... 1027
 Nuclear Repulsion      ENuc            ....   2145.1218115526 Eh

Convergence Acceleration:
 DIIS                   CNVDIIS         .... on
   Start iteration      DIISMaxIt       ....    12
   Startup error        DIISStart       ....  0.200000
   # of expansion vecs  DIISMaxEq       ....     5
   Bias factor          DIISBfac        ....   1.050
   Max. coefficient     DIISMaxC        ....  10.000
 Newton-Raphson         CNVNR           .... off
 SOSCF                  CNVSOSCF        .... off
 Level Shifting         CNVShift        .... on
   Level shift para.    LevelShift      ....    0.2500
   Turn off err/grad.   ShiftErr        ....    0.0010
 Zerner damping         CNVZerner       .... off
 Static damping         CNVDamp         .... on
   Fraction old density DampFac         ....    0.7000
   Max. Damping (<1)    DampMax         ....    0.9800
   Min. Damping (>=0)   DampMin         ....    0.0000
   Turn off err/grad.   DampErr         ....    0.1000
 Fernandez-Rico         CNVRico         .... off

SCF Procedure:
 Maximum # iterations   MaxIter         ....   125
 SCF integral mode      SCFMode         .... Direct
   Integral package                     .... LIBINT
 Reset frequency        DirectResetFreq ....    20
 Integral Threshold     Thresh          ....  1.000e-10 Eh
 Primitive CutOff       TCut            ....  1.000e-11 Eh

Convergence Tolerance:
 Convergence Check Mode ConvCheckMode   .... Total+1el-Energy
 Convergence forced     ConvForced      .... 0
 Energy Change          TolE            ....  1.000e-06 Eh
 1-El. energy change                    ....  1.000e-03 Eh
 DIIS Error             TolErr          ....  1.000e-06


Diagonalization of the overlap matrix:
Smallest eigenvalue                        ... 2.474e-06
Time for diagonalization                   ...    0.174 sec
Threshold for overlap eigenvalues          ... 1.000e-08
Number of eigenvalues below threshold      ... 0
Time for construction of square roots      ...    0.131 sec
Total time needed                          ...    0.309 sec

-------------------
DFT GRID GENERATION
-------------------

General Integration Accuracy     IntAcc      ...  4.670
Radial Grid Type                 RadialGrid  ... Gauss-Chebyshev
Angular Grid (max. acc.)         AngularGrid ... Lebedev-302
Angular grid pruning method      GridPruning ... 3 (G Style)
Weight generation scheme         WeightScheme... Becke
Basis function cutoff            BFCut       ...    1.0000e-10
Integration weight cutoff        WCut        ...    1.0000e-14
Grids for H and He will be reduced by one unit

# of grid points (after initial pruning)     ... 178426 (   0.0 sec)
# of grid points (after weights+screening)   ... 155391 (   0.1 sec)
nearest neighbour list constructed           ...    0.0 sec
Grid point re-assignment to atoms done       ...    0.0 sec
Grid point division into batches done        ...    0.5 sec
Reduced shell lists constructed in    0.7 sec

Total number of grid points                  ...   155391
Total number of batches                      ...     2449
Average number of points per batch           ...       63
Average number of grid points per atom       ...     4200
Average number of shells per batch           ...   239.88 (63.97%)
Average number of basis functions per batch  ...   655.08 (63.79%)
Average number of large shells per batch     ...   182.06 (75.89%)
Average number of large basis fcns per batch ...   503.37 (76.84%)
Maximum spatial batch extension              ...   1.70,  1.68,  1.83 au
Average spatial batch extension              ...   0.04,  0.04,  0.04 au

Time for grid setup =    0.860 sec

------------------------------
INITIAL GUESS: MODEL POTENTIAL
------------------------------
Loading Hartree-Fock densities                     ... done
  calling /sw/apps/orca/orca_4_2_0_linux_x86-64_openmpi314/orca MOR31_pr20_atom77.inp > MOR31_pr20_atom77.out in order to generate an atomic fitting density for atom 0 (Ir with ECP) on-the-fly... 
    atom 0 (Ir), assumed electronic state with S=4: 1s2 2s2 2p6 3s2 3p6 4s2 3d10 4p6 5s2 4d10 5p6 6s2 4f14 5d7           ... done
Calculating cut-offs                               ... done
Setting up the integral package                    ... done
Initializing the effective Hamiltonian             ... done
Starting the Coulomb interaction                   ... done (   0.2 sec)
Reading the grid                                   ... done
Mapping shells                                     ... done
Starting the XC term evaluation                    ... done (   0.6 sec)
  promolecular density results
     # of electrons  =    231.990510695
     EX              =   -517.432875428
     EC              =    -10.185949669
     EX+EC           =   -527.618825097
Transforming the Hamiltonian                       ... done (   0.1 sec)
Diagonalizing the Hamiltonian                      ... done (   0.1 sec)
Back transforming the eigenvectors                 ... done (   0.0 sec)
Now organizing SCF variables                       ... done
                      ------------------
                      INITIAL GUESS DONE (   3.1 sec)
                      ------------------
--------------
SCF ITERATIONS
--------------
ITER       Energy         Delta-E        Max-DP      RMS-DP      [F,P]     Damp
               ***  Starting incremental Fock matrix formation  ***
  0  -2208.4315153351   0.000000000000134.25502117  0.29985981  1.0815075 0.7000
  1  -2210.7611395722  -2.32962423707642.84765746  0.09164933  0.2992891 0.7000
                               ***Turning on DIIS***
  2  -2211.8574742970  -1.09633472483330.60925202  0.06514141  0.1892958 0.7000
  3  -2212.5870640359  -0.72958973891821.85779213  0.04601106  0.1324131 0.7000
  4  -2213.0717660349  -0.48470199893951.69018515  0.10802165  0.0925059 0.0000
  5  -2214.2067000817  -1.134934046851 0.18094908  0.00082422  0.0361863 0.0000
  6  -2214.2021406739   0.004559407836 0.14814478  0.00035650  0.0616344 0.0000
  7  -2214.2153787113  -0.013238037401 0.05659196  0.00014015  0.0194982 0.0000
  8  -2214.2167588412  -0.001380129886 0.00755874  0.00005140  0.0039284 0.0000
  9  -2214.2168657175  -0.000106876346 0.00946107  0.00002719  0.0023487 0.0000
 10  -2214.2168809701  -0.000015252614 0.00384168  0.00002482  0.0009373 0.0000
 11  -2214.2168853269  -0.000004356716 0.00385821  0.00001338  0.0006383 0.0000
 12  -2214.2168859418  -0.000000614988 0.01397457  0.00002550  0.0002791 0.0000
 13  -2214.2168859911  -0.000000049231 0.01117148  0.00001698  0.0003173 0.0000
 14  -2214.2168863032  -0.000000312132 0.00713394  0.00001338  0.0000509 0.0000
                 **** Energy Check signals convergence ****

               *****************************************************
               *                     SUCCESS                       *
               *           SCF CONVERGED AFTER  15 CYCLES          *
               *****************************************************


----------------
TOTAL SCF ENERGY
----------------

Total Energy       :        -2214.21688618 Eh          -60251.90462 eV

Components:
Nuclear Repulsion  :         2145.12181155 Eh           58371.73205 eV
Electronic Energy  :        -4359.33869773 Eh         -118623.63667 eV
One Electron Energy:        -7359.23423846 Eh         -200254.94439 eV
Two Electron Energy:         2999.89554073 Eh           81631.30772 eV

Virial components:
Potential Energy   :        -4353.82913221 Eh         -118473.71377 eV
Kinetic Energy     :         2139.61224603 Eh           58221.80915 eV
Virial Ratio       :            2.03486830


DFT components:
N(Alpha)           :       85.999833548682 electrons
N(Beta)            :       85.999833548682 electrons
N(Total)           :      171.999667097363 electrons
E(X)               :     -181.573013039778 Eh       
E(C)               :       -6.233324177507 Eh       
E(XC)              :     -187.806337217285 Eh       
DFET-embed. en.    :        0.000000000000 Eh       

---------------
SCF CONVERGENCE
---------------

  Last Energy change         ...    1.2267e-07  Tolerance :   1.0000e-06
  Last MAX-Density change    ...    5.6028e-03  Tolerance :   1.0000e-05
  Last RMS-Density change    ...    1.3441e-05  Tolerance :   1.0000e-06
  Last DIIS Error            ...    4.0732e-05  Tolerance :   1.0000e-06

             **** THE GBW FILE WAS UPDATED (MOR31_pr20.gbw) ****
             **** DENSITY FILE WAS UPDATED (MOR31_pr20.scfp) ****
             **** ENERGY FILE WAS UPDATED (MOR31_pr20.en.tmp) ****
             **** THE GBW FILE WAS UPDATED (MOR31_pr20.gbw) ****
             **** DENSITY FILE WAS UPDATED (MOR31_pr20.scfp) ****
----------------
ORBITAL ENERGIES
----------------

  NO   OCC          E(Eh)            E(eV) 
   0   2.0000    -100.932476     -2746.5123 
   1   2.0000    -100.907879     -2745.8430 
   2   2.0000     -76.633303     -2085.2982 
   3   2.0000     -76.633252     -2085.2968 
   4   2.0000     -18.957959      -515.8723 
   5   2.0000     -18.870479      -513.4918 
   6   2.0000     -10.105818      -274.9933 
   7   2.0000     -10.066420      -273.9212 
   8   2.0000     -10.011228      -272.4194 
   9   2.0000     -10.008263      -272.3387 
  10   2.0000     -10.006121      -272.2804 
  11   2.0000     -10.002977      -272.1949 
  12   2.0000      -9.996979      -272.0316 
  13   2.0000      -9.995755      -271.9983 
  14   2.0000      -9.986532      -271.7473 
  15   2.0000      -9.182559      -249.8701 
  16   2.0000      -9.157503      -249.1883 
  17   2.0000      -6.958794      -189.3584 
  18   2.0000      -6.953359      -189.2105 
  19   2.0000      -6.953065      -189.2025 
  20   2.0000      -6.933403      -188.6675 
  21   2.0000      -6.928531      -188.5349 
  22   2.0000      -6.928256      -188.5274 
  23   2.0000      -6.406839      -174.3390 
  24   2.0000      -6.406809      -174.3381 
  25   2.0000      -4.584218      -124.7429 
  26   2.0000      -4.584217      -124.7429 
  27   2.0000      -4.583813      -124.7319 
  28   2.0000      -4.583789      -124.7312 
  29   2.0000      -4.582370      -124.6926 
  30   2.0000      -4.582317      -124.6912 
  31   2.0000      -3.622907       -98.5843 
  32   2.0000      -1.999183       -54.4005 
  33   2.0000      -1.988620       -54.1131 
  34   2.0000      -1.980835       -53.9013 
  35   2.0000      -1.059306       -28.8252 
  36   2.0000      -0.964698       -26.2508 
  37   2.0000      -0.741713       -20.1830 
  38   2.0000      -0.738645       -20.0995 
  39   2.0000      -0.701927       -19.1004 
  40   2.0000      -0.679039       -18.4776 
  41   2.0000      -0.672394       -18.2968 
  42   2.0000      -0.667442       -18.1620 
  43   2.0000      -0.665413       -18.1068 
  44   2.0000      -0.660306       -17.9678 
  45   2.0000      -0.658878       -17.9290 
  46   2.0000      -0.545403       -14.8412 
  47   2.0000      -0.525027       -14.2867 
  48   2.0000      -0.515380       -14.0242 
  49   2.0000      -0.490584       -13.3495 
  50   2.0000      -0.447469       -12.1763 
  51   2.0000      -0.435653       -11.8547 
  52   2.0000      -0.429695       -11.6926 
  53   2.0000      -0.424805       -11.5595 
  54   2.0000      -0.422800       -11.5050 
  55   2.0000      -0.415567       -11.3082 
  56   2.0000      -0.413253       -11.2452 
  57   2.0000      -0.411501       -11.1975 
  58   2.0000      -0.407198       -11.0804 
  59   2.0000      -0.405864       -11.0441 
  60   2.0000      -0.398672       -10.8484 
  61   2.0000      -0.390356       -10.6221 
  62   2.0000      -0.386127       -10.5070 
  63   2.0000      -0.383823       -10.4444 
  64   2.0000      -0.380948       -10.3661 
  65   2.0000      -0.379056       -10.3146 
  66   2.0000      -0.370072       -10.0702 
  67   2.0000      -0.369463       -10.0536 
  68   2.0000      -0.347133        -9.4460 
  69   2.0000      -0.342147        -9.3103 
  70   2.0000      -0.333857        -9.0847 
  71   2.0000      -0.332652        -9.0519 
  72   2.0000      -0.328366        -8.9353 
  73   2.0000      -0.326509        -8.8848 
  74   2.0000      -0.319912        -8.7052 
  75   2.0000      -0.296230        -8.0608 
  76   2.0000      -0.290363        -7.9012 
  77   2.0000      -0.283658        -7.7187 
  78   2.0000      -0.274673        -7.4742 
  79   2.0000      -0.271081        -7.3765 
  80   2.0000      -0.251688        -6.8488 
  81   2.0000      -0.224075        -6.0974 
  82   2.0000      -0.223616        -6.0849 
  83   2.0000      -0.209672        -5.7055 
  84   2.0000      -0.208630        -5.6771 
  85   2.0000      -0.188296        -5.1238 
  86   0.0000      -0.054609        -1.4860 
  87   0.0000      -0.052232        -1.4213 
  88   0.0000      -0.046096        -1.2543 
  89   0.0000      -0.041881        -1.1396 
  90   0.0000      -0.028441        -0.7739 
  91   0.0000      -0.017103        -0.4654 
  92   0.0000      -0.011309        -0.3077 
  93   0.0000       0.002762         0.0752 
  94   0.0000       0.005844         0.1590 
  95   0.0000       0.014919         0.4060 
  96   0.0000       0.016196         0.4407 
  97   0.0000       0.017493         0.4760 
  98   0.0000       0.020509         0.5581 
  99   0.0000       0.024859         0.6764 
 100   0.0000       0.030755         0.8369 
 101   0.0000       0.033713         0.9174 
 102   0.0000       0.037794         1.0284 
 103   0.0000       0.042139         1.1467 
 104   0.0000       0.045563         1.2398 
 105   0.0000       0.048706         1.3254 
 106   0.0000       0.054205         1.4750 
 107   0.0000       0.055760         1.5173 
 108   0.0000       0.059670         1.6237 
 109   0.0000       0.064720         1.7611 
 110   0.0000       0.067034         1.8241 
 111   0.0000       0.070384         1.9153 
 112   0.0000       0.074628         2.0307 
 113   0.0000       0.078054         2.1240 
 114   0.0000       0.080278         2.1845 
 115   0.0000       0.083390         2.2692 
 116   0.0000       0.085058         2.3145 
 117   0.0000       0.087322         2.3761 
 118   0.0000       0.091834         2.4989 
 119   0.0000       0.092278         2.5110 
 120   0.0000       0.093894         2.5550 
 121   0.0000       0.096810         2.6343 
 122   0.0000       0.099840         2.7168 
 123   0.0000       0.105862         2.8807 
 124   0.0000       0.108282         2.9465 
 125   0.0000       0.108622         2.9557 
 126   0.0000       0.111933         3.0459 
 127   0.0000       0.112397         3.0585 
 128   0.0000       0.116489         3.1698 
 129   0.0000       0.119051         3.2396 
 130   0.0000       0.122600         3.3361 
 131   0.0000       0.124965         3.4005 
 132   0.0000       0.126959         3.4547 
 133   0.0000       0.132548         3.6068 
 134   0.0000       0.137077         3.7301 
 135   0.0000       0.138852         3.7783 
 136   0.0000       0.144807         3.9404 
 137   0.0000       0.146665         3.9910 
 138   0.0000       0.149506         4.0683 
 139   0.0000       0.155430         4.2295 
 140   0.0000       0.158072         4.3014 
 141   0.0000       0.160685         4.3725 
 142   0.0000       0.168313         4.5800 
 143   0.0000       0.169801         4.6205 
 144   0.0000       0.179014         4.8712 
 145   0.0000       0.179303         4.8791 
 146   0.0000       0.183972         5.0061 
 147   0.0000       0.184544         5.0217 
 148   0.0000       0.189448         5.1551 
 149   0.0000       0.193646         5.2694 
 150   0.0000       0.195639         5.3236 
 151   0.0000       0.199515         5.4291 
 152   0.0000       0.200194         5.4476 
 153   0.0000       0.204016         5.5516 
 154   0.0000       0.211193         5.7468 
 155   0.0000       0.214857         5.8466 
 156   0.0000       0.215152         5.8546 
 157   0.0000       0.222581         6.0567 
 158   0.0000       0.225763         6.1433 
 159   0.0000       0.227958         6.2031 
 160   0.0000       0.228832         6.2268 
 161   0.0000       0.232051         6.3144 
 162   0.0000       0.235463         6.4073 
 163   0.0000       0.238528         6.4907 
 164   0.0000       0.242244         6.5918 
 165   0.0000       0.244806         6.6615 
 166   0.0000       0.246233         6.7003 
 167   0.0000       0.248755         6.7690 
 168   0.0000       0.251489         6.8434 
 169   0.0000       0.253031         6.8853 
 170   0.0000       0.253380         6.8948 
 171   0.0000       0.256337         6.9753 
 172   0.0000       0.257920         7.0184 
 173   0.0000       0.261428         7.1138 
 174   0.0000       0.264688         7.2025 
 175   0.0000       0.266548         7.2531 
 176   0.0000       0.267710         7.2848 
 177   0.0000       0.270534         7.3616 
 178   0.0000       0.273870         7.4524 
 179   0.0000       0.277594         7.5537 
 180   0.0000       0.277971         7.5640 
 181   0.0000       0.281293         7.6544 
 182   0.0000       0.283869         7.7245 
 183   0.0000       0.285222         7.7613 
 184   0.0000       0.289626         7.8811 
 185   0.0000       0.291612         7.9352 
 186   0.0000       0.293018         7.9734 
 187   0.0000       0.297215         8.0876 
 188   0.0000       0.298237         8.1154 
 189   0.0000       0.300675         8.1818 
 190   0.0000       0.303482         8.2582 
 191   0.0000       0.304720         8.2918 
 192   0.0000       0.307408         8.3650 
 193   0.0000       0.310706         8.4547 
 194   0.0000       0.313525         8.5314 
 195   0.0000       0.314362         8.5542 
 196   0.0000       0.315266         8.5788 
 197   0.0000       0.318470         8.6660 
 198   0.0000       0.323117         8.7925 
 199   0.0000       0.325739         8.8638 
 200   0.0000       0.327734         8.9181 
 201   0.0000       0.332246         9.0409 
 202   0.0000       0.334068         9.0905 
 203   0.0000       0.337283         9.1779 
 204   0.0000       0.341588         9.2951 
 205   0.0000       0.343575         9.3491 
 206   0.0000       0.347614         9.4591 
 207   0.0000       0.348908         9.4943 
 208   0.0000       0.355010         9.6603 
 209   0.0000       0.358643         9.7592 
 210   0.0000       0.359946         9.7946 
 211   0.0000       0.363292         9.8857 
 212   0.0000       0.368467        10.0265 
 213   0.0000       0.371310        10.1039 
 214   0.0000       0.372620        10.1395 
 215   0.0000       0.375432        10.2160 
 216   0.0000       0.379389        10.3237 
 217   0.0000       0.383707        10.4412 
 218   0.0000       0.387964        10.5570 
 219   0.0000       0.388977        10.5846 
 220   0.0000       0.390759        10.6331 
 221   0.0000       0.393851        10.7172 
 222   0.0000       0.395591        10.7646 
 223   0.0000       0.399565        10.8727 
 224   0.0000       0.401643        10.9293 
 225   0.0000       0.406557        11.0630 
 226   0.0000       0.410525        11.1709 
 227   0.0000       0.412460        11.2236 
 228   0.0000       0.414283        11.2732 
 229   0.0000       0.416299        11.3281 
 230   0.0000       0.420536        11.4434 
 231   0.0000       0.422825        11.5057 
 232   0.0000       0.424558        11.5528 
 233   0.0000       0.428499        11.6600 
 234   0.0000       0.430299        11.7090 
 235   0.0000       0.434729        11.8296 
 236   0.0000       0.437925        11.9166 
 237   0.0000       0.441531        12.0147 
 238   0.0000       0.445490        12.1224 
 239   0.0000       0.448650        12.2084 
 240   0.0000       0.450783        12.2664 
 241   0.0000       0.451957        12.2984 
 242   0.0000       0.459557        12.5052 
 243   0.0000       0.459812        12.5121 
 244   0.0000       0.462649        12.5893 
 245   0.0000       0.466266        12.6877 
 246   0.0000       0.467992        12.7347 
 247   0.0000       0.470629        12.8065 
 248   0.0000       0.472519        12.8579 
 249   0.0000       0.474531        12.9126 
 250   0.0000       0.480469        13.0742 
 251   0.0000       0.481589        13.1047 
 252   0.0000       0.486712        13.2441 
 253   0.0000       0.489694        13.3252 
 254   0.0000       0.492311        13.3965 
 255   0.0000       0.493152        13.4193 
 256   0.0000       0.497714        13.5435 
 257   0.0000       0.499657        13.5964 
 258   0.0000       0.507836        13.8189 
 259   0.0000       0.511327        13.9139 
 260   0.0000       0.518974        14.1220 
 261   0.0000       0.519659        14.1406 
 262   0.0000       0.521833        14.1998 
 263   0.0000       0.524985        14.2856 
 264   0.0000       0.531592        14.4653 
 265   0.0000       0.535620        14.5750 
 266   0.0000       0.536917        14.6103 
 267   0.0000       0.544038        14.8040 
 268   0.0000       0.545461        14.8427 
 269   0.0000       0.546692        14.8762 
 270   0.0000       0.552141        15.0245 
 271   0.0000       0.556710        15.1488 
 272   0.0000       0.559550        15.2261 
 273   0.0000       0.560377        15.2486 
 274   0.0000       0.566819        15.4239 
 275   0.0000       0.568723        15.4757 
 276   0.0000       0.569398        15.4941 
 277   0.0000       0.576892        15.6980 
 278   0.0000       0.581521        15.8240 
 279   0.0000       0.582695        15.8559 
 280   0.0000       0.586175        15.9506 
 281   0.0000       0.587857        15.9964 
 282   0.0000       0.589882        16.0515 
 283   0.0000       0.593419        16.1477 
 284   0.0000       0.596427        16.2296 
 285   0.0000       0.602295        16.3893 
 286   0.0000       0.603830        16.4310 
 287   0.0000       0.605102        16.4657 
 288   0.0000       0.608357        16.5542 
 289   0.0000       0.611807        16.6481 
 290   0.0000       0.614981        16.7345 
 291   0.0000       0.617503        16.8031 
 292   0.0000       0.618740        16.8368 
 293   0.0000       0.623805        16.9746 
 294   0.0000       0.625614        17.0238 
 295   0.0000       0.629421        17.1274 
 296   0.0000       0.630676        17.1616 
 297   0.0000       0.634382        17.2624 
 298   0.0000       0.636602        17.3228 
 299   0.0000       0.642409        17.4808 
 300   0.0000       0.645471        17.5642 
 301   0.0000       0.647214        17.6116 
 302   0.0000       0.648567        17.6484 
 303   0.0000       0.651368        17.7246 
 304   0.0000       0.656466        17.8633 
 305   0.0000       0.658270        17.9124 
 306   0.0000       0.661608        18.0033 
 307   0.0000       0.664305        18.0767 
 308   0.0000       0.668611        18.1938 
 309   0.0000       0.672885        18.3101 
 310   0.0000       0.673902        18.3378 
 311   0.0000       0.675843        18.3906 
 312   0.0000       0.681375        18.5411 
 313   0.0000       0.684315        18.6212 
 314   0.0000       0.686045        18.6682 
 315   0.0000       0.688098        18.7241 
 316   0.0000       0.690941        18.8015 
 317   0.0000       0.693924        18.8826 
 318   0.0000       0.695967        18.9382 
 319   0.0000       0.696775        18.9602 
 320   0.0000       0.698114        18.9967 
 321   0.0000       0.699578        19.0365 
 322   0.0000       0.707360        19.2482 
 323   0.0000       0.708365        19.2756 
 324   0.0000       0.713506        19.4155 
 325   0.0000       0.713970        19.4281 
 326   0.0000       0.714202        19.4344 
 327   0.0000       0.718605        19.5542 
 328   0.0000       0.722259        19.6537 
 329   0.0000       0.727019        19.7832 
 330   0.0000       0.728798        19.8316 
 331   0.0000       0.731416        19.9029 
 332   0.0000       0.735090        20.0028 
 333   0.0000       0.735487        20.0136 
 334   0.0000       0.738356        20.0917 
 335   0.0000       0.742920        20.2159 
 336   0.0000       0.744009        20.2455 
 337   0.0000       0.749167        20.3859 
 338   0.0000       0.758385        20.6367 
 339   0.0000       0.762131        20.7386 
 340   0.0000       0.766826        20.8664 
 341   0.0000       0.767423        20.8826 
 342   0.0000       0.771170        20.9846 
 343   0.0000       0.775518        21.1029 
 344   0.0000       0.777169        21.1478 
 345   0.0000       0.779712        21.2170 
 346   0.0000       0.784786        21.3551 
 347   0.0000       0.788203        21.4481 
 348   0.0000       0.790473        21.5099 
 349   0.0000       0.793479        21.5917 
 350   0.0000       0.799532        21.7564 
 351   0.0000       0.801522        21.8105 
 352   0.0000       0.804180        21.8829 
 353   0.0000       0.813000        22.1228 
 354   0.0000       0.815833        22.2000 
 355   0.0000       0.817496        22.2452 
 356   0.0000       0.819286        22.2939 
 357   0.0000       0.824073        22.4242 
 358   0.0000       0.832695        22.6588 
 359   0.0000       0.835627        22.7386 
 360   0.0000       0.840396        22.8683 
 361   0.0000       0.846065        23.0226 
 362   0.0000       0.855631        23.2829 
 363   0.0000       0.857903        23.3447 
 364   0.0000       0.861048        23.4303 
 365   0.0000       0.868226        23.6256 
 366   0.0000       0.870656        23.6918 
 367   0.0000       0.873376        23.7658 
 368   0.0000       0.880781        23.9673 
 369   0.0000       0.887692        24.1553 
 370   0.0000       0.890036        24.2191 
 371   0.0000       0.895741        24.3744 
 372   0.0000       0.900068        24.4921 
 373   0.0000       0.903041        24.5730 
 374   0.0000       0.911090        24.7920 
 375   0.0000       0.912198        24.8222 
 376   0.0000       0.914390        24.8818 
 377   0.0000       0.916287        24.9334 
 378   0.0000       0.926221        25.2038 
 379   0.0000       0.937130        25.5006 
 380   0.0000       0.941344        25.6153 
 381   0.0000       0.944191        25.6927 
 382   0.0000       0.947290        25.7771 
 383   0.0000       0.958350        26.0780 
 384   0.0000       0.961347        26.1596 
 385   0.0000       0.966118        26.2894 
 386   0.0000       0.971241        26.4288 
 387   0.0000       0.973845        26.4997 
 388   0.0000       0.983697        26.7678 
 389   0.0000       0.989285        26.9198 
 390   0.0000       0.990870        26.9630 
 391   0.0000       0.996779        27.1237 
 392   0.0000       1.004456        27.3326 
 393   0.0000       1.005668        27.3656 
 394   0.0000       1.012757        27.5585 
 395   0.0000       1.015358        27.6293 
 396   0.0000       1.017014        27.6744 
 397   0.0000       1.031255        28.0619 
 398   0.0000       1.032126        28.0856 
 399   0.0000       1.043937        28.4070 
 400   0.0000       1.047451        28.5026 
 401   0.0000       1.053037        28.6546 
 402   0.0000       1.056259        28.7423 
 403   0.0000       1.061220        28.8773 
 404   0.0000       1.068337        29.0709 
 405   0.0000       1.071005        29.1435 
 406   0.0000       1.072621        29.1875 
 407   0.0000       1.076328        29.2884 
 408   0.0000       1.087193        29.5840 
 409   0.0000       1.092861        29.7383 
 410   0.0000       1.099188        29.9104 
 411   0.0000       1.102773        30.0080 
 412   0.0000       1.106745        30.1161 
 413   0.0000       1.116158        30.3722 
 414   0.0000       1.120449        30.4890 
 415   0.0000       1.126701        30.6591 
 416   0.0000       1.130788        30.7703 
 417   0.0000       1.137525        30.9536 
 418   0.0000       1.140018        31.0215 
 419   0.0000       1.143668        31.1208 
 420   0.0000       1.151363        31.3302 
 421   0.0000       1.158171        31.5154 
 422   0.0000       1.168252        31.7898 
 423   0.0000       1.172181        31.8967 
 424   0.0000       1.174570        31.9617 
 425   0.0000       1.183638        32.2084 
 426   0.0000       1.185275        32.2530 
 427   0.0000       1.192133        32.4396 
 428   0.0000       1.198780        32.6205 
 429   0.0000       1.199521        32.6406 
 430   0.0000       1.204256        32.7695 
 431   0.0000       1.212871        33.0039 
 432   0.0000       1.214061        33.0363 
 433   0.0000       1.224619        33.3236 
 434   0.0000       1.239304        33.7232 
 435   0.0000       1.244292        33.8589 
 436   0.0000       1.247651        33.9503 
 437   0.0000       1.255340        34.1595 
 438   0.0000       1.256921        34.2025 
 439   0.0000       1.257843        34.2276 
 440   0.0000       1.268338        34.5132 
 441   0.0000       1.272044        34.6141 
 442   0.0000       1.276512        34.7357 
 443   0.0000       1.278658        34.7940 
 444   0.0000       1.285324        34.9754 
 445   0.0000       1.297915        35.3181 
 446   0.0000       1.304675        35.5020 
 447   0.0000       1.309471        35.6325 
 448   0.0000       1.312302        35.7096 
 449   0.0000       1.317997        35.8645 
 450   0.0000       1.320282        35.9267 
 451   0.0000       1.323335        36.0098 
 452   0.0000       1.331914        36.2432 
 453   0.0000       1.335838        36.3500 
 454   0.0000       1.339129        36.4396 
 455   0.0000       1.346696        36.6454 
 456   0.0000       1.353844        36.8400 
 457   0.0000       1.355682        36.8900 
 458   0.0000       1.363143        37.0930 
 459   0.0000       1.369354        37.2620 
 460   0.0000       1.374836        37.4112 
 461   0.0000       1.380722        37.5713 
 462   0.0000       1.385560        37.7030 
 463   0.0000       1.389331        37.8056 
 464   0.0000       1.394258        37.9397 
 465   0.0000       1.397703        38.0334 
 466   0.0000       1.405868        38.2556 
 467   0.0000       1.413388        38.4602 
 468   0.0000       1.421440        38.6794 
 469   0.0000       1.426217        38.8093 
 470   0.0000       1.426812        38.8255 
 471   0.0000       1.434685        39.0398 
 472   0.0000       1.442067        39.2406 
 473   0.0000       1.445224        39.3266 
 474   0.0000       1.454140        39.5692 
 475   0.0000       1.458771        39.6952 
 476   0.0000       1.466327        39.9008 
 477   0.0000       1.472339        40.0644 
 478   0.0000       1.473286        40.0902 
 479   0.0000       1.481765        40.3209 
 480   0.0000       1.490462        40.5575 
 481   0.0000       1.494468        40.6665 
 482   0.0000       1.501965        40.8705 
 483   0.0000       1.514999        41.2252 
 484   0.0000       1.522021        41.4163 
 485   0.0000       1.525401        41.5083 
 486   0.0000       1.534420        41.7537 
 487   0.0000       1.546299        42.0769 
 488   0.0000       1.552859        42.2554 
 489   0.0000       1.563000        42.5314 
 490   0.0000       1.572454        42.7887 
 491   0.0000       1.578428        42.9512 
 492   0.0000       1.579934        42.9922 
 493   0.0000       1.583617        43.0924 
 494   0.0000       1.587788        43.2059 
 495   0.0000       1.598635        43.5011 
 496   0.0000       1.605946        43.7000 
 497   0.0000       1.610215        43.8162 
 498   0.0000       1.620752        44.1029 
 499   0.0000       1.623705        44.1833 
 500   0.0000       1.631167        44.3863 
 501   0.0000       1.637055        44.5465 
 502   0.0000       1.643312        44.7168 
 503   0.0000       1.646625        44.8069 
 504   0.0000       1.651280        44.9336 
 505   0.0000       1.655462        45.0474 
 506   0.0000       1.661029        45.1989 
 507   0.0000       1.665004        45.3071 
 508   0.0000       1.665896        45.3313 
 509   0.0000       1.670332        45.4520 
 510   0.0000       1.682656        45.7874 
 511   0.0000       1.687729        45.9254 
 512   0.0000       1.697898        46.2021 
 513   0.0000       1.698494        46.2184 
 514   0.0000       1.700767        46.2802 
 515   0.0000       1.716201        46.7002 
 516   0.0000       1.718193        46.7544 
 517   0.0000       1.722732        46.8779 
 518   0.0000       1.734390        47.1951 
 519   0.0000       1.737658        47.2841 
 520   0.0000       1.743472        47.4423 
 521   0.0000       1.753815        47.7237 
 522   0.0000       1.759228        47.8710 
 523   0.0000       1.765285        48.0359 
 524   0.0000       1.785340        48.5816 
 525   0.0000       1.797202        48.9044 
 526   0.0000       1.816728        49.4357 
 527   0.0000       1.819558        49.5127 
 528   0.0000       1.824885        49.6577 
 529   0.0000       1.833255        49.8854 
 530   0.0000       1.842104        50.1262 
 531   0.0000       1.851397        50.3791 
 532   0.0000       1.855258        50.4841 
 533   0.0000       1.856714        50.5238 
 534   0.0000       1.864065        50.7238 
 535   0.0000       1.865838        50.7720 
 536   0.0000       1.874610        51.0107 
 537   0.0000       1.881679        51.2031 
 538   0.0000       1.887111        51.3509 
 539   0.0000       1.892628        51.5010 
 540   0.0000       1.897934        51.6454 
 541   0.0000       1.899261        51.6815 
 542   0.0000       1.906038        51.8659 
 543   0.0000       1.921129        52.2766 
 544   0.0000       1.925500        52.3955 
 545   0.0000       1.927718        52.4559 
 546   0.0000       1.937466        52.7211 
 547   0.0000       1.951009        53.0896 
 548   0.0000       1.951870        53.1131 
 549   0.0000       1.968980        53.5787 
 550   0.0000       1.974074        53.7173 
 551   0.0000       1.979586        53.8673 
 552   0.0000       1.990383        54.1611 
 553   0.0000       1.997123        54.3445 
 554   0.0000       2.012634        54.7665 
 555   0.0000       2.016849        54.8813 
 556   0.0000       2.028537        55.1993 
 557   0.0000       2.033907        55.3454 
 558   0.0000       2.053130        55.8685 
 559   0.0000       2.059457        56.0407 
 560   0.0000       2.072369        56.3920 
 561   0.0000       2.075247        56.4703 
 562   0.0000       2.094502        56.9943 
 563   0.0000       2.095352        57.0174 
 564   0.0000       2.102664        57.2164 
 565   0.0000       2.108509        57.3754 
 566   0.0000       2.124782        57.8183 
 567   0.0000       2.129500        57.9466 
 568   0.0000       2.135942        58.1219 
 569   0.0000       2.141256        58.2665 
 570   0.0000       2.151528        58.5460 
 571   0.0000       2.157321        58.7037 
 572   0.0000       2.160791        58.7981 
 573   0.0000       2.164484        58.8986 
 574   0.0000       2.177582        59.2550 
 575   0.0000       2.183835        59.4252 
 576   0.0000       2.193182        59.6795 
 577   0.0000       2.197248        59.7902 
 578   0.0000       2.207246        60.0622 
 579   0.0000       2.221385        60.4470 
 580   0.0000       2.232155        60.7400 
 581   0.0000       2.240321        60.9622 
 582   0.0000       2.245761        61.1103 
 583   0.0000       2.256086        61.3912 
 584   0.0000       2.262152        61.5563 
 585   0.0000       2.267654        61.7060 
 586   0.0000       2.279460        62.0273 
 587   0.0000       2.283805        62.1455 
 588   0.0000       2.287951        62.2583 
 589   0.0000       2.305622        62.7392 
 590   0.0000       2.313459        62.9524 
 591   0.0000       2.319636        63.1205 
 592   0.0000       2.326280        63.3013 
 593   0.0000       2.344867        63.8071 
 594   0.0000       2.354560        64.0708 
 595   0.0000       2.358963        64.1906 
 596   0.0000       2.365968        64.3813 
 597   0.0000       2.371110        64.5212 
 598   0.0000       2.380806        64.7850 
 599   0.0000       2.383395        64.8555 
 600   0.0000       2.388540        64.9955 
 601   0.0000       2.393597        65.1331 
 602   0.0000       2.397410        65.2368 
 603   0.0000       2.415139        65.7193 
 604   0.0000       2.424490        65.9737 
 605   0.0000       2.427901        66.0665 
 606   0.0000       2.446024        66.5597 
 607   0.0000       2.469196        67.1902 
 608   0.0000       2.485977        67.6469 
 609   0.0000       2.499741        68.0214 
 610   0.0000       2.512719        68.3746 
 611   0.0000       2.544123        69.2291 
 612   0.0000       2.564968        69.7963 
 613   0.0000       2.568263        69.8860 
 614   0.0000       2.595912        70.6383 
 615   0.0000       2.602779        70.8252 
 616   0.0000       2.614821        71.1529 
 617   0.0000       2.630768        71.5868 
 618   0.0000       2.641251        71.8721 
 619   0.0000       2.651732        72.1573 
 620   0.0000       2.665492        72.5317 
 621   0.0000       2.678234        72.8785 
 622   0.0000       2.689940        73.1970 
 623   0.0000       2.716242        73.9127 
 624   0.0000       2.744282        74.6757 
 625   0.0000       2.750917        74.8563 
 626   0.0000       2.763641        75.2025 
 627   0.0000       2.773880        75.4811 
 628   0.0000       2.783530        75.7437 
 629   0.0000       2.790889        75.9439 
 630   0.0000       2.799019        76.1652 
 631   0.0000       2.816446        76.6394 
 632   0.0000       2.822813        76.8126 
 633   0.0000       2.832288        77.0705 
 634   0.0000       2.836904        77.1961 
 635   0.0000       2.846828        77.4661 
 636   0.0000       2.851801        77.6015 
 637   0.0000       2.865742        77.9808 
 638   0.0000       2.867029        78.0158 
 639   0.0000       2.875021        78.2333 
 640   0.0000       2.880999        78.3960 
 641   0.0000       2.882110        78.4262 
 642   0.0000       2.898750        78.8790 
 643   0.0000       2.900506        78.9268 
 644   0.0000       2.904101        79.0246 
 645   0.0000       2.912528        79.2539 
 646   0.0000       2.916568        79.3638 
 647   0.0000       2.925350        79.6028 
 648   0.0000       2.929327        79.7110 
 649   0.0000       2.933602        79.8274 
 650   0.0000       2.938035        79.9480 
 651   0.0000       2.945977        80.1641 
 652   0.0000       2.948598        80.2354 
 653   0.0000       2.952325        80.3369 
 654   0.0000       2.962606        80.6166 
 655   0.0000       2.971794        80.8666 
 656   0.0000       2.978182        81.0404 
 657   0.0000       2.986593        81.2693 
 658   0.0000       2.990302        81.3702 
 659   0.0000       2.992263        81.4236 
 660   0.0000       3.003778        81.7370 
 661   0.0000       3.007655        81.8424 
 662   0.0000       3.013315        81.9965 
 663   0.0000       3.021706        82.2248 
 664   0.0000       3.027030        82.3697 
 665   0.0000       3.035659        82.6045 
 666   0.0000       3.045948        82.8844 
 667   0.0000       3.047130        82.9166 
 668   0.0000       3.051358        83.0317 
 669   0.0000       3.051873        83.0457 
 670   0.0000       3.063749        83.3689 
 671   0.0000       3.068141        83.4884 
 672   0.0000       3.072158        83.5977 
 673   0.0000       3.077501        83.7430 
 674   0.0000       3.079236        83.7903 
 675   0.0000       3.087189        84.0067 
 676   0.0000       3.089741        84.0761 
 677   0.0000       3.094974        84.2185 
 678   0.0000       3.098977        84.3274 
 679   0.0000       3.112246        84.6885 
 680   0.0000       3.117502        84.8315 
 681   0.0000       3.120546        84.9144 
 682   0.0000       3.125427        85.0472 
 683   0.0000       3.136124        85.3383 
 684   0.0000       3.138635        85.4066 
 685   0.0000       3.147496        85.6477 
 686   0.0000       3.149014        85.6890 
 687   0.0000       3.151698        85.7621 
 688   0.0000       3.158944        85.9592 
 689   0.0000       3.170436        86.2720 
 690   0.0000       3.178903        86.5023 
 691   0.0000       3.196953        86.9935 
 692   0.0000       3.198339        87.0312 
 693   0.0000       3.200962        87.1026 
 694   0.0000       3.206246        87.2464 
 695   0.0000       3.211307        87.3841 
 696   0.0000       3.223254        87.7092 
 697   0.0000       3.226104        87.7867 
 698   0.0000       3.232025        87.9479 
 699   0.0000       3.233011        87.9747 
 700   0.0000       3.239862        88.1611 
 701   0.0000       3.246752        88.3486 
 702   0.0000       3.248809        88.4046 
 703   0.0000       3.257799        88.6492 
 704   0.0000       3.269034        88.9549 
 705   0.0000       3.274699        89.1091 
 706   0.0000       3.279909        89.2509 
 707   0.0000       3.287470        89.4566 
 708   0.0000       3.295047        89.6628 
 709   0.0000       3.305248        89.9404 
 710   0.0000       3.307322        89.9968 
 711   0.0000       3.314115        90.1817 
 712   0.0000       3.329453        90.5990 
 713   0.0000       3.334471        90.7356 
 714   0.0000       3.337425        90.8159 
 715   0.0000       3.342541        90.9552 
 716   0.0000       3.345432        91.0338 
 717   0.0000       3.348472        91.1165 
 718   0.0000       3.363023        91.5125 
 719   0.0000       3.375547        91.8533 
 720   0.0000       3.381367        92.0117 
 721   0.0000       3.387078        92.1671 
 722   0.0000       3.404993        92.6546 
 723   0.0000       3.408470        92.7492 
 724   0.0000       3.408989        92.7633 
 725   0.0000       3.427162        93.2578 
 726   0.0000       3.432282        93.3971 
 727   0.0000       3.440863        93.6307 
 728   0.0000       3.450963        93.9055 
 729   0.0000       3.460914        94.1763 
 730   0.0000       3.468337        94.3782 
 731   0.0000       3.475859        94.5829 
 732   0.0000       3.484779        94.8257 
 733   0.0000       3.496608        95.1475 
 734   0.0000       3.504519        95.3628 
 735   0.0000       3.512794        95.5880 
 736   0.0000       3.521433        95.8231 
 737   0.0000       3.527342        95.9838 
 738   0.0000       3.529166        96.0335 
 739   0.0000       3.532341        96.1199 
 740   0.0000       3.545270        96.4717 
 741   0.0000       3.550520        96.6146 
 742   0.0000       3.556125        96.7671 
 743   0.0000       3.566978        97.0624 
 744   0.0000       3.576011        97.3082 
 745   0.0000       3.576615        97.3246 
 746   0.0000       3.578496        97.3758 
 747   0.0000       3.585927        97.5780 
 748   0.0000       3.595516        97.8390 
 749   0.0000       3.601676        98.0066 
 750   0.0000       3.602647        98.0330 
 751   0.0000       3.605952        98.1230 
 752   0.0000       3.607626        98.1685 
 753   0.0000       3.611039        98.2614 
 754   0.0000       3.617033        98.4245 
 755   0.0000       3.620366        98.5152 
 756   0.0000       3.621605        98.5489 
 757   0.0000       3.630004        98.7774 
 758   0.0000       3.646371        99.2228 
 759   0.0000       3.651949        99.3746 
 760   0.0000       3.658154        99.5434 
 761   0.0000       3.672035        99.9212 
 762   0.0000       3.677645       100.0738 
 763   0.0000       3.680184       100.1429 
 764   0.0000       3.691713       100.4566 
 765   0.0000       3.698845       100.6507 
 766   0.0000       3.705952       100.8441 
 767   0.0000       3.716457       101.1299 
 768   0.0000       3.722015       101.2812 
 769   0.0000       3.729366       101.4812 
 770   0.0000       3.731824       101.5481 
 771   0.0000       3.740238       101.7771 
 772   0.0000       3.745715       101.9261 
 773   0.0000       3.758956       102.2864 
 774   0.0000       3.772508       102.6552 
 775   0.0000       3.776609       102.7667 
 776   0.0000       3.784084       102.9702 
 777   0.0000       3.791536       103.1729 
 778   0.0000       3.803523       103.4991 
 779   0.0000       3.821899       103.9992 
 780   0.0000       3.829388       104.2029 
 781   0.0000       3.837696       104.4290 
 782   0.0000       3.852521       104.8324 
 783   0.0000       3.857495       104.9678 
 784   0.0000       3.870410       105.3192 
 785   0.0000       3.873116       105.3928 
 786   0.0000       3.889159       105.8294 
 787   0.0000       3.902506       106.1926 
 788   0.0000       3.904580       106.2490 
 789   0.0000       3.914166       106.5099 
 790   0.0000       3.923791       106.7718 
 791   0.0000       3.949758       107.4784 
 792   0.0000       3.952517       107.5535 
 793   0.0000       3.979009       108.2743 
 794   0.0000       3.983860       108.4063 
 795   0.0000       3.994452       108.6946 
 796   0.0000       4.000856       108.8688 
 797   0.0000       4.008507       109.0770 
 798   0.0000       4.016496       109.2944 
 799   0.0000       4.021083       109.4192 
 800   0.0000       4.031535       109.7037 
 801   0.0000       4.039876       109.9306 
 802   0.0000       4.045645       110.0876 
 803   0.0000       4.047114       110.1276 
 804   0.0000       4.065613       110.6310 
 805   0.0000       4.077227       110.9470 
 806   0.0000       4.084186       111.1364 
 807   0.0000       4.088813       111.2623 
 808   0.0000       4.101570       111.6094 
 809   0.0000       4.106043       111.7311 
 810   0.0000       4.115748       111.9952 
 811   0.0000       4.121565       112.1535 
 812   0.0000       4.128370       112.3387 
 813   0.0000       4.130914       112.4079 
 814   0.0000       4.132946       112.4632 
 815   0.0000       4.165330       113.3444 
 816   0.0000       4.184050       113.8538 
 817   0.0000       4.199716       114.2801 
 818   0.0000       4.202201       114.3477 
 819   0.0000       4.213908       114.6663 
 820   0.0000       4.221100       114.8620 
 821   0.0000       4.222645       114.9040 
 822   0.0000       4.228112       115.0528 
 823   0.0000       4.247768       115.5877 
 824   0.0000       4.254999       115.7844 
 825   0.0000       4.271021       116.2204 
 826   0.0000       4.275514       116.3427 
 827   0.0000       4.283701       116.5654 
 828   0.0000       4.299774       117.0028 
 829   0.0000       4.303279       117.0982 
 830   0.0000       4.308634       117.2439 
 831   0.0000       4.314436       117.4018 
 832   0.0000       4.323415       117.6461 
 833   0.0000       4.324845       117.6850 
 834   0.0000       4.340371       118.1075 
 835   0.0000       4.342756       118.1724 
 836   0.0000       4.352470       118.4367 
 837   0.0000       4.366987       118.8318 
 838   0.0000       4.371289       118.9488 
 839   0.0000       4.390245       119.4646 
 840   0.0000       4.397832       119.6711 
 841   0.0000       4.401874       119.7811 
 842   0.0000       4.405956       119.8921 
 843   0.0000       4.408057       119.9493 
 844   0.0000       4.427388       120.4754 
 845   0.0000       4.433830       120.6507 
 846   0.0000       4.437822       120.7593 
 847   0.0000       4.441123       120.8491 
 848   0.0000       4.453952       121.1982 
 849   0.0000       4.461140       121.3938 
 850   0.0000       4.474613       121.7604 
 851   0.0000       4.482630       121.9786 
 852   0.0000       4.490800       122.2009 
 853   0.0000       4.493179       122.2656 
 854   0.0000       4.499450       122.4363 
 855   0.0000       4.510167       122.7279 
 856   0.0000       4.511180       122.7555 
 857   0.0000       4.519060       122.9699 
 858   0.0000       4.530790       123.2891 
 859   0.0000       4.533074       123.3512 
 860   0.0000       4.548667       123.7755 
 861   0.0000       4.574613       124.4815 
 862   0.0000       4.611317       125.4803 
 863   0.0000       4.634754       126.1181 
 864   0.0000       4.687121       127.5430 
 865   0.0000       4.690245       127.6281 
 866   0.0000       4.696333       127.7937 
 867   0.0000       4.699943       127.8919 
 868   0.0000       4.702531       127.9624 
 869   0.0000       4.706717       128.0763 
 870   0.0000       4.714821       128.2968 
 871   0.0000       4.717887       128.3802 
 872   0.0000       4.721698       128.4839 
 873   0.0000       4.734569       128.8342 
 874   0.0000       4.734857       128.8420 
 875   0.0000       4.739578       128.9705 
 876   0.0000       4.756187       129.4224 
 877   0.0000       4.761876       129.5772 
 878   0.0000       4.784513       130.1932 
 879   0.0000       4.817594       131.0934 
 880   0.0000       4.829181       131.4087 
 881   0.0000       4.833762       131.5334 
 882   0.0000       4.838879       131.6726 
 883   0.0000       4.847541       131.9083 
 884   0.0000       4.866711       132.4299 
 885   0.0000       4.916689       133.7899 
 886   0.0000       4.967360       135.1687 
 887   0.0000       5.101571       138.8208 
 888   0.0000       5.105893       138.9384 
 889   0.0000       5.117073       139.2426 
 890   0.0000       5.175588       140.8349 
 891   0.0000       5.179507       140.9415 
 892   0.0000       5.182682       141.0279 
 893   0.0000       5.186734       141.1382 
 894   0.0000       5.188465       141.1853 
 895   0.0000       5.191589       141.2703 
 896   0.0000       5.194880       141.3599 
 897   0.0000       5.201110       141.5294 
 898   0.0000       5.204380       141.6184 
 899   0.0000       5.210886       141.7954 
 900   0.0000       5.213652       141.8707 
 901   0.0000       5.220014       142.0438 
 902   0.0000       5.229619       142.3052 
 903   0.0000       5.231205       142.3483 
 904   0.0000       5.235208       142.4572 
 905   0.0000       5.241108       142.6178 
 906   0.0000       5.243004       142.6694 
 907   0.0000       5.245086       142.7260 
 908   0.0000       5.251904       142.9116 
 909   0.0000       5.272059       143.4600 
 910   0.0000       5.274836       143.5356 
 911   0.0000       5.287338       143.8758 
 912   0.0000       5.306502       144.3973 
 913   0.0000       5.310909       144.5172 
 914   0.0000       5.343187       145.3955 
 915   0.0000       5.348174       145.5312 
 916   0.0000       5.353632       145.6797 
 917   0.0000       5.362301       145.9156 
 918   0.0000       5.370178       146.1300 
 919   0.0000       5.378421       146.3543 
 920   0.0000       5.390255       146.6763 
 921   0.0000       5.425144       147.6257 
 922   0.0000       5.429933       147.7560 
 923   0.0000       5.435798       147.9156 
 924   0.0000       5.445965       148.1922 
 925   0.0000       5.448103       148.2504 
 926   0.0000       5.458242       148.5263 
 927   0.0000       5.462511       148.6425 
 928   0.0000       5.472020       148.9012 
 929   0.0000       5.474490       148.9685 
 930   0.0000       5.480495       149.1318 
 931   0.0000       5.507195       149.8584 
 932   0.0000       5.517582       150.1410 
 933   0.0000       5.530399       150.4898 
 934   0.0000       5.538380       150.7070 
 935   0.0000       5.561742       151.3427 
 936   0.0000       5.570640       151.5848 
 937   0.0000       5.572498       151.6354 
 938   0.0000       5.581417       151.8781 
 939   0.0000       5.587709       152.0493 
 940   0.0000       5.603370       152.4755 
 941   0.0000       5.619212       152.9065 
 942   0.0000       5.623300       153.0178 
 943   0.0000       5.654518       153.8673 
 944   0.0000       5.702484       155.1725 
 945   0.0000       5.710971       155.4034 
 946   0.0000       5.715287       155.5209 
 947   0.0000       5.731863       155.9719 
 948   0.0000       5.735176       156.0621 
 949   0.0000       5.745885       156.3535 
 950   0.0000       5.755565       156.6169 
 951   0.0000       5.776177       157.1778 
 952   0.0000       5.789877       157.5506 
 953   0.0000       5.811499       158.1389 
 954   0.0000       5.825849       158.5294 
 955   0.0000       5.834613       158.7679 
 956   0.0000       5.841264       158.9489 
 957   0.0000       5.848490       159.1455 
 958   0.0000       5.865899       159.6192 
 959   0.0000       5.945218       161.7776 
 960   0.0000       5.953149       161.9934 
 961   0.0000       5.981945       162.7770 
 962   0.0000       5.983871       162.8294 
 963   0.0000       6.097968       165.9341 
 964   0.0000       6.161642       167.6668 
 965   0.0000       6.166331       167.7944 
 966   0.0000       6.363288       173.1539 
 967   0.0000       6.367264       173.2621 
 968   0.0000       6.371439       173.3757 
 969   0.0000       6.376370       173.5099 
 970   0.0000       6.386175       173.7767 
[...]
      f-1     :     0.002686
      f+2     :     0.003005
      f-2     :     0.002651
      f+3     :     0.004078
      f-3     :     0.002531
 11 H s       :     0.697404  s :     0.697404
      pz      :     0.135736  p :     0.346451
      px      :     0.113686
      py      :     0.097029
      dz2     :     0.010501  d :     0.030343
      dxz     :     0.008055
      dyz     :     0.008358
      dx2y2   :     0.001926
      dxy     :     0.001503
 12 H s       :     0.708422  s :     0.708422
      pz      :     0.081295  p :     0.304974
      px      :     0.137249
      py      :     0.086431
      dz2     :     0.002700  d :     0.030008
      dxz     :     0.009325
      dyz     :     0.000472
      dx2y2   :     0.008294
      dxy     :     0.009217
 13 H s       :     0.697978  s :     0.697978
      pz      :     0.092131  p :     0.361708
      px      :     0.136705
      py      :     0.132872
      dz2     :     0.004136  d :     0.030404
      dxz     :     0.002033
      dyz     :     0.007841
      dx2y2   :     0.008849
      dxy     :     0.007545
 14 P s       :     4.633345  s :     4.633345
      pz      :     2.695597  p :     8.227265
      px      :     2.847641
      py      :     2.684027
      dz2     :     0.255163  d :     1.254733
      dxz     :     0.244983
      dyz     :     0.243983
      dx2y2   :     0.243304
      dxy     :     0.267300
      f0      :     0.018933  f :     0.122272
      f+1     :     0.015981
      f-1     :     0.016347
      f+2     :     0.018129
      f-2     :     0.019735
      f+3     :     0.013912
      f-3     :     0.019236
 15 C s       :     2.683669  s :     2.683669
      pz      :     0.930142  p :     2.814836
      px      :     0.940589
      py      :     0.944105
      dz2     :     0.124351  d :     0.490168
      dxz     :     0.070153
      dyz     :     0.090677
      dx2y2   :     0.117990
      dxy     :     0.086997
      f0      :     0.003000  f :     0.021632
      f+1     :     0.003011
      f-1     :     0.003824
      f+2     :     0.001860
      f-2     :     0.003667
      f+3     :     0.004821
      f-3     :     0.001448
 16 C s       :     2.684626  s :     2.684626
      pz      :     0.927515  p :     2.818421
      px      :     0.940939
      py      :     0.949967
      dz2     :     0.123696  d :     0.510845
      dxz     :     0.097979
      dyz     :     0.108385
      dx2y2   :     0.112058
      dxy     :     0.068727
      f0      :     0.002147  f :     0.021649
      f+1     :     0.004184
      f-1     :     0.003923
      f+2     :     0.002158
      f-2     :     0.003335
      f+3     :     0.005049
      f-3     :     0.000853
 17 H s       :     0.701744  s :     0.701744
      pz      :     0.115548  p :     0.326864
      px      :     0.100019
      py      :     0.111297
      dz2     :     0.008420  d :     0.030247
      dxz     :     0.005102
      dyz     :     0.007888
      dx2y2   :     0.004671
      dxy     :     0.004166
 18 H s       :     0.708543  s :     0.708543
      pz      :     0.079843  p :     0.305955
      px      :     0.139487
      py      :     0.086625
      dz2     :     0.002711  d :     0.029988
      dxz     :     0.009190
      dyz     :     0.000311
      dx2y2   :     0.008288
      dxy     :     0.009489
 19 H s       :     0.706210  s :     0.706210
      pz      :     0.124630  p :     0.306345
      px      :     0.088715
      py      :     0.093001
      dz2     :     0.009603  d :     0.030065
      dxz     :     0.007123
      dyz     :     0.008631
      dx2y2   :     0.002561
      dxy     :     0.002147
 20 C s       :     2.685198  s :     2.685198
      pz      :     0.942724  p :     2.814131
      px      :     0.938720
      py      :     0.932687
      dz2     :     0.084210  d :     0.466545
      dxz     :     0.035550
      dyz     :     0.117569
      dx2y2   :     0.127208
      dxy     :     0.102007
      f0      :     0.001073  f :     0.021728
      f+1     :     0.004394
      f-1     :     0.004465
      f+2     :     0.002635
      f-2     :     0.002420
      f+3     :     0.004603
      f-3     :     0.002138
 21 H s       :     0.709372  s :     0.709372
      pz      :     0.084911  p :     0.304547
      px      :     0.138205
      py      :     0.081431
      dz2     :     0.002648  d :     0.029954
      dxz     :     0.009596
      dyz     :     0.000124
      dx2y2   :     0.007926
      dxy     :     0.009660
 22 H s       :     0.693959  s :     0.693959
      pz      :     0.093875  p :     0.356094
      px      :     0.120090
      py      :     0.142128
      dz2     :     0.002976  d :     0.030326
      dxz     :     0.001730
      dyz     :     0.008540
      dx2y2   :     0.009126
      dxy     :     0.007954
 23 H s       :     0.708916  s :     0.708916
      pz      :     0.084588  p :     0.305326
      px      :     0.137685
      py      :     0.083053
      dz2     :     0.003108  d :     0.029998
      dxz     :     0.009119
      dyz     :     0.000282
      dx2y2   :     0.007828
      dxy     :     0.009662
 24 H s       :     0.694320  s :     0.694320
      pz      :     0.092567  p :     0.357413
      px      :     0.125802
      py      :     0.139043
      dz2     :     0.002956  d :     0.030288
      dxz     :     0.001678
      dyz     :     0.007962
      dx2y2   :     0.009587
      dxy     :     0.008105
 25 H s       :     0.702182  s :     0.702182
      pz      :     0.117945  p :     0.348239
      px      :     0.123532
      py      :     0.106762
      dz2     :     0.008870  d :     0.030391
      dxz     :     0.005367
      dyz     :     0.007492
      dx2y2   :     0.004757
      dxy     :     0.003905
 26 H s       :     0.704025  s :     0.704025
      pz      :     0.133613  p :     0.315736
      px      :     0.092677
      py      :     0.089447
      dz2     :     0.010652  d :     0.030093
      dxz     :     0.007949
      dyz     :     0.008596
      dx2y2   :     0.001604
      dxy     :     0.001292
 27 C s       :     2.893458  s :     2.893458
      pz      :     1.056723  p :     2.395196
      px      :     0.657065
      py      :     0.681408
      dz2     :     0.315699  d :     1.055884
      dxz     :     0.306224
      dyz     :     0.301996
      dx2y2   :     0.088022
      dxy     :     0.043943
      f0      :     0.034219  f :     0.095078
      f+1     :     0.025420
      f-1     :     0.027467
      f+2     :     0.003741
      f-2     :     0.003973
      f+3     :     0.000143
      f-3     :     0.000115
 28 O s       :     3.383172  s :     3.383172
      pz      :     1.567446  p :     4.283407
      px      :     1.350715
      py      :     1.365246
      dz2     :     0.103733  d :     0.204434
      dxz     :     0.042662
      dyz     :     0.050472
      dx2y2   :     0.004940
      dxy     :     0.002627
      f0      :     0.002868  f :     0.006580
      f+1     :     0.001445
      f-1     :     0.001891
      f+2     :     0.000189
      f-2     :     0.000181
      f+3     :     0.000003
      f-3     :     0.000003
 29 Cls       :     5.695692  s :     5.695692
      pz      :     3.827221  p :    11.200351
      px      :     3.768471
      py      :     3.604659
      dz2     :     0.021468  d :     0.196195
      dxz     :     0.018532
      dyz     :     0.050156
      dx2y2   :     0.055118
      dxy     :     0.050921
      f0      :     0.000218  f :     0.002272
      f+1     :     0.000052
      f-1     :     0.000389
      f+2     :     0.000396
      f-2     :     0.000098
      f+3     :     0.000601
      f-3     :     0.000516
 30 C s       :     2.756104  s :     2.756104
      pz      :     0.908342  p :     2.458437
      px      :     0.636061
      py      :     0.914034
      dz2     :     0.318671  d :     1.237364
      dxz     :     0.203676
      dyz     :     0.377266
      dx2y2   :     0.161167
      dxy     :     0.176583
      f0      :     0.026871  f :     0.102798
      f+1     :     0.015576
      f-1     :     0.023378
      f+2     :     0.016272
      f-2     :     0.012427
      f+3     :     0.004512
      f-3     :     0.003760
 31 O s       :     3.368508  s :     3.368508
      pz      :     1.501939  p :     4.369590
      px      :     1.291394
      py      :     1.576257
      dz2     :     0.089175  d :     0.274356
      dxz     :     0.047196
      dyz     :     0.092040
      dx2y2   :     0.027483
      dxy     :     0.018461
      f0      :     0.001735  f :     0.006037
      f+1     :     0.001134
      f-1     :     0.001749
      f+2     :     0.000632
      f-2     :     0.000671
      f+3     :     0.000068
      f-3     :     0.000047
 32 Cls       :     5.639191  s :     5.639191
      pz      :     3.551340  p :    11.094759
      px      :     3.761020
      py      :     3.782399
      dz2     :     0.056489  d :     0.240601
      dxz     :     0.064681
      dyz     :     0.059449
      dx2y2   :     0.035881
      dxy     :     0.024101
      f0      :     0.001085  f :     0.003751
      f+1     :     0.001150
      f-1     :     0.001131
      f+2     :     0.000162
      f-2     :     0.000160
      f+3     :     0.000024
      f-3     :     0.000039
 33 C s       :     2.650479  s :     2.650479
      pz      :     0.900069  p :     2.694369
      px      :     0.902400
      py      :     0.891899
      dz2     :     0.081274  d :     0.529727
      dxz     :     0.119979
      dyz     :     0.147342
      dx2y2   :     0.135277
      dxy     :     0.045855
      f0      :     0.006640  f :     0.030959
      f+1     :     0.003034
      f-1     :     0.005286
      f+2     :     0.006778
      f-2     :     0.002823
      f+3     :     0.002752
      f-3     :     0.003646
 34 H s       :     0.698553  s :     0.698553
      pz      :     0.085916  p :     0.281539
      px      :     0.075126
      py      :     0.120497
      dz2     :     0.004688  d :     0.029319
      dxz     :     0.002104
      dyz     :     0.008077
      dx2y2   :     0.007253
      dxy     :     0.007198
 35 H s       :     0.683652  s :     0.683652
      pz      :     0.102021  p :     0.321918
      px      :     0.125497
      py      :     0.094399
      dz2     :     0.006355  d :     0.029428
      dxz     :     0.008215
      dyz     :     0.003636
      dx2y2   :     0.005610
      dxy     :     0.005612
 36 H s       :     0.691624  s :     0.691624
      pz      :     0.108777  p :     0.345689
      px      :     0.131745
      py      :     0.105167
      dz2     :     0.006371  d :     0.029730
      dxz     :     0.008022
      dyz     :     0.003814
      dx2y2   :     0.006263
      dxy     :     0.005260


                      *****************************
                      * MAYER POPULATION ANALYSIS *
                      *****************************

  NA   - Mulliken gross atomic population
  ZA   - Total nuclear charge
  QA   - Mulliken gross atomic charge
  VA   - Mayer's total valence
  BVA  - Mayer's bonded valence
  FA   - Mayer's free valence

  ATOM       NA         ZA         QA         VA         BVA        FA
  0 Ir    16.2483    17.0000     0.7517     4.2515     4.2515     0.0000
  1 P     14.3988    15.0000     0.6012     4.1003     4.1003    -0.0000
  2 C      6.4366     6.0000    -0.4366     4.1079     4.1079    -0.0000
  3 C      6.4332     6.0000    -0.4332     4.0946     4.0946    -0.0000
  4 H      0.8927     1.0000     0.1073     1.0387     1.0387     0.0000
  5 H      0.8942     1.0000     0.1058     1.1078     1.1078    -0.0000
  6 H      0.8601     1.0000     0.1399     1.0391     1.0391    -0.0000
  7 H      0.8552     1.0000     0.1448     1.0471     1.0471    -0.0000
  8 H      0.8357     1.0000     0.1643     1.0250     1.0250    -0.0000
  9 H      0.9098     1.0000     0.0902     1.0838     1.0838    -0.0000
 10 C      6.4267     6.0000    -0.4267     4.1344     4.1344    -0.0000
 11 H      0.8894     1.0000     0.1106     1.1278     1.1278     0.0000
 12 H      0.8479     1.0000     0.1521     1.0597     1.0597    -0.0000
 13 H      0.8481     1.0000     0.1519     1.0667     1.0667     0.0000
 14 P     14.5759    15.0000     0.4241     4.3477     4.3477    -0.0000
 15 C      6.4607     6.0000    -0.4607     4.0608     4.0608    -0.0000
 16 C      6.3885     6.0000    -0.3885     4.0980     4.0980    -0.0000
 17 H      0.8911     1.0000     0.1089     1.0737     1.0737    -0.0000
 18 H      0.8656     1.0000     0.1344     1.0536     1.0536    -0.0000
 19 H      0.9010     1.0000     0.0990     1.0735     1.0735    -0.0000
 20 C      6.3869     6.0000    -0.3869     4.0519     4.0519    -0.0000
 21 H      0.8349     1.0000     0.1651     1.0283     1.0283    -0.0000
 22 H      0.9024     1.0000     0.0976     1.1620     1.1620     0.0000
 23 H      0.8430     1.0000     0.1570     1.0558     1.0558    -0.0000
 24 H      0.8195     1.0000     0.1805     1.0729     1.0729    -0.0000
 25 H      0.8580     1.0000     0.1420     1.0520     1.0520    -0.0000
 26 H      0.8967     1.0000     0.1033     1.0837     1.0837    -0.0000
 27 C      5.5495     6.0000     0.4505     3.3136     3.3136     0.0000
 28 O      8.4523     8.0000    -0.4523     1.9726     1.9726    -0.0000
 29 Cl    17.6721    17.0000    -0.6721     0.6735     0.6735    -0.0000
 30 C      5.3139     6.0000     0.6861     3.2043     3.2043     0.0000
 31 O      8.7287     8.0000    -0.7287     1.5499     1.5499     0.0000
 32 Cl    17.6417    17.0000    -0.6417     0.7407     0.7407    -0.0000
 33 C      6.5404     6.0000    -0.5404     4.3154     4.3154     0.0000
 34 H      0.9767     1.0000     0.0233     1.0393     1.0393    -0.0000
 35 H      0.8750     1.0000     0.1250     0.9638     0.9638    -0.0000
 36 H      0.8487     1.0000     0.1513     0.9619     0.9619     0.0000

  Mayer bond orders larger than 0.100000
B(  0-Ir,  1-P ) :   0.5455 B(  0-Ir, 14-P ) :   0.6717 B(  0-Ir, 27-C ) :   1.2136 
B(  0-Ir, 28-O ) :   0.1901 B(  0-Ir, 29-Cl) :   0.1696 B(  0-Ir, 30-C ) :   0.6991 
B(  0-Ir, 31-O ) :   0.1906 B(  0-Ir, 32-Cl) :   0.1411 B(  0-Ir, 33-C ) :   0.2304 
B(  1-P ,  2-C ) :   1.0589 B(  1-P ,  3-C ) :   0.8806 B(  1-P , 10-C ) :   0.9269 
B(  1-P , 32-Cl) :   0.1943 B(  2-C ,  3-C ) :   0.1088 B(  2-C ,  8-H ) :   0.9288 
B(  2-C , 11-H ) :   0.9375 B(  2-C , 13-H ) :   0.9449 B(  3-C ,  4-H ) :   0.9623 
B(  3-C ,  6-H ) :   0.9402 B(  3-C ,  9-H ) :   1.0015 B(  3-C , 10-C ) :   0.1243 
B(  5-H , 10-C ) :   1.0003 B(  7-H , 10-C ) :   0.9486 B( 10-C , 12-H ) :   0.9400 
B( 14-P , 15-C ) :   0.9137 B( 14-P , 16-C ) :   1.0912 B( 14-P , 20-C ) :   0.8481 
B( 14-P , 29-Cl) :   0.2257 B( 14-P , 32-Cl) :   0.1742 B( 15-C , 20-C ) :   0.1138 
B( 15-C , 23-H ) :   0.9385 B( 15-C , 24-H ) :   0.9536 B( 15-C , 26-H ) :   0.9812 
B( 16-C , 21-H ) :   0.9375 B( 16-C , 22-H ) :   0.9419 B( 16-C , 25-H ) :   0.9486 
B( 17-H , 20-C ) :   0.9760 B( 18-H , 20-C ) :   0.9407 B( 19-H , 20-C ) :   0.9832 
B( 27-C , 28-O ) :   1.7651 B( 27-C , 30-C ) :   0.1379 B( 29-Cl, 30-C ) :   0.1058 
B( 30-C , 31-O ) :   1.1033 B( 30-C , 33-C ) :   0.9693 B( 31-O , 33-C ) :   0.1152 
B( 33-C , 34-H ) :   1.0383 B( 33-C , 35-H ) :   0.9154 B( 33-C , 36-H ) :   0.9811 


-------
TIMINGS
-------

Total SCF time: 0 days 0 hours 0 min 42 sec 

Total time                  ....      42.702 sec
Sum of individual times     ....      41.300 sec  ( 96.7%)

Fock matrix formation       ....      31.634 sec  ( 74.1%)
  Split-RI-J                ....      10.529 sec  ( 33.3% of F)
  XC integration            ....      19.750 sec  ( 62.4% of F)
    Basis function eval.    ....       1.732 sec  (  8.8% of XC)
    Density eval.           ....       7.262 sec  ( 36.8% of XC)
    XC-Functional eval.     ....       0.178 sec  (  0.9% of XC)
    XC-Potential eval.      ....       8.772 sec  ( 44.4% of XC)
Diagonalization             ....       3.095 sec  (  7.2%)
Density matrix formation    ....       0.163 sec  (  0.4%)
Population analysis         ....       0.249 sec  (  0.6%)
Initial guess               ....       2.221 sec  (  5.2%)
Orbital Transformation      ....       0.000 sec  (  0.0%)
Orbital Orthonormalization  ....       0.000 sec  (  0.0%)
DIIS solution               ....       3.077 sec  (  7.2%)
Grid generation             ....       0.860 sec  (  2.0%)


-------------------------------------------------------------------------------
                          DFT DISPERSION CORRECTION                            
                                                                               
                              DFTD3 V3.1  Rev 1                                
                          USING Becke-Johnson damping                          
-------------------------------------------------------------------------------
The TPSS functional is recognized
Active option DFTDOPT                   ...         4   

molecular C6(AA) [au] = 20999.580047 


            DFT-D V3
 parameters
 s6 scaling factor         :     1.0000 
 a1 scaling factor         :     0.4535 
 s8 scaling factor         :     1.9435 
 a2 scaling factor         :     4.4752 
 ad hoc parameters k1-k3   :    16.0000     1.3333    -4.0000 

 Edisp/kcal,au: -51.710415821112  -0.082405784203 
 E6   /kcal   : -23.399900795 
 E8   /kcal   : -28.310515026 
 % E8         :  54.748186756 

-------------------------   ----------------
Dispersion correction           -0.082405784
-------------------------   ----------------


-------------------------   --------------------
FINAL SINGLE POINT ENERGY     -2214.299291964737
-------------------------   --------------------


                            ***************************************
                            *     ORCA property calculations      *
                            ***************************************

                                    ---------------------
                                    Active property flags
                                    ---------------------
   (+) Dipole Moment


------------------------------------------------------------------------------
                       ORCA ELECTRIC PROPERTIES CALCULATION
------------------------------------------------------------------------------

Dipole Moment Calculation                       ... on
Quadrupole Moment Calculation                   ... off
Polarizability Calculation                      ... off
GBWName                                         ... MOR31_pr20.gbw
Electron density file                           ... MOR31_pr20.scfp
The origin for moment calculation is the CENTER OF MASS  = (-0.001368, -0.039397  0.014283)

-------------
DIPOLE MOMENT
-------------
                                X             Y             Z
Electronic contribution:      0.13929      -7.69929      12.05037
Nuclear contribution   :     -0.04564       8.50954     -11.91616
                        -----------------------------------------
Total Dipole Moment    :      0.09365       0.81025       0.13420
                        -----------------------------------------
Magnitude (a.u.)       :      0.82661
Magnitude (Debye)      :      2.10107



--------------------
Rotational spectrum 
--------------------
 
Rotational constants in cm-1:     0.013559     0.009254     0.008806 
Rotational constants in MHz :   406.483484   277.425577   264.007304 

 Dipole components along the rotational axes: 
x,y,z [a.u.] :     0.083613     0.819567     0.067802 
x,y,z [Debye]:     0.212528     2.083174     0.172339 

 

Timings for individual modules:

Sum of individual times         ...       48.900 sec (=   0.815 min)
GTO integral calculation        ...        5.825 sec (=   0.097 min)  11.9 %
SCF iterations                  ...       43.075 sec (=   0.718 min)  88.1 %
                             ****ORCA TERMINATED NORMALLY****
TOTAL RUN TIME: 0 days 0 hours 0 minutes 49 seconds 538 msec
